 Entering Gaussian System, Link 0=/share/apps/gaussian/g16/g16
 Initial command:
 /share/apps/gaussian/g16/l1.exe "/scratch/363662.kestrel.chem.wisc.edu/Gau-253961.inp" -scrdir="/scratch/363662.kestrel.chem.wisc.edu/"
 Entering Link 1 = /share/apps/gaussian/g16/l1.exe PID=    253972.
  
 Copyright (c) 1988-2019, Gaussian, Inc.  All Rights Reserved.
  
 This is part of the Gaussian(R) 16 program.  It is based on
 the Gaussian(R) 09 system (copyright 2009, Gaussian, Inc.),
 the Gaussian(R) 03 system (copyright 2003, Gaussian, Inc.),
 the Gaussian(R) 98 system (copyright 1998, Gaussian, Inc.),
 the Gaussian(R) 94 system (copyright 1995, Gaussian, Inc.),
 the Gaussian 92(TM) system (copyright 1992, Gaussian, Inc.),
 the Gaussian 90(TM) system (copyright 1990, Gaussian, Inc.),
 the Gaussian 88(TM) system (copyright 1988, Gaussian, Inc.),
 the Gaussian 86(TM) system (copyright 1986, Carnegie Mellon
 University), and the Gaussian 82(TM) system (copyright 1983,
 Carnegie Mellon University). Gaussian is a federally registered
 trademark of Gaussian, Inc.
  
 This software contains proprietary and confidential information,
 including trade secrets, belonging to Gaussian, Inc.
  
 This software is provided under written license and may be
 used, copied, transmitted, or stored only in accord with that
 written license.
  
 The following legend is applicable only to US Government
 contracts under FAR:
  
                    RESTRICTED RIGHTS LEGEND
  
 Use, reproduction and disclosure by the US Government is
 subject to restrictions as set forth in subparagraphs (a)
 and (c) of the Commercial Computer Software - Restricted
 Rights clause in FAR 52.227-19.
  
 Gaussian, Inc.
 340 Quinnipiac St., Bldg. 40, Wallingford CT 06492
  
  
 ---------------------------------------------------------------
 Warning -- This program may not be used in any manner that
 competes with the business of Gaussian, Inc. or will provide
 assistance to any competitor of Gaussian, Inc.  The licensee
 of this program is prohibited from giving any competitor of
 Gaussian, Inc. access to this program.  By using this program,
 the user acknowledges that Gaussian, Inc. is engaged in the
 business of creating and licensing software in the field of
 computational chemistry and represents and warrants to the
 licensee that it is not a competitor of Gaussian, Inc. and that
 it will not use this program in any manner prohibited above.
 ---------------------------------------------------------------
  

 Cite this work as:
 Gaussian 16, Revision C.01,
 M. J. Frisch, G. W. Trucks, H. B. Schlegel, G. E. Scuseria, 
 M. A. Robb, J. R. Cheeseman, G. Scalmani, V. Barone, 
 G. A. Petersson, H. Nakatsuji, X. Li, M. Caricato, A. V. Marenich, 
 J. Bloino, B. G. Janesko, R. Gomperts, B. Mennucci, H. P. Hratchian, 
 J. V. Ortiz, A. F. Izmaylov, J. L. Sonnenberg, D. Williams-Young, 
 F. Ding, F. Lipparini, F. Egidi, J. Goings, B. Peng, A. Petrone, 
 T. Henderson, D. Ranasinghe, V. G. Zakrzewski, J. Gao, N. Rega, 
 G. Zheng, W. Liang, M. Hada, M. Ehara, K. Toyota, R. Fukuda, 
 J. Hasegawa, M. Ishida, T. Nakajima, Y. Honda, O. Kitao, H. Nakai, 
 T. Vreven, K. Throssell, J. A. Montgomery, Jr., J. E. Peralta, 
 F. Ogliaro, M. J. Bearpark, J. J. Heyd, E. N. Brothers, K. N. Kudin, 
 V. N. Staroverov, T. A. Keith, R. Kobayashi, J. Normand, 
 K. Raghavachari, A. P. Rendell, J. C. Burant, S. S. Iyengar, 
 J. Tomasi, M. Cossi, J. M. Millam, M. Klene, C. Adamo, R. Cammi, 
 J. W. Ochterski, R. L. Martin, K. Morokuma, O. Farkas, 
 J. B. Foresman, and D. J. Fox, Gaussian, Inc., Wallingford CT, 2019.
 
 ******************************************
 Gaussian 16:  ES64L-G16RevC.01  3-Jul-2019
                16-Aug-2024 
 ******************************************
 %nprocs=16
 Will use up to   16 processors via shared memory.
 %mem=16GB
 %chk=pyrmd1_conf-4.chk
 ----------------------------------------------------------------------
 # B3LYP/6-31G(d,p) symmetry=loose empiricaldispersion=GD3BJ int=(grid=
 ultrafine) opt=calcfc freq=noraman
 ----------------------------------------------------------------------
 1/10=4,18=20,19=15,26=4,38=1/1,3;
 2/9=110,12=2,17=4,18=3,40=1/2;
 3/5=1,6=6,7=101,11=2,25=1,30=1,71=2,74=-5,75=-5,124=41,140=1/1,2,3;
 4//1;
 5/5=2,38=5/2;
 8/6=4,10=90,11=11/1;
 11/6=1,8=1,9=11,15=111,16=1/1,2,10;
 10/6=1,13=1/2;
 6/7=2,8=2,9=2,10=2,28=1/1;
 7/10=1,25=1/1,2,3,16;
 1/10=4,18=20,19=15,26=4/3(2);
 2/9=110/2;
 99//99;
 2/9=110/2;
 3/5=1,6=6,7=101,11=2,25=1,30=1,71=1,74=-5,75=-5,124=41/1,2,3;
 4/5=5,16=3,69=1/1;
 5/5=2,38=5/2;
 7//1,2,3,16;
 1/18=20,19=15,26=4/3(-5);
 2/9=110/2;
 6/7=2,8=2,9=2,10=2,19=2,28=1/1;
 99/9=1/99;
 ----------
 pyrmd1.xyz
 ----------
 Symbolic Z-matrix:
 Charge =  0 Multiplicity = 1
 N                    -4.3233    1.5138    0.026 
 C                    -2.9964    1.1567    0.0069 
 N                    -2.7227   -0.1366   -0.2462 
 C                    -1.4092   -0.4871   -0.2654 
 C                    -1.1915   -1.9711   -0.5174 
 C                    -0.3746    0.4527   -0.0448 
 C                     1.0994    0.1855   -0.0476 
 O                     1.4489   -0.9875   -0.6223 
 C                     2.811    -1.3904   -0.7242 
 C                     3.2908   -2.0375    0.5826 
 O                     1.9249    1.0001    0.3707 
 C                    -0.8002    1.7648    0.2194 
 N                    -2.1055    2.1358    0.2462 
 H                    -4.5499    2.4746    0.215 
 H                    -5.0083    0.7998   -0.1487 
 H                    -0.5426   -2.3949    0.2482 
 H                    -2.1258   -2.5336   -0.5008 
 H                    -0.7304   -2.1204   -1.493 
 H                     3.4504   -0.5493   -1.0013 
 H                     2.8873   -2.1151   -1.5353 
 H                     3.262    -1.3241    1.4069 
 H                     2.6653   -2.8883    0.8525 
 H                     4.3171   -2.3908    0.4867 
 H                    -0.0875    2.5572    0.4125 
 

 GradGradGradGradGradGradGradGradGradGradGradGradGradGradGradGradGradGrad
 Berny optimization.
 Initialization pass.
                           ----------------------------
                           !    Initial Parameters    !
                           ! (Angstroms and Degrees)  !
 --------------------------                            --------------------------
 ! Name  Definition              Value          Derivative Info.                !
 --------------------------------------------------------------------------------
 ! R1    R(1,2)                  1.3742         calculate D2E/DX2 analytically  !
 ! R2    R(1,14)                 1.0051         calculate D2E/DX2 analytically  !
 ! R3    R(1,15)                 1.0048         calculate D2E/DX2 analytically  !
 ! R4    R(2,3)                  1.346          calculate D2E/DX2 analytically  !
 ! R5    R(2,13)                 1.3452         calculate D2E/DX2 analytically  !
 ! R6    R(3,4)                  1.3596         calculate D2E/DX2 analytically  !
 ! R7    R(4,5)                  1.5209         calculate D2E/DX2 analytically  !
 ! R8    R(4,6)                  1.415          calculate D2E/DX2 analytically  !
 ! R9    R(5,16)                 1.0894         calculate D2E/DX2 analytically  !
 ! R10   R(5,17)                 1.0907         calculate D2E/DX2 analytically  !
 ! R11   R(5,18)                 1.0894         calculate D2E/DX2 analytically  !
 ! R12   R(6,7)                  1.498          calculate D2E/DX2 analytically  !
 ! R13   R(6,12)                 1.4045         calculate D2E/DX2 analytically  !
 ! R14   R(7,8)                  1.3522         calculate D2E/DX2 analytically  !
 ! R15   R(7,11)                 1.2329         calculate D2E/DX2 analytically  !
 ! R16   R(8,9)                  1.4241         calculate D2E/DX2 analytically  !
 ! R17   R(9,10)                 1.5351         calculate D2E/DX2 analytically  !
 ! R18   R(9,19)                 1.0923         calculate D2E/DX2 analytically  !
 ! R19   R(9,20)                 1.0904         calculate D2E/DX2 analytically  !
 ! R20   R(10,21)                1.0905         calculate D2E/DX2 analytically  !
 ! R21   R(10,22)                1.0899         calculate D2E/DX2 analytically  !
 ! R22   R(10,23)                1.0896         calculate D2E/DX2 analytically  !
 ! R23   R(12,13)                1.3573         calculate D2E/DX2 analytically  !
 ! R24   R(12,24)                1.0831         calculate D2E/DX2 analytically  !
 ! A1    A(2,1,14)             117.95           calculate D2E/DX2 analytically  !
 ! A2    A(2,1,15)             118.112          calculate D2E/DX2 analytically  !
 ! A3    A(14,1,15)            123.9381         calculate D2E/DX2 analytically  !
 ! A4    A(1,2,3)              116.6567         calculate D2E/DX2 analytically  !
 ! A5    A(1,2,13)             116.6061         calculate D2E/DX2 analytically  !
 ! A6    A(3,2,13)             126.737          calculate D2E/DX2 analytically  !
 ! A7    A(2,3,4)              116.54           calculate D2E/DX2 analytically  !
 ! A8    A(3,4,5)              113.0894         calculate D2E/DX2 analytically  !
 ! A9    A(3,4,6)              122.2047         calculate D2E/DX2 analytically  !
 ! A10   A(5,4,6)              124.6957         calculate D2E/DX2 analytically  !
 ! A11   A(4,5,16)             110.3892         calculate D2E/DX2 analytically  !
 ! A12   A(4,5,17)             112.2147         calculate D2E/DX2 analytically  !
 ! A13   A(4,5,18)             110.0417         calculate D2E/DX2 analytically  !
 ! A14   A(16,5,17)            107.3923         calculate D2E/DX2 analytically  !
 ! A15   A(16,5,18)            108.9013         calculate D2E/DX2 analytically  !
 ! A16   A(17,5,18)            107.7903         calculate D2E/DX2 analytically  !
 ! A17   A(4,6,7)              126.9181         calculate D2E/DX2 analytically  !
 ! A18   A(4,6,12)             115.356          calculate D2E/DX2 analytically  !
 ! A19   A(7,6,12)             117.7206         calculate D2E/DX2 analytically  !
 ! A20   A(6,7,8)              114.1958         calculate D2E/DX2 analytically  !
 ! A21   A(6,7,11)             122.707          calculate D2E/DX2 analytically  !
 ! A22   A(8,7,11)             122.978          calculate D2E/DX2 analytically  !
 ! A23   A(7,8,9)              121.5381         calculate D2E/DX2 analytically  !
 ! A24   A(8,9,10)             110.9335         calculate D2E/DX2 analytically  !
 ! A25   A(8,9,19)             111.1122         calculate D2E/DX2 analytically  !
 ! A26   A(8,9,20)             107.9506         calculate D2E/DX2 analytically  !
 ! A27   A(10,9,19)            110.9522         calculate D2E/DX2 analytically  !
 ! A28   A(10,9,20)            109.3416         calculate D2E/DX2 analytically  !
 ! A29   A(19,9,20)            106.387          calculate D2E/DX2 analytically  !
 ! A30   A(9,10,21)            111.0656         calculate D2E/DX2 analytically  !
 ! A31   A(9,10,22)            111.1291         calculate D2E/DX2 analytically  !
 ! A32   A(9,10,23)            110.8627         calculate D2E/DX2 analytically  !
 ! A33   A(21,10,22)           107.958          calculate D2E/DX2 analytically  !
 ! A34   A(21,10,23)           107.6685         calculate D2E/DX2 analytically  !
 ! A35   A(22,10,23)           108.0126         calculate D2E/DX2 analytically  !
 ! A36   A(6,12,13)            123.402          calculate D2E/DX2 analytically  !
 ! A37   A(6,12,24)            121.1726         calculate D2E/DX2 analytically  !
 ! A38   A(13,12,24)           115.4245         calculate D2E/DX2 analytically  !
 ! A39   A(2,13,12)            115.7506         calculate D2E/DX2 analytically  !
 ! D1    D(14,1,2,3)           179.879          calculate D2E/DX2 analytically  !
 ! D2    D(14,1,2,13)            0.0247         calculate D2E/DX2 analytically  !
 ! D3    D(15,1,2,3)            -0.0656         calculate D2E/DX2 analytically  !
 ! D4    D(15,1,2,13)         -179.92           calculate D2E/DX2 analytically  !
 ! D5    D(1,2,3,4)            179.9583         calculate D2E/DX2 analytically  !
 ! D6    D(13,2,3,4)            -0.2042         calculate D2E/DX2 analytically  !
 ! D7    D(1,2,13,12)         -179.8196         calculate D2E/DX2 analytically  !
 ! D8    D(3,2,13,12)            0.3428         calculate D2E/DX2 analytically  !
 ! D9    D(2,3,4,5)            178.3053         calculate D2E/DX2 analytically  !
 ! D10   D(2,3,4,6)             -0.5847         calculate D2E/DX2 analytically  !
 ! D11   D(3,4,5,16)          -127.8585         calculate D2E/DX2 analytically  !
 ! D12   D(3,4,5,17)            -8.1062         calculate D2E/DX2 analytically  !
 ! D13   D(3,4,5,18)           111.9126         calculate D2E/DX2 analytically  !
 ! D14   D(6,4,5,16)            50.9992         calculate D2E/DX2 analytically  !
 ! D15   D(6,4,5,17)           170.7515         calculate D2E/DX2 analytically  !
 ! D16   D(6,4,5,18)           -69.2297         calculate D2E/DX2 analytically  !
 ! D17   D(3,4,6,7)           -179.7322         calculate D2E/DX2 analytically  !
 ! D18   D(3,4,6,12)             1.1347         calculate D2E/DX2 analytically  !
 ! D19   D(5,4,6,7)              1.5097         calculate D2E/DX2 analytically  !
 ! D20   D(5,4,6,12)          -177.6234         calculate D2E/DX2 analytically  !
 ! D21   D(4,6,7,8)             16.3912         calculate D2E/DX2 analytically  !
 ! D22   D(4,6,7,11)          -167.4718         calculate D2E/DX2 analytically  !
 ! D23   D(12,6,7,8)          -164.4938         calculate D2E/DX2 analytically  !
 ! D24   D(12,6,7,11)           11.6433         calculate D2E/DX2 analytically  !
 ! D25   D(4,6,12,13)           -0.9974         calculate D2E/DX2 analytically  !
 ! D26   D(4,6,12,24)          179.3443         calculate D2E/DX2 analytically  !
 ! D27   D(7,6,12,13)          179.7855         calculate D2E/DX2 analytically  !
 ! D28   D(7,6,12,24)            0.1272         calculate D2E/DX2 analytically  !
 ! D29   D(6,7,8,9)            179.2219         calculate D2E/DX2 analytically  !
 ! D30   D(11,7,8,9)             3.0967         calculate D2E/DX2 analytically  !
 ! D31   D(7,8,9,10)            82.6215         calculate D2E/DX2 analytically  !
 ! D32   D(7,8,9,19)           -41.3036         calculate D2E/DX2 analytically  !
 ! D33   D(7,8,9,20)          -157.5981         calculate D2E/DX2 analytically  !
 ! D34   D(8,9,10,21)          -63.2094         calculate D2E/DX2 analytically  !
 ! D35   D(8,9,10,22)           56.9937         calculate D2E/DX2 analytically  !
 ! D36   D(8,9,10,23)          177.1298         calculate D2E/DX2 analytically  !
 ! D37   D(19,9,10,21)          60.807          calculate D2E/DX2 analytically  !
 ! D38   D(19,9,10,22)        -178.9899         calculate D2E/DX2 analytically  !
 ! D39   D(19,9,10,23)         -58.8537         calculate D2E/DX2 analytically  !
 ! D40   D(20,9,10,21)         177.8445         calculate D2E/DX2 analytically  !
 ! D41   D(20,9,10,22)         -61.9525         calculate D2E/DX2 analytically  !
 ! D42   D(20,9,10,23)          58.1837         calculate D2E/DX2 analytically  !
 ! D43   D(6,12,13,2)            0.3097         calculate D2E/DX2 analytically  !
 ! D44   D(24,12,13,2)         179.9859         calculate D2E/DX2 analytically  !
 --------------------------------------------------------------------------------
 Trust Radius=3.00D-01 FncErr=1.00D-07 GrdErr=1.00D-06 EigMax=2.50D+02 EigMin=1.00D-04
 Number of steps in this run=    117 maximum allowed number of steps=    144.
 GradGradGradGradGradGradGradGradGradGradGradGradGradGradGradGradGradGrad

                          Input orientation:                          
 ---------------------------------------------------------------------
 Center     Atomic      Atomic             Coordinates (Angstroms)
 Number     Number       Type             X           Y           Z
 ---------------------------------------------------------------------
      1          7           0       -4.323300    1.513800    0.026000
      2          6           0       -2.996400    1.156700    0.006900
      3          7           0       -2.722700   -0.136600   -0.246200
      4          6           0       -1.409200   -0.487100   -0.265400
      5          6           0       -1.191500   -1.971100   -0.517400
      6          6           0       -0.374600    0.452700   -0.044800
      7          6           0        1.099400    0.185500   -0.047600
      8          8           0        1.448900   -0.987500   -0.622300
      9          6           0        2.811000   -1.390400   -0.724200
     10          6           0        3.290800   -2.037500    0.582600
     11          8           0        1.924900    1.000100    0.370700
     12          6           0       -0.800200    1.764800    0.219400
     13          7           0       -2.105500    2.135800    0.246200
     14          1           0       -4.549900    2.474600    0.215000
     15          1           0       -5.008300    0.799800   -0.148700
     16          1           0       -0.542600   -2.394900    0.248200
     17          1           0       -2.125800   -2.533600   -0.500800
     18          1           0       -0.730400   -2.120400   -1.493000
     19          1           0        3.450400   -0.549300   -1.001300
     20          1           0        2.887300   -2.115100   -1.535300
     21          1           0        3.262000   -1.324100    1.406900
     22          1           0        2.665300   -2.888300    0.852500
     23          1           0        4.317100   -2.390800    0.486700
     24          1           0       -0.087500    2.557200    0.412500
 ---------------------------------------------------------------------
                    Distance matrix (angstroms):
                    1          2          3          4          5
     1  N    0.000000
     2  C    1.374245   0.000000
     3  N    2.315131   1.345955   0.000000
     4  C    3.546899   2.301180   1.359596   0.000000
     5  C    4.716777   3.649067   2.404894   1.520905   0.000000
     6  C    4.089398   2.715166   2.429282   1.415021   2.601054
     7  C    5.583500   4.209724   3.840786   2.606320   3.181172
     8  O    6.324167   4.975357   4.274076   2.923442   2.819607
     9  C    7.739213   6.383425   5.694061   4.340108   4.049689
    10  C    8.419979   7.075537   6.361015   5.021239   4.615780
    11  O    6.278751   4.937213   4.824193   3.705754   4.396442
    12  C    3.537321   2.288719   2.743740   2.382638   3.827916
    13  N    2.313873   1.345215   2.405659   2.761553   4.276109
    14  H    1.005090   2.047811   3.220207   4.343552   5.619565
    15  H    1.004759   2.049227   2.471906   3.824036   4.730940
    16  H    5.442518   4.323566   3.177607   2.157425   1.089413
    17  H    4.635512   3.825443   2.483288   2.181076   1.090687
    18  H    5.331388   4.257210   3.075586   2.153007   1.089357
    19  H    8.108153   6.744489   6.232789   4.915397   4.878823
    20  H    8.221881   6.906590   6.086735   4.766859   4.206360
    21  H    8.215676   6.876186   6.321355   5.031627   4.894405
    22  H    8.300730   7.009416   6.148946   4.859734   4.194376
    23  H    9.492874   8.142619   7.428145   6.081138   5.615072
    24  H    4.379505   3.253861   3.825536   3.387359   4.752792
                    6          7          8          9         10
     6  C    0.000000
     7  C    1.498025   0.000000
     8  O    2.394334   1.352168   0.000000
     9  C    3.742546   2.422978   1.424089   0.000000
    10  C    4.475476   3.184512   2.438622   1.535146   0.000000
    11  O    2.399997   1.232882   2.272263   2.774612   3.337304
    12  C    1.404473   2.484745   3.652679   4.887375   5.596935
    13  N    2.431773   3.763160   4.810723   6.127621   6.830055
    14  H    4.646365   6.101109   6.976590   8.366790   9.053770
    15  H    4.647844   6.139347   6.716708   8.140616   8.801144
    16  H    2.867560   3.072804   2.589328   3.633348   3.864520
    17  H    3.491794   4.242736   3.896623   5.072357   5.546118
    18  H    2.974007   3.279409   2.605941   3.696683   4.526040
    19  H    4.068110   2.641340   2.083666   1.092276   2.179209
    20  H    4.410803   3.271483   2.043048   1.090365   2.157391
    21  H    4.299920   3.011860   2.741949   2.179308   1.090523
    22  H    4.605260   3.565175   2.695868   2.179660   1.089934
    23  H    5.511809   4.156488   3.380193   2.176101   1.089637
    24  H    2.172664   2.691725   3.999529   5.027617   5.705534
                   11         12         13         14         15
    11  O    0.000000
    12  C    2.834401   0.000000
    13  N    4.189205   1.357265   0.000000
    14  H    6.642396   3.816292   2.467965   0.000000
    15  H    6.955513   4.332993   3.219797   1.774081   0.000000
    16  H    4.198760   4.167768   4.792693   6.306472   5.505099
    17  H    5.445615   4.555452   4.728818   5.609875   4.420898
    18  H    4.501279   4.246406   4.799058   6.214489   5.351181
    19  H    2.571026   4.991269   6.295557   8.638759   8.607938
    20  H    3.776708   5.632961   6.794994   8.912959   8.529936
    21  H    2.874622   5.239554   6.490623   8.767926   8.679211
    22  H    3.987478   5.836253   6.954834   9.012559   8.572550
    23  H    4.151419   6.597516   7.861154  10.117788   9.876576
    24  H    2.544811   1.083110   2.068226   4.467532   5.255252
                   16         17         18         19         20
    16  H    0.000000
    17  H    1.756918   0.000000
    18  H    1.772681   1.761345   0.000000
    19  H    4.572914   5.939861   4.493241   0.000000
    20  H    3.876000   5.135806   3.617951   1.747560   0.000000
    21  H    4.118759   5.842140   4.998277   2.536777   3.069629
    22  H    3.301400   4.991179   4.197835   3.086078   2.519665
    23  H    4.865551   6.519702   5.428590   2.521197   2.491751
    24  H    4.975681   5.559229   5.091581   4.915883   5.871435
                   21         22         23         24
    21  H    0.000000
    22  H    1.763557   0.000000
    23  H    1.760072   1.763451   0.000000
    24  H    5.222305   6.117596   6.624856   0.000000
 Stoichiometry    C8H11N3O2
 Framework group  C1[X(C8H11N3O2)]
 Deg. of freedom    66
 Full point group                 C1      NOp   1
 Largest Abelian subgroup         C1      NOp   1
 Largest concise Abelian subgroup C1      NOp   1
                         Standard orientation:                         
 ---------------------------------------------------------------------
 Center     Atomic      Atomic             Coordinates (Angstroms)
 Number     Number       Type             X           Y           Z
 ---------------------------------------------------------------------
      1          7           0        4.274032    0.159058    0.094434
      2          6           0        2.913084   -0.026626    0.050948
      3          7           0        2.152432    1.083631    0.032681
      4          6           0        0.806397    0.897188   -0.011228
      5          6           0        0.022663    2.200402    0.012205
      6          6           0        0.224481   -0.392090   -0.048945
      7          6           0       -1.236473   -0.718656   -0.104130
      8          8           0       -2.023230    0.319935   -0.465656
      9          6           0       -3.435374    0.178850   -0.583857
     10          6           0       -4.116166    0.309128    0.785896
     11          8           0       -1.672860   -1.855183    0.090473
     12          6           0        1.132385   -1.463044   -0.012728
     13          7           0        2.478979   -1.299761    0.034100
     14          1           0        4.860544   -0.656998    0.110594
     15          1           0        4.623097    1.101120    0.109021
     16          1           0       -0.732124    2.175312    0.797372
     17          1           0        0.662459    3.062993    0.202458
     18          1           0       -0.470469    2.356765   -0.946477
     19          1           0       -3.697562   -0.767617   -1.061897
     20          1           0       -3.797828    0.967561   -1.243749
     21          1           0       -3.801703   -0.490405    1.457536
     22          1           0       -3.870641    1.260445    1.257776
     23          1           0       -5.199836    0.251487    0.687684
     24          1           0        0.788706   -2.490091   -0.026335
 ---------------------------------------------------------------------
 Rotational constants (GHZ):           1.9819265           0.4350446           0.3692165
 Standard basis: 6-31G(d,p) (6D, 7F)
 There are   250 symmetry adapted cartesian basis functions of A   symmetry.
 There are   250 symmetry adapted basis functions of A   symmetry.
   250 basis functions,   441 primitive gaussians,   250 cartesian basis functions
    48 alpha electrons       48 beta electrons
       nuclear repulsion energy       784.7568785528 Hartrees.
 NAtoms=   24 NActive=   24 NUniq=   24 SFac= 1.00D+00 NAtFMM=   60 NAOKFM=F Big=F
 Integral buffers will be    131072 words long.
 Raffenetti 2 integral format.
 Two-electron integral symmetry is turned on.
 Nuclear repulsion after empirical dispersion term =      784.7153913217 Hartrees.
 One-electron integrals computed using PRISM.
 NBasis=   250 RedAO= T EigKep=  9.82D-04  NBF=   250
 NBsUse=   250 1.00D-06 EigRej= -1.00D+00 NBFU=   250
 ExpMin= 1.61D-01 ExpMax= 5.48D+03 ExpMxC= 8.25D+02 IAcc=3 IRadAn=         5 AccDes= 0.00D+00
 Harris functional with IExCor=  402 and IRadAn=       5 diagonalized for initial guess.
 HarFok:  IExCor=  402 AccDes= 0.00D+00 IRadAn=         5 IDoV= 1 UseB2=F ITyADJ=14
 ICtDFT=  3500011 ScaDFX=  1.000000  1.000000  1.000000  1.000000
 FoFCou: FMM=F IPFlag=           0 FMFlag=      100000 FMFlg1=           0
         NFxFlg=           0 DoJE=T BraDBF=F KetDBF=T FulRan=T
         wScrn=  0.000000 ICntrl=       500 IOpCl=  0 I1Cent=   200000004 NGrid=           0
         NMat0=    1 NMatS0=      1 NMatT0=    0 NMatD0=    1 NMtDS0=    0 NMtDT0=    0
 Petite list used in FoFCou.
 Requested convergence on RMS density matrix=1.00D-08 within 128 cycles.
 Requested convergence on MAX density matrix=1.00D-06.
 Requested convergence on             energy=1.00D-06.
 No special actions if energy rises.
 Integral accuracy reduced to 1.0D-05 until final iterations.
 Initial convergence to 1.0D-05 achieved.  Increase integral accuracy.
 SCF Done:  E(RB3LYP) =  -626.268267551     A.U. after   15 cycles
            NFock= 15  Conv=0.33D-08     -V/T= 2.0098
 DoSCS=F DFT=T ScalE2(SS,OS)=  1.000000  1.000000
 Range of M.O.s used for correlation:     1   250
 NBasis=   250 NAE=    48 NBE=    48 NFC=     0 NFV=     0
 NROrb=    250 NOA=    48 NOB=    48 NVA=   202 NVB=   202
 Symmetrizing basis deriv contribution to polar:
 IMax=3 JMax=2 DiffMx= 0.00D+00
 G2DrvN: will do    25 centers at a time, making    1 passes.
 Calling FoFCou, ICntrl=  3107 FMM=F I1Cent=   0 AccDes= 0.00D+00.
 End of G2Drv F.D. properties file   721 does not exist.
 End of G2Drv F.D. properties file   722 does not exist.
 End of G2Drv F.D. properties file   788 does not exist.
          IDoAtm=111111111111111111111111
          Differentiating once with respect to nuclear coordinates.
 Keep R1 ints in memory in canonical form, NReq=509470435.
          There are    75 degrees of freedom in the 1st order CPHF.  IDoFFX=6 NUNeed=     0.
     69 vectors produced by pass  0 Test12= 1.29D-14 1.33D-09 XBig12= 2.52D-01 2.35D-01.
 AX will form    69 AO Fock derivatives at one time.
     69 vectors produced by pass  1 Test12= 1.29D-14 1.33D-09 XBig12= 3.71D-02 7.38D-02.
     69 vectors produced by pass  2 Test12= 1.29D-14 1.33D-09 XBig12= 4.12D-04 2.97D-03.
     69 vectors produced by pass  3 Test12= 1.29D-14 1.33D-09 XBig12= 1.75D-06 1.44D-04.
     69 vectors produced by pass  4 Test12= 1.29D-14 1.33D-09 XBig12= 4.34D-09 6.29D-06.
     51 vectors produced by pass  5 Test12= 1.29D-14 1.33D-09 XBig12= 4.19D-12 1.72D-07.
     15 vectors produced by pass  6 Test12= 1.29D-14 1.33D-09 XBig12= 3.71D-15 5.76D-09.
 InvSVY:  IOpt=1 It=  1 EMax= 5.00D-16
 Solved reduced A of dimension   411 with    75 vectors.
 End of Minotr F.D. properties file   721 does not exist.
 End of Minotr F.D. properties file   722 does not exist.
 End of Minotr F.D. properties file   788 does not exist.

 **********************************************************************

            Population analysis using the SCF Density.

 **********************************************************************

 Orbital symmetries:
       Occupied  (A) (A) (A) (A) (A) (A) (A) (A) (A) (A) (A) (A)
                 (A) (A) (A) (A) (A) (A) (A) (A) (A) (A) (A) (A)
                 (A) (A) (A) (A) (A) (A) (A) (A) (A) (A) (A) (A)
                 (A) (A) (A) (A) (A) (A) (A) (A) (A) (A) (A) (A)
       Virtual   (A) (A) (A) (A) (A) (A) (A) (A) (A) (A) (A) (A)
                 (A) (A) (A) (A) (A) (A) (A) (A) (A) (A) (A) (A)
                 (A) (A) (A) (A) (A) (A) (A) (A) (A) (A) (A) (A)
                 (A) (A) (A) (A) (A) (A) (A) (A) (A) (A) (A) (A)
                 (A) (A) (A) (A) (A) (A) (A) (A) (A) (A) (A) (A)
                 (A) (A) (A) (A) (A) (A) (A) (A) (A) (A) (A) (A)
                 (A) (A) (A) (A) (A) (A) (A) (A) (A) (A) (A) (A)
                 (A) (A) (A) (A) (A) (A) (A) (A) (A) (A) (A) (A)
                 (A) (A) (A) (A) (A) (A) (A) (A) (A) (A) (A) (A)
                 (A) (A) (A) (A) (A) (A) (A) (A) (A) (A) (A) (A)
                 (A) (A) (A) (A) (A) (A) (A) (A) (A) (A) (A) (A)
                 (A) (A) (A) (A) (A) (A) (A) (A) (A) (A) (A) (A)
                 (A) (A) (A) (A) (A) (A) (A) (A) (A) (A) (A) (A)
                 (A) (A) (A) (A) (A) (A) (A) (A) (A) (A) (A) (A)
                 (A) (A) (A) (A) (A) (A) (A) (A) (A) (A) (A) (A)
                 (A) (A) (A) (A) (A) (A) (A) (A) (A) (A) (A) (A)
                 (A) (A) (A) (A) (A) (A) (A) (A) (A) (A)
 The electronic state is 1-A.
 Alpha  occ. eigenvalues --  -19.19249 -19.12993 -14.35668 -14.33060 -14.33020
 Alpha  occ. eigenvalues --  -10.32157 -10.29322 -10.25554 -10.24813 -10.24158
 Alpha  occ. eigenvalues --  -10.20707 -10.18359 -10.18282  -1.09832  -1.00518
 Alpha  occ. eigenvalues --   -0.99540  -0.90235  -0.88280  -0.79987  -0.76581
 Alpha  occ. eigenvalues --   -0.72764  -0.67759  -0.64102  -0.62799  -0.56785
 Alpha  occ. eigenvalues --   -0.55226  -0.52468  -0.51672  -0.49397  -0.47673
 Alpha  occ. eigenvalues --   -0.45655  -0.44611  -0.44126  -0.42396  -0.40960
 Alpha  occ. eigenvalues --   -0.40455  -0.39114  -0.38701  -0.38355  -0.36907
 Alpha  occ. eigenvalues --   -0.33656  -0.32189  -0.31730  -0.29945  -0.29502
 Alpha  occ. eigenvalues --   -0.26936  -0.24834  -0.23300
 Alpha virt. eigenvalues --   -0.03736  -0.03464   0.05207   0.08727   0.09753
 Alpha virt. eigenvalues --    0.12240   0.13225   0.13594   0.13985   0.14762
 Alpha virt. eigenvalues --    0.15392   0.15534   0.16828   0.17734   0.18770
 Alpha virt. eigenvalues --    0.20089   0.22004   0.22944   0.24271   0.25169
 Alpha virt. eigenvalues --    0.26944   0.30014   0.32857   0.34447   0.36349
 Alpha virt. eigenvalues --    0.40547   0.42706   0.47142   0.49100   0.50903
 Alpha virt. eigenvalues --    0.52198   0.53208   0.54321   0.54754   0.55464
 Alpha virt. eigenvalues --    0.56302   0.57509   0.59298   0.60082   0.61179
 Alpha virt. eigenvalues --    0.61809   0.63607   0.64358   0.64907   0.65017
 Alpha virt. eigenvalues --    0.66523   0.67289   0.68458   0.74207   0.75012
 Alpha virt. eigenvalues --    0.76504   0.78285   0.78881   0.79470   0.79797
 Alpha virt. eigenvalues --    0.82099   0.82743   0.84532   0.85359   0.86194
 Alpha virt. eigenvalues --    0.87339   0.88047   0.88798   0.89791   0.90835
 Alpha virt. eigenvalues --    0.93157   0.93799   0.95463   0.96628   0.97273
 Alpha virt. eigenvalues --    0.98952   1.01761   1.03243   1.06689   1.09653
 Alpha virt. eigenvalues --    1.09795   1.10737   1.15618   1.17504   1.22322
 Alpha virt. eigenvalues --    1.23938   1.26463   1.28637   1.29723   1.31650
 Alpha virt. eigenvalues --    1.33289   1.34171   1.36986   1.38873   1.41028
 Alpha virt. eigenvalues --    1.43270   1.45841   1.46740   1.50075   1.52046
 Alpha virt. eigenvalues --    1.55721   1.56463   1.58390   1.64154   1.64626
 Alpha virt. eigenvalues --    1.65269   1.68728   1.70231   1.73984   1.76324
 Alpha virt. eigenvalues --    1.76938   1.78228   1.81000   1.83271   1.84911
 Alpha virt. eigenvalues --    1.86509   1.87469   1.89675   1.91728   1.94892
 Alpha virt. eigenvalues --    1.96885   1.98556   2.00852   2.02171   2.02330
 Alpha virt. eigenvalues --    2.03261   2.04785   2.05863   2.06316   2.06951
 Alpha virt. eigenvalues --    2.07660   2.08172   2.08862   2.12478   2.13433
 Alpha virt. eigenvalues --    2.16315   2.17694   2.18903   2.20106   2.21926
 Alpha virt. eigenvalues --    2.25559   2.28691   2.29117   2.30609   2.31646
 Alpha virt. eigenvalues --    2.34039   2.36743   2.40376   2.41262   2.41810
 Alpha virt. eigenvalues --    2.44315   2.48212   2.48914   2.52304   2.53003
 Alpha virt. eigenvalues --    2.57269   2.57992   2.59949   2.60385   2.63074
 Alpha virt. eigenvalues --    2.63586   2.64954   2.69094   2.70645   2.72157
 Alpha virt. eigenvalues --    2.73841   2.74900   2.77407   2.77702   2.81108
 Alpha virt. eigenvalues --    2.83723   2.84356   2.87422   2.87776   2.91022
 Alpha virt. eigenvalues --    2.93116   2.94234   2.97960   3.00510   3.07410
 Alpha virt. eigenvalues --    3.16790   3.19025   3.21525   3.23559   3.27154
 Alpha virt. eigenvalues --    3.31147   3.39362   3.43256   3.44168   3.46582
 Alpha virt. eigenvalues --    3.47903   3.53441   3.56442   3.60528   4.00625
 Alpha virt. eigenvalues --    4.02814   4.06918   4.14450   4.18379   4.26954
 Alpha virt. eigenvalues --    4.33536   4.37896   4.40647   4.47048   4.54774
 Alpha virt. eigenvalues --    4.62854   4.70944
          Condensed to atoms (all electrons):
               1          2          3          4          5          6
     1  N    6.829313   0.318837  -0.099944   0.001651  -0.000223   0.001838
     2  C    0.318837   4.340499   0.432522  -0.054484   0.005391  -0.026218
     3  N   -0.099944   0.432522   6.923950   0.467650  -0.085395  -0.024570
     4  C    0.001651  -0.054484   0.467650   4.718009   0.383091   0.409068
     5  C   -0.000223   0.005391  -0.085395   0.383091   5.032165  -0.080948
     6  C    0.001838  -0.026218  -0.024570   0.409068  -0.080948   5.220676
     7  C    0.000012   0.001276   0.004036  -0.026989  -0.008923   0.311190
     8  O   -0.000000  -0.000009  -0.000002  -0.004515  -0.004028  -0.074146
     9  C    0.000000   0.000000   0.000003  -0.000174   0.000060   0.006576
    10  C   -0.000000  -0.000000  -0.000000   0.000006  -0.000052  -0.000537
    11  O   -0.000000  -0.000010  -0.000029   0.002416   0.000042  -0.083174
    12  C    0.001884  -0.062856  -0.039626  -0.046146   0.005776   0.432445
    13  N   -0.101866   0.440975  -0.078325  -0.036730  -0.000160  -0.026046
    14  H    0.336085  -0.015884   0.005022  -0.000097   0.000006  -0.000019
    15  H    0.337686  -0.017820   0.007110   0.000297  -0.000059   0.000015
    16  H    0.000002  -0.000203   0.002350  -0.025334   0.370692  -0.001179
    17  H   -0.000040   0.000627   0.004627  -0.022498   0.359693   0.004823
    18  H    0.000003  -0.000172   0.000982  -0.022774   0.370441  -0.000356
    19  H    0.000000   0.000000   0.000000  -0.000021   0.000011   0.000038
    20  H    0.000000  -0.000000  -0.000000   0.000005  -0.000003  -0.000143
    21  H   -0.000000   0.000000   0.000000  -0.000002  -0.000006  -0.000002
    22  H    0.000000   0.000000   0.000000  -0.000010  -0.000029  -0.000028
    23  H   -0.000000   0.000000   0.000000  -0.000000   0.000001   0.000005
    24  H   -0.000145   0.004140  -0.000256   0.004025  -0.000117  -0.058175
               7          8          9         10         11         12
     1  N    0.000012  -0.000000   0.000000  -0.000000  -0.000000   0.001884
     2  C    0.001276  -0.000009   0.000000  -0.000000  -0.000010  -0.062856
     3  N    0.004036  -0.000002   0.000003  -0.000000  -0.000029  -0.039626
     4  C   -0.026989  -0.004515  -0.000174   0.000006   0.002416  -0.046146
     5  C   -0.008923  -0.004028   0.000060  -0.000052   0.000042   0.005776
     6  C    0.311190  -0.074146   0.006576  -0.000537  -0.083174   0.432445
     7  C    4.424357   0.235287  -0.012795  -0.005116   0.531647  -0.040450
     8  O    0.235287   8.295660   0.207071  -0.040186  -0.082641   0.003108
     9  C   -0.012795   0.207071   4.697700   0.369489   0.003355  -0.000166
    10  C   -0.005116  -0.040186   0.369489   4.969517  -0.003276   0.000010
    11  O    0.531647  -0.082641   0.003355  -0.003276   8.101839   0.003227
    12  C   -0.040450   0.003108  -0.000166   0.000010   0.003227   4.806678
    13  N    0.004527  -0.000021   0.000000   0.000000   0.000363   0.440844
    14  H   -0.000001   0.000000  -0.000000   0.000000   0.000000   0.000236
    15  H   -0.000001   0.000000  -0.000000   0.000000   0.000000  -0.000157
    16  H    0.001347   0.002765  -0.000003  -0.000016  -0.000021   0.000029
    17  H    0.000093   0.000525  -0.000015   0.000001   0.000001  -0.000141
    18  H    0.000716   0.002700   0.000237   0.000024   0.000010  -0.000112
    19  H   -0.005432  -0.030787   0.377741  -0.040038   0.012119   0.000013
    20  H    0.003710  -0.033685   0.392769  -0.046518   0.000272   0.000001
    21  H    0.003461  -0.004016  -0.028607   0.388083   0.004679  -0.000005
    22  H    0.000192   0.000366  -0.033167   0.383642   0.000090  -0.000000
    23  H    0.000039   0.003065  -0.025046   0.366848   0.000008  -0.000000
    24  H   -0.003296   0.000206  -0.000007   0.000000   0.012465   0.385539
              13         14         15         16         17         18
     1  N   -0.101866   0.336085   0.337686   0.000002  -0.000040   0.000003
     2  C    0.440975  -0.015884  -0.017820  -0.000203   0.000627  -0.000172
     3  N   -0.078325   0.005022   0.007110   0.002350   0.004627   0.000982
     4  C   -0.036730  -0.000097   0.000297  -0.025334  -0.022498  -0.022774
     5  C   -0.000160   0.000006  -0.000059   0.370692   0.359693   0.370441
     6  C   -0.026046  -0.000019   0.000015  -0.001179   0.004823  -0.000356
     7  C    0.004527  -0.000001  -0.000001   0.001347   0.000093   0.000716
     8  O   -0.000021   0.000000   0.000000   0.002765   0.000525   0.002700
     9  C    0.000000  -0.000000  -0.000000  -0.000003  -0.000015   0.000237
    10  C    0.000000   0.000000   0.000000  -0.000016   0.000001   0.000024
    11  O    0.000363   0.000000   0.000000  -0.000021   0.000001   0.000010
    12  C    0.440844   0.000236  -0.000157   0.000029  -0.000141  -0.000112
    13  N    6.879787   0.007139   0.005116   0.000020   0.000044   0.000014
    14  H    0.007139   0.404763  -0.022154  -0.000000   0.000000  -0.000000
    15  H    0.005116  -0.022154   0.406536   0.000001   0.000034   0.000001
    16  H    0.000020  -0.000000   0.000001   0.579264  -0.029058  -0.026007
    17  H    0.000044   0.000000   0.000034  -0.029058   0.584495  -0.026988
    18  H    0.000014  -0.000000   0.000001  -0.026007  -0.026988   0.565200
    19  H    0.000000  -0.000000  -0.000000   0.000023   0.000001  -0.000001
    20  H   -0.000000   0.000000   0.000000   0.000017  -0.000004  -0.000001
    21  H   -0.000000  -0.000000  -0.000000  -0.000001  -0.000000   0.000000
    22  H    0.000000  -0.000000   0.000000   0.000663   0.000003  -0.000002
    23  H    0.000000  -0.000000  -0.000000   0.000003  -0.000000  -0.000001
    24  H   -0.045274  -0.000028   0.000005   0.000000   0.000002   0.000001
              19         20         21         22         23         24
     1  N    0.000000   0.000000  -0.000000   0.000000  -0.000000  -0.000145
     2  C    0.000000  -0.000000   0.000000   0.000000   0.000000   0.004140
     3  N    0.000000  -0.000000   0.000000   0.000000   0.000000  -0.000256
     4  C   -0.000021   0.000005  -0.000002  -0.000010  -0.000000   0.004025
     5  C    0.000011  -0.000003  -0.000006  -0.000029   0.000001  -0.000117
     6  C    0.000038  -0.000143  -0.000002  -0.000028   0.000005  -0.058175
     7  C   -0.005432   0.003710   0.003461   0.000192   0.000039  -0.003296
     8  O   -0.030787  -0.033685  -0.004016   0.000366   0.003065   0.000206
     9  C    0.377741   0.392769  -0.028607  -0.033167  -0.025046  -0.000007
    10  C   -0.040038  -0.046518   0.388083   0.383642   0.366848   0.000000
    11  O    0.012119   0.000272   0.004679   0.000090   0.000008   0.012465
    12  C    0.000013   0.000001  -0.000005  -0.000000  -0.000000   0.385539
    13  N    0.000000  -0.000000  -0.000000   0.000000   0.000000  -0.045274
    14  H   -0.000000   0.000000  -0.000000  -0.000000  -0.000000  -0.000028
    15  H   -0.000000   0.000000  -0.000000   0.000000  -0.000000   0.000005
    16  H    0.000023   0.000017  -0.000001   0.000663   0.000003   0.000000
    17  H    0.000001  -0.000004  -0.000000   0.000003  -0.000000   0.000002
    18  H   -0.000001  -0.000001   0.000000  -0.000002  -0.000001   0.000001
    19  H    0.602224  -0.043011  -0.005739   0.005085   0.000372  -0.000007
    20  H   -0.043011   0.616025   0.004835  -0.005993  -0.000358   0.000000
    21  H   -0.005739   0.004835   0.558667  -0.032301  -0.026978  -0.000001
    22  H    0.005085  -0.005993  -0.032301   0.594358  -0.028623  -0.000000
    23  H    0.000372  -0.000358  -0.026978  -0.028623   0.600752  -0.000000
    24  H   -0.000007   0.000000  -0.000001  -0.000000  -0.000000   0.563595
 Mulliken charges:
               1
     1  N   -0.625094
     2  C    0.633390
     3  N   -0.520104
     4  C    0.253555
     5  C   -0.347428
     6  C   -0.011134
     7  C    0.581113
     8  O   -0.476716
     9  C    0.044977
    10  C   -0.341883
    11  O   -0.503382
    12  C    0.109871
    13  N   -0.490407
    14  H    0.284933
    15  H    0.283389
    16  H    0.124645
    17  H    0.123775
    18  H    0.136084
    19  H    0.127408
    20  H    0.112083
    21  H    0.137931
    22  H    0.115754
    23  H    0.109915
    24  H    0.137326
 Sum of Mulliken charges =  -0.00000
 Mulliken charges with hydrogens summed into heavy atoms:
               1
     1  N   -0.056772
     2  C    0.633390
     3  N   -0.520104
     4  C    0.253555
     5  C    0.037076
     6  C   -0.011134
     7  C    0.581113
     8  O   -0.476716
     9  C    0.284468
    10  C    0.021716
    11  O   -0.503382
    12  C    0.247197
    13  N   -0.490407
 APT charges:
               1
     1  N   -1.143108
     2  C    0.070487
     3  N   -0.221017
     4  C   -0.225552
     5  C   -0.991635
     6  C   -0.417329
     7  C   -0.179623
     8  O   -0.247135
     9  C   -0.901503
    10  C   -1.180781
    11  O    0.062901
    12  C   -0.389014
    13  N   -0.055135
    14  H    0.912416
    15  H    0.766704
    16  H    0.304011
    17  H    0.554523
    18  H    0.361436
    19  H    0.490044
    20  H    0.605052
    21  H    0.205644
    22  H    0.272140
    23  H    0.837266
    24  H    0.509207
 Sum of APT charges =  -0.00000
 APT charges with hydrogens summed into heavy atoms:
               1
     1  N    0.536012
     2  C    0.070487
     3  N   -0.221017
     4  C   -0.225552
     5  C    0.228336
     6  C   -0.417329
     7  C   -0.179623
     8  O   -0.247135
     9  C    0.193593
    10  C    0.134270
    11  O    0.062901
    12  C    0.120193
    13  N   -0.055135
 Electronic spatial extent (au):  <R**2>=           2947.3066
 Charge=             -0.0000 electrons
 Dipole moment (field-independent basis, Debye):
    X=              0.3238    Y=              2.4126    Z=             -0.3006  Tot=              2.4527
 Quadrupole moment (field-independent basis, Debye-Ang):
   XX=            -55.2501   YY=            -79.9159   ZZ=            -75.3778
   XY=             -2.9010   XZ=              1.6540   YZ=              0.7786
 Traceless Quadrupole moment (field-independent basis, Debye-Ang):
   XX=             14.9312   YY=             -9.7346   ZZ=             -5.1965
   XY=             -2.9010   XZ=              1.6540   YZ=              0.7786
 Octapole moment (field-independent basis, Debye-Ang**2):
  XXX=             51.3930  YYY=              9.5772  ZZZ=             -2.3345  XYY=              4.4866
  XXY=             16.7770  XXZ=             -3.1070  XZZ=             -8.7533  YZZ=             -0.9438
  YYZ=             -1.8915  XYZ=             -0.5253
 Hexadecapole moment (field-independent basis, Debye-Ang**3):
 XXXX=          -2257.0146 YYYY=           -681.9446 ZZZZ=           -144.7841 XXXY=             26.6797
 XXXZ=             43.5438 YYYX=             -2.5870 YYYZ=              1.8865 ZZZX=              6.3870
 ZZZY=             -2.6955 XXYY=           -625.8879 XXZZ=           -532.1853 YYZZ=           -135.4779
 XXYZ=              0.4510 YYXZ=              5.2444 ZZXY=              2.2828
 N-N= 7.847153913217D+02 E-N=-3.028589903309D+03  KE= 6.202066703235D+02
  Exact polarizability:       0.000       0.000       0.000       0.000       0.000       0.000
 Approx polarizability:     237.915       8.185     186.563       6.034      -4.206      88.924
 Calling FoFJK, ICntrl=    100127 FMM=F ISym2X=0 I1Cent= 0 IOpClX= 0 NMat=1 NMatS=1 NMatT=0.
 ***** Axes restored to original set *****
 -------------------------------------------------------------------
 Center     Atomic                   Forces (Hartrees/Bohr)
 Number     Number              X              Y              Z
 -------------------------------------------------------------------
      1        7           0.022392674   -0.005904020   -0.000442591
      2        6          -0.013292899    0.003401115   -0.000600359
      3        7           0.022163603   -0.001864106    0.001304340
      4        6          -0.024753825   -0.011991498   -0.002427360
      5        6           0.000893843    0.005217853    0.002526640
      6        6           0.003454143   -0.003462194    0.000516794
      7        6           0.016532766    0.021186686    0.003350914
      8        8          -0.018170373   -0.004386261   -0.004895182
      9        6           0.017515052   -0.000927919    0.012525362
     10        6          -0.002394643    0.005133225   -0.001766203
     11        8          -0.015300766   -0.016829020   -0.006765277
     12        6          -0.029254214    0.003726156   -0.000260201
     13        7           0.026740173   -0.002338831    0.000704820
     14        1          -0.003134239   -0.000737886   -0.000293724
     15        1          -0.002440129    0.002082260    0.000395755
     16        1           0.005164661   -0.000534899   -0.001479708
     17        1          -0.003891910    0.007001837    0.000511329
     18        1           0.004775085   -0.001057258   -0.000513764
     19        1          -0.002339985    0.004493531    0.003043168
     20        1          -0.008302522   -0.000810936   -0.002258622
     21        1          -0.000542711    0.002610298   -0.000074887
     22        1          -0.002346081   -0.002149810   -0.001038635
     23        1           0.002978513   -0.000760220   -0.002205146
     24        1           0.003553783   -0.001098104    0.000142536
 -------------------------------------------------------------------
 Cartesian Forces:  Max     0.029254214 RMS     0.009202742
 FormGI is forming the generalized inverse of G from B-inverse, IUseBI=4.

 GradGradGradGradGradGradGradGradGradGradGradGradGradGradGradGradGradGrad
 Berny optimization.
 Internal  Forces:  Max     0.029507858 RMS     0.006176822
 Search for a local minimum.
 Step number   1 out of a maximum of  117
 All quantities printed in internal units (Hartrees-Bohrs-Radians)
 Mixed Optimization -- RFO/linear search
 Second derivative matrix not updated -- analytic derivatives used.
 ITU=  0
     Eigenvalues ---   -0.00240   0.00128   0.00277   0.00332   0.00387
     Eigenvalues ---    0.01138   0.01426   0.01516   0.01819   0.02147
     Eigenvalues ---    0.02458   0.02589   0.03870   0.04484   0.04539
     Eigenvalues ---    0.04876   0.05269   0.05579   0.05686   0.05786
     Eigenvalues ---    0.06485   0.10095   0.10107   0.11048   0.12073
     Eigenvalues ---    0.12172   0.12240   0.12249   0.13085   0.14116
     Eigenvalues ---    0.14227   0.16599   0.18003   0.19009   0.19682
     Eigenvalues ---    0.19853   0.20761   0.22303   0.22626   0.23935
     Eigenvalues ---    0.25030   0.28045   0.28506   0.29724   0.33281
     Eigenvalues ---    0.33986   0.34240   0.34585   0.34825   0.34976
     Eigenvalues ---    0.35014   0.35481   0.35538   0.36492   0.37055
     Eigenvalues ---    0.37538   0.40866   0.42550   0.43614   0.48926
     Eigenvalues ---    0.49009   0.50138   0.51134   0.53222   0.56851
     Eigenvalues ---    0.77227
 RFO step:  Lambda=-1.30341384D-02 EMin=-2.39714113D-03
 Linear search not attempted -- first point.
 Iteration  1 RMS(Cart)=  0.09860490 RMS(Int)=  0.03486413
 Iteration  2 RMS(Cart)=  0.03357055 RMS(Int)=  0.01416086
 Iteration  3 RMS(Cart)=  0.00340934 RMS(Int)=  0.01365492
 Iteration  4 RMS(Cart)=  0.00024222 RMS(Int)=  0.01365377
 Iteration  5 RMS(Cart)=  0.00002626 RMS(Int)=  0.01365376
 Iteration  6 RMS(Cart)=  0.00000286 RMS(Int)=  0.01365376
 Iteration  7 RMS(Cart)=  0.00000031 RMS(Int)=  0.01365376
 Variable       Old X    -DE/DX   Delta X   Delta X   Delta X     New X
                                 (Linear)    (Quad)   (Total)
    R1        2.59695  -0.01743   0.00000  -0.04358  -0.04358   2.55337
    R2        1.89934  -0.00005   0.00000   0.00084   0.00084   1.90018
    R3        1.89872   0.00012   0.00000   0.00108   0.00108   1.89980
    R4        2.54349   0.00203   0.00000   0.00361   0.00359   2.54708
    R5        2.54209   0.00124   0.00000   0.01146   0.01144   2.55353
    R6        2.56926  -0.02248   0.00000  -0.04757  -0.04757   2.52170
    R7        2.87409  -0.00955   0.00000  -0.03202  -0.03202   2.84207
    R8        2.67400  -0.00353   0.00000   0.00053   0.00055   2.67456
    R9        2.05869   0.00224   0.00000   0.00450   0.00450   2.06319
   R10        2.06110  -0.00027   0.00000  -0.00097  -0.00097   2.06013
   R11        2.05859   0.00263   0.00000   0.00725   0.00725   2.06583
   R12        2.83086  -0.01352   0.00000  -0.03973  -0.03973   2.79113
   R13        2.65407  -0.00411   0.00000  -0.00104  -0.00102   2.65305
   R14        2.55523  -0.00771   0.00000   0.00490   0.00490   2.56013
   R15        2.32981  -0.02366   0.00000  -0.02763  -0.02763   2.30218
   R16        2.69114   0.00163   0.00000   0.03380   0.03380   2.72494
   R17        2.90101  -0.00709   0.00000  -0.02886  -0.02886   2.87215
   R18        2.06410   0.00132   0.00000   0.00014   0.00014   2.06424
   R19        2.06049   0.00164   0.00000   0.00335   0.00335   2.06384
   R20        2.06079   0.00167   0.00000   0.00290   0.00290   2.06369
   R21        2.05968   0.00277   0.00000   0.00737   0.00737   2.06704
   R22        2.05912   0.00325   0.00000   0.00890   0.00890   2.06802
   R23        2.56486  -0.02951   0.00000  -0.06518  -0.06519   2.49967
   R24        2.04678   0.00156   0.00000   0.00685   0.00685   2.05363
    A1        2.05862   0.00205   0.00000   0.02001  -0.04808   2.01053
    A2        2.06144   0.00204   0.00000   0.01945  -0.04859   2.01285
    A3        2.16313  -0.00409   0.00000  -0.04013  -0.12934   2.03379
    A4        2.03604  -0.00171   0.00000  -0.00034  -0.00044   2.03560
    A5        2.03516  -0.00156   0.00000   0.00061   0.00050   2.03566
    A6        2.21198   0.00327   0.00000  -0.00020  -0.00038   2.21159
    A7        2.03401   0.00068   0.00000   0.01892   0.01887   2.05287
    A8        1.97378   0.00933   0.00000   0.03408   0.03408   2.00786
    A9        2.13287  -0.00730   0.00000  -0.02921  -0.02921   2.10367
   A10        2.17635  -0.00202   0.00000  -0.00482  -0.00482   2.17153
   A11        1.92665   0.00262   0.00000   0.01664   0.01683   1.94348
   A12        1.95852  -0.01115   0.00000  -0.06011  -0.05992   1.89859
   A13        1.92059   0.00244   0.00000   0.00921   0.00924   1.92983
   A14        1.87435   0.00557   0.00000   0.04400   0.04434   1.91869
   A15        1.90069  -0.00383   0.00000  -0.03657  -0.03653   1.86416
   A16        1.88130   0.00453   0.00000   0.02753   0.02755   1.90884
   A17        2.21514  -0.00011   0.00000   0.01092   0.01090   2.22604
   A18        2.01334   0.00652   0.00000   0.01371   0.01371   2.02705
   A19        2.05461  -0.00641   0.00000  -0.02475  -0.02477   2.02984
   A20        1.99309  -0.00398   0.00000  -0.01154  -0.01179   1.98131
   A21        2.14164   0.00306   0.00000   0.01719   0.01694   2.15858
   A22        2.14637   0.00111   0.00000  -0.00314  -0.00340   2.14297
   A23        2.12124  -0.02523   0.00000  -0.11019  -0.11019   2.01105
   A24        1.93616   0.00405   0.00000   0.00959   0.00975   1.94591
   A25        1.93927  -0.00281   0.00000  -0.03492  -0.03501   1.90427
   A26        1.88409  -0.00670   0.00000  -0.05482  -0.05483   1.82926
   A27        1.93648  -0.00148   0.00000   0.00114   0.00072   1.93720
   A28        1.90837   0.00411   0.00000   0.03645   0.03617   1.94454
   A29        1.85680   0.00272   0.00000   0.04353   0.04223   1.89904
   A30        1.93846  -0.00201   0.00000  -0.01269  -0.01275   1.92571
   A31        1.93957  -0.00171   0.00000  -0.00470  -0.00473   1.93484
   A32        1.93492  -0.00193   0.00000  -0.01503  -0.01512   1.91980
   A33        1.88422   0.00219   0.00000   0.01638   0.01638   1.90060
   A34        1.87917   0.00208   0.00000   0.01163   0.01151   1.89068
   A35        1.88517   0.00170   0.00000   0.00616   0.00609   1.89127
   A36        2.15377   0.00247   0.00000   0.01353   0.01351   2.16728
   A37        2.11486  -0.00468   0.00000  -0.04447  -0.04447   2.07039
   A38        2.01454   0.00221   0.00000   0.03097   0.03097   2.04551
   A39        2.02023  -0.00563   0.00000  -0.01699  -0.01706   2.00317
    D1        3.13948  -0.00003   0.00000  -0.35572  -0.32964   2.80984
    D2        0.00043   0.00005   0.00000  -0.38389  -0.35782  -0.35739
    D3       -0.00114   0.00001   0.00000   0.38940   0.36332   0.36218
    D4       -3.14020   0.00010   0.00000   0.36122   0.33514  -2.80505
    D5        3.14086  -0.00019   0.00000  -0.05998  -0.06009   3.08077
    D6       -0.00356  -0.00029   0.00000  -0.02854  -0.02867  -0.03223
    D7       -3.13844   0.00006   0.00000   0.05530   0.05518  -3.08326
    D8        0.00598   0.00017   0.00000   0.02387   0.02376   0.02974
    D9        3.11202   0.00049   0.00000   0.01476   0.01469   3.12670
   D10       -0.01021   0.00027   0.00000   0.01171   0.01163   0.00142
   D11       -2.23155  -0.00102   0.00000  -0.01818  -0.01809  -2.24964
   D12       -0.14148   0.00044   0.00000   0.00915   0.00899  -0.13249
   D13        1.95324   0.00050   0.00000   0.01074   0.01072   1.96397
   D14        0.89010  -0.00086   0.00000  -0.01534  -0.01519   0.87491
   D15        2.98018   0.00061   0.00000   0.01199   0.01189   2.99207
   D16       -1.20829   0.00066   0.00000   0.01358   0.01362  -1.19466
   D17       -3.13692  -0.00007   0.00000  -0.00329  -0.00338  -3.14030
   D18        0.01980  -0.00004   0.00000   0.00656   0.00659   0.02639
   D19        0.02635  -0.00044   0.00000  -0.00709  -0.00714   0.01921
   D20       -3.10011  -0.00041   0.00000   0.00276   0.00283  -3.09728
   D21        0.28608  -0.00211   0.00000  -0.04860  -0.04872   0.23736
   D22       -2.92293   0.00089   0.00000  -0.00819  -0.00814  -2.93107
   D23       -2.87096  -0.00205   0.00000  -0.05835  -0.05841  -2.92936
   D24        0.20321   0.00096   0.00000  -0.01795  -0.01782   0.18539
   D25       -0.01741  -0.00018   0.00000  -0.01194  -0.01194  -0.02935
   D26        3.13015  -0.00019   0.00000  -0.01865  -0.01860   3.11155
   D27        3.13785  -0.00020   0.00000  -0.00334  -0.00341   3.13444
   D28        0.00222  -0.00021   0.00000  -0.01005  -0.01006  -0.00784
   D29        3.12801   0.00188   0.00000   0.02288   0.02270  -3.13247
   D30        0.05405  -0.00121   0.00000  -0.01854  -0.01836   0.03569
   D31        1.44202  -0.00129   0.00000  -0.01287  -0.01278   1.42924
   D32       -0.72088  -0.00029   0.00000   0.00389   0.00427  -0.71661
   D33       -2.75061   0.00194   0.00000   0.00308   0.00260  -2.74800
   D34       -1.10321  -0.00059   0.00000  -0.00794  -0.00792  -1.11113
   D35        0.99473  -0.00032   0.00000   0.00110   0.00107   0.99580
   D36        3.09150  -0.00061   0.00000  -0.00429  -0.00432   3.08718
   D37        1.06128  -0.00236   0.00000  -0.04528  -0.04550   1.01579
   D38       -3.12396  -0.00209   0.00000  -0.03624  -0.03651   3.12272
   D39       -1.02719  -0.00238   0.00000  -0.04163  -0.04190  -1.06909
   D40        3.10397   0.00259   0.00000   0.03080   0.03109   3.13506
   D41       -1.08127   0.00286   0.00000   0.03984   0.04008  -1.04119
   D42        1.01550   0.00258   0.00000   0.03445   0.03469   1.05019
   D43        0.00540   0.00005   0.00000  -0.00211  -0.00227   0.00313
   D44        3.14135   0.00003   0.00000   0.00402   0.00406  -3.13778
         Item               Value     Threshold  Converged?
 Maximum Force            0.029508     0.000450     NO 
 RMS     Force            0.006177     0.000300     NO 
 Maximum Displacement     0.401970     0.001800     NO 
 RMS     Displacement     0.117526     0.001200     NO 
 Predicted change in Energy=-7.590802D-03
 GradGradGradGradGradGradGradGradGradGradGradGradGradGradGradGradGradGrad

                          Input orientation:                          
 ---------------------------------------------------------------------
 Center     Atomic      Atomic             Coordinates (Angstroms)
 Number     Number       Type             X           Y           Z
 ---------------------------------------------------------------------
      1          7           0       -4.239430    1.564357   -0.048166
      2          6           0       -2.948349    1.166982   -0.018190
      3          7           0       -2.710208   -0.133444   -0.280677
      4          6           0       -1.437636   -0.532373   -0.326563
      5          6           0       -1.239290   -1.997241   -0.603531
      6          6           0       -0.386791    0.389103   -0.103576
      7          6           0        1.065267    0.119227   -0.118831
      8          8           0        1.386524   -1.080632   -0.659679
      9          6           0        2.795378   -1.387077   -0.682318
     10          6           0        3.269185   -1.927949    0.656705
     11          8           0        1.902841    0.905658    0.286332
     12          6           0       -0.771655    1.706098    0.193787
     13          7           0       -2.026897    2.120584    0.241604
     14          1           0       -4.432373    2.428886    0.427714
     15          1           0       -4.917912    0.830581    0.061044
     16          1           0       -0.572981   -2.454033    0.130900
     17          1           0       -2.210097   -2.492833   -0.583513
     18          1           0       -0.777554   -2.143791   -1.583526
     19          1           0        3.352097   -0.489495   -0.960956
     20          1           0        2.906651   -2.130514   -1.474582
     21          1           0        3.156399   -1.169098    1.433889
     22          1           0        2.697380   -2.815519    0.942588
     23          1           0        4.326449   -2.203801    0.595937
     24          1           0        0.002202    2.440627    0.400210
 ---------------------------------------------------------------------
                    Distance matrix (angstroms):
                    1          2          3          4          5
     1  N    0.000000
     2  C    1.351183   0.000000
     3  N    2.296761   1.347857   0.000000
     4  C    3.510531   2.294592   1.334425   0.000000
     5  C    4.689803   3.643599   2.396158   1.503959   0.000000
     6  C    4.028290   2.678426   2.388030   1.415315   2.582895
     7  C    5.498473   4.149342   3.787381   2.594660   3.166284
     8  O    6.246700   4.924875   4.221850   2.896107   2.781766
     9  C    7.655170   6.320972   5.660776   4.333069   4.081305
    10  C    8.310977   6.977952   6.312850   5.006856   4.681810
    11  O    6.186539   4.867758   4.762505   3.688138   4.369402
    12  C    3.479094   2.252461   2.714226   2.392708   3.816952
    13  N    2.299708   1.351268   2.412537   2.776369   4.276806
    14  H    1.005534   1.998389   3.167523   4.278602   5.554264
    15  H    1.005332   1.999656   2.433121   3.757686   4.687270
    16  H    5.442644   4.333169   3.181551   2.156311   1.091794
    17  H    4.567886   3.776089   2.430748   2.122763   1.090174
    18  H    5.300215   4.257211   3.077997   2.147635   1.093191
    19  H    7.917245   6.582427   6.110736   4.831753   4.845811
    20  H    8.170263   6.875724   6.079704   4.769154   4.238551
    21  H    8.022877   6.695801   6.199145   4.960823   4.915179
    22  H    8.263428   6.975505   6.158889   4.890998   4.307835
    23  H    9.380201   8.041270   7.387109   6.072014   5.697267
    24  H    4.354346   3.240830   3.800870   3.382316   4.716298
                    6          7          8          9         10
     6  C    0.000000
     7  C    1.477003   0.000000
     8  O    2.369392   1.354763   0.000000
     9  C    3.689981   2.362150   1.441975   0.000000
    10  C    4.394647   3.106387   2.448515   1.519875   0.000000
    11  O    2.379343   1.218262   2.259838   2.644153   3.167555
    12  C    1.403931   2.447483   3.626569   4.801981   5.454263
    13  N    2.409798   3.700922   4.765662   6.034207   6.679178
    14  H    4.561767   5.988095   6.881765   8.248280   8.851466
    15  H    4.555553   6.028003   6.627073   8.060114   8.659842
    16  H    2.858858   3.060701   2.520100   3.625680   3.913499
    17  H    3.443885   4.215068   3.864686   5.127108   5.646217
    18  H    2.959476   3.265359   2.582060   3.761732   4.630477
    19  H    3.935266   2.511833   2.074533   1.092350   2.166299
    20  H    4.367480   3.207816   2.019184   1.092136   2.171371
    21  H    4.164851   2.905779   2.742866   2.157819   1.092058
    22  H    4.569045   3.521809   2.701007   2.165726   1.093833
    23  H    5.424676   4.067267   3.388399   2.155262   1.094347
    24  H    2.147991   2.605458   3.929246   4.860557   5.461083
                   11         12         13         14         15
    11  O    0.000000
    12  C    2.793241   0.000000
    13  N    4.113501   1.322769   0.000000
    14  H    6.517296   3.738716   2.432283   0.000000
    15  H    6.824886   4.239765   3.170912   1.710197   0.000000
    16  H    4.176288   4.165348   4.801380   6.231043   5.447201
    17  H    5.405797   4.506034   4.690203   5.494034   4.335066
    18  H    4.469902   4.240345   4.803838   6.189682   5.356685
    19  H    2.366965   4.812421   6.098544   8.428720   8.436832
    20  H    3.650588   5.570726   6.734762   8.846927   8.505881
    21  H    2.681960   5.023367   6.253808   8.458566   8.430773
    22  H    3.861234   5.748037   6.868427   8.865792   8.489043
    23  H    3.954551   6.437368   7.693560   9.909947   9.744322
    24  H    2.445716   1.086736   2.060297   4.434675   5.187948
                   16         17         18         19         20
    16  H    0.000000
    17  H    1.786628   0.000000
    18  H    1.754239   1.781583   0.000000
    19  H    4.523029   5.924005   4.492027   0.000000
    20  H    3.845786   5.206380   3.685839   1.776282   0.000000
    21  H    4.154169   5.884001   5.052802   2.497086   3.073418
    22  H    3.388919   5.149412   4.348292   3.076121   2.521059
    23  H    4.927808   6.648389   5.550181   2.512394   2.511623
    24  H    4.935692   5.495544   5.055701   4.654050   5.731143
                   21         22         23         24
    21  H    0.000000
    22  H    1.778420   0.000000
    23  H    1.772510   1.774325   0.000000
    24  H    4.903832   5.931714   6.348869   0.000000
 Stoichiometry    C8H11N3O2
 Framework group  C1[X(C8H11N3O2)]
 Deg. of freedom    66
 Full point group                 C1      NOp   1
 Largest Abelian subgroup         C1      NOp   1
 Largest concise Abelian subgroup C1      NOp   1
                         Standard orientation:                         
 ---------------------------------------------------------------------
 Center     Atomic      Atomic             Coordinates (Angstroms)
 Number     Number       Type             X           Y           Z
 ---------------------------------------------------------------------
      1          7           0        4.223562    0.068971    0.056520
      2          6           0        2.880116   -0.075358    0.060434
      3          7           0        2.150677    1.058034    0.052666
      4          6           0        0.823321    0.939027   -0.015529
      5          6           0        0.066052    2.238336   -0.000234
      6          6           0        0.218149   -0.338987   -0.075209
      7          6           0       -1.223700   -0.649212   -0.155029
      8          8           0       -1.991463    0.424007   -0.461825
      9          6           0       -3.407908    0.164750   -0.537723
     10          6           0       -4.049777    0.171119    0.839950
     11          8           0       -1.684705   -1.764969    0.008446
     12          6           0        1.089235   -1.438841   -0.024668
     13          7           0        2.406745   -1.340846    0.040766
     14          1           0        4.741679   -0.738195    0.358407
     15          1           0        4.561052    0.962394    0.370511
     16          1           0       -0.722681    2.229913    0.754646
     17          1           0        0.765391    3.049822    0.201989
     18          1           0       -0.420495    2.410720   -0.963885
     19          1           0       -3.569965   -0.791353   -1.040549
     20          1           0       -3.804852    0.964837   -1.166259
     21          1           0       -3.645472   -0.638864    1.450732
     22          1           0       -3.869888    1.122406    1.349031
     23          1           0       -5.130895    0.027432    0.749762
     24          1           0        0.665666   -2.439530   -0.038985
 ---------------------------------------------------------------------
 Rotational constants (GHZ):           2.0075852           0.4460232           0.3784093
 Standard basis: 6-31G(d,p) (6D, 7F)
 There are   250 symmetry adapted cartesian basis functions of A   symmetry.
 There are   250 symmetry adapted basis functions of A   symmetry.
   250 basis functions,   441 primitive gaussians,   250 cartesian basis functions
    48 alpha electrons       48 beta electrons
       nuclear repulsion energy       792.2460102024 Hartrees.
 NAtoms=   24 NActive=   24 NUniq=   24 SFac= 1.00D+00 NAtFMM=   60 NAOKFM=F Big=F
 Integral buffers will be    131072 words long.
 Raffenetti 2 integral format.
 Two-electron integral symmetry is turned on.
 Nuclear repulsion after empirical dispersion term =      792.2040053794 Hartrees.
 One-electron integrals computed using PRISM.
 NBasis=   250 RedAO= T EigKep=  9.32D-04  NBF=   250
 NBsUse=   250 1.00D-06 EigRej= -1.00D+00 NBFU=   250
 Initial guess from the checkpoint file:  "pyrmd1_conf-4.chk"
 B after Tr=    -0.000000    0.000000   -0.000000
         Rot=    0.999924   -0.011856   -0.000222    0.003461 Ang=  -1.42 deg.
 ExpMin= 1.61D-01 ExpMax= 5.48D+03 ExpMxC= 8.25D+02 IAcc=3 IRadAn=         5 AccDes= 0.00D+00
 Harris functional with IExCor=  402 and IRadAn=       5 diagonalized for initial guess.
 HarFok:  IExCor=  402 AccDes= 0.00D+00 IRadAn=         5 IDoV= 1 UseB2=F ITyADJ=14
 ICtDFT=  3500011 ScaDFX=  1.000000  1.000000  1.000000  1.000000
 FoFCou: FMM=F IPFlag=           0 FMFlag=      100000 FMFlg1=           0
         NFxFlg=           0 DoJE=T BraDBF=F KetDBF=T FulRan=T
         wScrn=  0.000000 ICntrl=       500 IOpCl=  0 I1Cent=   200000004 NGrid=           0
         NMat0=    1 NMatS0=      1 NMatT0=    0 NMatD0=    1 NMtDS0=    0 NMtDT0=    0
 Petite list used in FoFCou.
 Requested convergence on RMS density matrix=1.00D-08 within 128 cycles.
 Requested convergence on MAX density matrix=1.00D-06.
 Requested convergence on             energy=1.00D-06.
 No special actions if energy rises.
 Integral accuracy reduced to 1.0D-05 until final iterations.
 Initial convergence to 1.0D-05 achieved.  Increase integral accuracy.
 SCF Done:  E(RB3LYP) =  -626.274168894     A.U. after   13 cycles
            NFock= 13  Conv=0.57D-08     -V/T= 2.0092
 Calling FoFJK, ICntrl=      2127 FMM=F ISym2X=0 I1Cent= 0 IOpClX= 0 NMat=1 NMatS=1 NMatT=0.
 ***** Axes restored to original set *****
 -------------------------------------------------------------------
 Center     Atomic                   Forces (Hartrees/Bohr)
 Number     Number              X              Y              Z
 -------------------------------------------------------------------
      1        7          -0.007504220    0.001374700    0.003823835
      2        6           0.010124058   -0.002901240   -0.002103490
      3        7          -0.000884772    0.001981337    0.000851663
      4        6           0.001743699   -0.001228078   -0.000318972
      5        6          -0.000541985   -0.000378604    0.000213019
      6        6          -0.000862806    0.000280696    0.000229032
      7        6          -0.000129923   -0.000009710   -0.000911642
      8        8          -0.000542767    0.000759031    0.000792019
      9        6           0.004334968   -0.001812314   -0.001280909
     10        6          -0.000689634    0.000220365    0.000640358
     11        8          -0.000421433    0.001032966    0.000259531
     12        6           0.002935132   -0.000720578    0.000304129
     13        7          -0.002942530   -0.000203282   -0.000108488
     14        1          -0.001040156    0.004314352   -0.000309398
     15        1          -0.003144155   -0.002548620   -0.001909843
     16        1           0.000593171    0.000030713   -0.000361852
     17        1          -0.000367470    0.000436690   -0.000184502
     18        1           0.000669419   -0.000118961    0.000141966
     19        1          -0.000724195    0.000366183    0.000540703
     20        1          -0.001243298   -0.000514577   -0.000003512
     21        1           0.000187165    0.000072051   -0.000087115
     22        1          -0.000035346   -0.000173677   -0.000110420
     23        1           0.000125800   -0.000106947   -0.000198366
     24        1           0.000361281   -0.000152496    0.000092256
 -------------------------------------------------------------------
 Cartesian Forces:  Max     0.010124058 RMS     0.002007213

 GradGradGradGradGradGradGradGradGradGradGradGradGradGradGradGradGradGrad
 Berny optimization.
 Using GEDIIS/GDIIS optimizer.
 FormGI is forming the generalized inverse of G from B-inverse, IUseBI=4.
 Internal  Forces:  Max     0.012056625 RMS     0.001566690
 Search for a local minimum.
 Step number   2 out of a maximum of  117
 All quantities printed in internal units (Hartrees-Bohrs-Radians)
 Mixed Optimization -- RFO/linear search
 Update second derivatives using D2CorX and points    1    2
 DE= -5.90D-03 DEPred=-7.59D-03 R= 7.77D-01
 TightC=F SS=  1.41D+00  RLast= 7.61D-01 DXNew= 5.0454D-01 2.2821D+00
 Trust test= 7.77D-01 RLast= 7.61D-01 DXMaxT set to 5.05D-01
 ITU=  1  0
 Use linear search instead of GDIIS.
     Eigenvalues ---   -0.00382   0.00128   0.00277   0.00332   0.00388
     Eigenvalues ---    0.01137   0.01425   0.01516   0.01819   0.02146
     Eigenvalues ---    0.02457   0.02588   0.03866   0.04484   0.04539
     Eigenvalues ---    0.04752   0.05263   0.05556   0.05685   0.05780
     Eigenvalues ---    0.06448   0.09463   0.10062   0.11047   0.11955
     Eigenvalues ---    0.12105   0.12195   0.12250   0.13012   0.13968
     Eigenvalues ---    0.14187   0.16579   0.17814   0.18638   0.19636
     Eigenvalues ---    0.20104   0.20672   0.22040   0.22620   0.23898
     Eigenvalues ---    0.24981   0.27906   0.28487   0.29737   0.33338
     Eigenvalues ---    0.33958   0.34231   0.34591   0.34819   0.34965
     Eigenvalues ---    0.35013   0.35474   0.35492   0.36514   0.37086
     Eigenvalues ---    0.37616   0.41394   0.43100   0.43840   0.47972
     Eigenvalues ---    0.49316   0.49937   0.50392   0.53025   0.58312
     Eigenvalues ---    0.75884
 RFO step:  Lambda=-5.70117675D-03 EMin=-3.82377945D-03
 Quartic linear search produced a step of -0.16261.
 Iteration  1 RMS(Cart)=  0.07117725 RMS(Int)=  0.05930919
 Iteration  2 RMS(Cart)=  0.03702809 RMS(Int)=  0.02908433
 Iteration  3 RMS(Cart)=  0.00977812 RMS(Int)=  0.02732939
 Iteration  4 RMS(Cart)=  0.00141215 RMS(Int)=  0.02729735
 Iteration  5 RMS(Cart)=  0.00021701 RMS(Int)=  0.02729664
 Iteration  6 RMS(Cart)=  0.00003229 RMS(Int)=  0.02729663
 Iteration  7 RMS(Cart)=  0.00000485 RMS(Int)=  0.02729663
 Iteration  8 RMS(Cart)=  0.00000073 RMS(Int)=  0.02729663
 Variable       Old X    -DE/DX   Delta X   Delta X   Delta X     New X
                                 (Linear)    (Quad)   (Total)
    R1        2.55337   0.01206   0.00709  -0.00228   0.00481   2.55817
    R2        1.90018   0.00376  -0.00014   0.00850   0.00837   1.90855
    R3        1.89980   0.00377  -0.00018   0.00878   0.00860   1.90840
    R4        2.54708  -0.00050  -0.00058  -0.00201  -0.00256   2.54452
    R5        2.55353  -0.00026  -0.00186   0.00453   0.00270   2.55622
    R6        2.52170   0.00228   0.00773  -0.03017  -0.02243   2.49927
    R7        2.84207   0.00011   0.00521  -0.02422  -0.01901   2.82306
    R8        2.67456  -0.00016  -0.00009   0.00032   0.00020   2.67476
    R9        2.06319   0.00011  -0.00073   0.00354   0.00281   2.06601
   R10        2.06013   0.00013   0.00016  -0.00075  -0.00059   2.05954
   R11        2.06583   0.00017  -0.00118   0.00615   0.00497   2.07081
   R12        2.79113   0.00088   0.00646  -0.02372  -0.01726   2.77387
   R13        2.65305  -0.00011   0.00017  -0.00181  -0.00168   2.65137
   R14        2.56013   0.00127  -0.00080   0.00152   0.00072   2.56085
   R15        2.30218   0.00046   0.00449  -0.02088  -0.01639   2.28580
   R16        2.72494   0.00233  -0.00550   0.03238   0.02688   2.75182
   R17        2.87215   0.00008   0.00469  -0.02205  -0.01736   2.85479
   R18        2.06424  -0.00021  -0.00002  -0.00044  -0.00046   2.06378
   R19        2.06384   0.00023  -0.00054   0.00269   0.00215   2.06599
   R20        2.06369  -0.00003  -0.00047   0.00205   0.00158   2.06527
   R21        2.06704   0.00013  -0.00120   0.00567   0.00447   2.07151
   R22        2.06802   0.00016  -0.00145   0.00732   0.00588   2.07389
   R23        2.49967   0.00347   0.01060  -0.04038  -0.02979   2.46988
   R24        2.05363   0.00017  -0.00111   0.00518   0.00407   2.05770
    A1        2.01053   0.00144   0.00782   0.23594   0.08441   2.09495
    A2        2.01285   0.00147   0.00790   0.23617   0.08475   2.09761
    A3        2.03379   0.00005   0.02103   0.16758   0.02301   2.05679
    A4        2.03560   0.00058   0.00007  -0.00004  -0.00027   2.03533
    A5        2.03566   0.00062  -0.00008   0.00089   0.00051   2.03617
    A6        2.21159  -0.00119   0.00006   0.00009  -0.00003   2.21156
    A7        2.05287   0.00125  -0.00307   0.01736   0.01439   2.06727
    A8        2.00786   0.00040  -0.00554   0.02465   0.01908   2.02695
    A9        2.10367  -0.00028   0.00475  -0.02465  -0.01991   2.08376
   A10        2.17153  -0.00012   0.00078   0.00016   0.00093   2.17246
   A11        1.94348   0.00017  -0.00274   0.01132   0.00862   1.95210
   A12        1.89859  -0.00059   0.00974  -0.04780  -0.03800   1.86059
   A13        1.92983   0.00013  -0.00150   0.00898   0.00750   1.93733
   A14        1.91869   0.00055  -0.00721   0.03835   0.03120   1.94988
   A15        1.86416  -0.00055   0.00594  -0.03386  -0.02790   1.83625
   A16        1.90884   0.00032  -0.00448   0.02491   0.02047   1.92932
   A17        2.22604  -0.00011  -0.00177   0.00983   0.00804   2.23408
   A18        2.02705  -0.00016  -0.00223   0.01121   0.00893   2.03598
   A19        2.02984   0.00027   0.00403  -0.02077  -0.01676   2.01308
   A20        1.98131  -0.00081   0.00192  -0.01105  -0.00925   1.97205
   A21        2.15858  -0.00079  -0.00275   0.00860   0.00573   2.16431
   A22        2.14297   0.00160   0.00055   0.00339   0.00383   2.14680
   A23        2.01105   0.00547   0.01792  -0.05694  -0.03902   1.97203
   A24        1.94591   0.00011  -0.00159   0.00444   0.00293   1.94883
   A25        1.90427  -0.00024   0.00569  -0.02875  -0.02307   1.88120
   A26        1.82926  -0.00075   0.00892  -0.05006  -0.04109   1.78818
   A27        1.93720   0.00008  -0.00012   0.00327   0.00292   1.94012
   A28        1.94454   0.00024  -0.00588   0.02935   0.02324   1.96778
   A29        1.89904   0.00053  -0.00687   0.03911   0.03170   1.93073
   A30        1.92571   0.00005   0.00207  -0.00877  -0.00671   1.91900
   A31        1.93484  -0.00009   0.00077  -0.00472  -0.00397   1.93087
   A32        1.91980  -0.00026   0.00246  -0.01344  -0.01101   1.90879
   A33        1.90060   0.00016  -0.00266   0.01414   0.01148   1.91208
   A34        1.89068   0.00008  -0.00187   0.00929   0.00739   1.89807
   A35        1.89127   0.00007  -0.00099   0.00431   0.00329   1.89456
   A36        2.16728  -0.00022  -0.00220   0.00927   0.00706   2.17434
   A37        2.07039  -0.00025   0.00723  -0.03347  -0.02624   2.04416
   A38        2.04551   0.00046  -0.00504   0.02421   0.01918   2.06468
   A39        2.00317   0.00059   0.00277  -0.01282  -0.00998   1.99318
    D1        2.80984   0.00184   0.05360   0.43064   0.46470  -3.00864
    D2       -0.35739   0.00201   0.05819   0.46743   0.50609   0.14871
    D3        0.36218  -0.00203  -0.05908  -0.47211  -0.51166  -0.14948
    D4       -2.80505  -0.00186  -0.05450  -0.43531  -0.47027   3.00786
    D5        3.08077   0.00010   0.00977   0.04835   0.05812   3.13889
    D6       -0.03223  -0.00013   0.00466   0.00730   0.01197  -0.02026
    D7       -3.08326  -0.00016  -0.00897  -0.05288  -0.06185   3.13808
    D8        0.02974   0.00006  -0.00386  -0.01184  -0.01569   0.01405
    D9        3.12670   0.00019  -0.00239   0.01501   0.01267   3.13937
   D10        0.00142   0.00010  -0.00189   0.00486   0.00303   0.00445
   D11       -2.24964  -0.00026   0.00294  -0.00245   0.00046  -2.24919
   D12       -0.13249   0.00015  -0.00146   0.02084   0.01932  -0.11317
   D13        1.96397   0.00025  -0.00174   0.02680   0.02499   1.98896
   D14        0.87491  -0.00017   0.00247   0.00790   0.01044   0.88535
   D15        2.99207   0.00024  -0.00193   0.03119   0.02931   3.02138
   D16       -1.19466   0.00033  -0.00222   0.03715   0.03498  -1.15969
   D17       -3.14030   0.00002   0.00055   0.00195   0.00259  -3.13771
   D18        0.02639   0.00000  -0.00107  -0.01115  -0.01228   0.01411
   D19        0.01921  -0.00008   0.00116  -0.00940  -0.00806   0.01115
   D20       -3.09728  -0.00010  -0.00046  -0.02250  -0.02293  -3.12021
   D21        0.23736  -0.00069   0.00792  -0.09249  -0.08452   0.15284
   D22       -2.93107  -0.00023   0.00132  -0.05381  -0.05246  -2.98353
   D23       -2.92936  -0.00068   0.00950  -0.07897  -0.06951  -2.99887
   D24        0.18539  -0.00021   0.00290  -0.04029  -0.03744   0.14795
   D25       -0.02935  -0.00006   0.00194   0.00632   0.00831  -0.02103
   D26        3.11155  -0.00008   0.00302   0.00735   0.01036   3.12191
   D27        3.13444  -0.00007   0.00055  -0.00566  -0.00497   3.12948
[...]
                 (A) (A) (A) (A) (A) (A) (A) (A) (A) (A) (A) (A)
                 (A) (A) (A) (A) (A) (A) (A) (A) (A) (A) (A) (A)
                 (A)
 The electronic state is 1-A.
 Alpha  occ. eigenvalues --  -19.67140 -19.61145 -14.77360 -14.75208 -14.75131
 Alpha  occ. eigenvalues --  -10.67744 -10.65618 -10.61332 -10.59729 -10.59565
 Alpha  occ. eigenvalues --  -10.55607 -10.53474 -10.53298  -1.22983  -1.13563
 Alpha  occ. eigenvalues --   -1.12184  -1.02220  -1.00323  -0.90289  -0.86381
 Alpha  occ. eigenvalues --   -0.82841  -0.76815  -0.72898  -0.72025  -0.65146
 Alpha  occ. eigenvalues --   -0.63814  -0.61086  -0.60202  -0.57578  -0.55909
 Alpha  occ. eigenvalues --   -0.54359  -0.52730  -0.52306  -0.49681  -0.48469
 Alpha  occ. eigenvalues --   -0.48091  -0.46791  -0.45910  -0.45236  -0.43678
 Alpha  occ. eigenvalues --   -0.41170  -0.40162  -0.39793  -0.37449  -0.37155
 Alpha  occ. eigenvalues --   -0.35467  -0.32345  -0.29231
 Alpha virt. eigenvalues --   -0.01223  -0.00334   0.06280   0.06830   0.08729
 Alpha virt. eigenvalues --    0.09844   0.10806   0.10875   0.11401   0.13432
 Alpha virt. eigenvalues --    0.13620   0.13986   0.14728   0.15209   0.16013
 Alpha virt. eigenvalues --    0.16686   0.17918   0.18827   0.19493   0.21962
 Alpha virt. eigenvalues --    0.22036   0.22995   0.24037   0.25292   0.25770
 Alpha virt. eigenvalues --    0.25979   0.26091   0.26392   0.27444   0.28328
 Alpha virt. eigenvalues --    0.29206   0.30486   0.31159   0.32823   0.33402
 Alpha virt. eigenvalues --    0.33775   0.35929   0.36243   0.37028   0.37738
 Alpha virt. eigenvalues --    0.38286   0.38988   0.40407   0.40628   0.42057
 Alpha virt. eigenvalues --    0.42875   0.43768   0.44430   0.45687   0.45958
 Alpha virt. eigenvalues --    0.46414   0.46810   0.47408   0.47810   0.48315
 Alpha virt. eigenvalues --    0.48569   0.49708   0.49849   0.51369   0.51839
 Alpha virt. eigenvalues --    0.52200   0.52653   0.53419   0.53912   0.54887
 Alpha virt. eigenvalues --    0.56074   0.56609   0.59315   0.59416   0.60294
 Alpha virt. eigenvalues --    0.61417   0.61856   0.63654   0.64085   0.64989
 Alpha virt. eigenvalues --    0.65947   0.67370   0.67762   0.68954   0.69282
 Alpha virt. eigenvalues --    0.70879   0.71022   0.72008   0.72315   0.73989
 Alpha virt. eigenvalues --    0.74625   0.77010   0.77552   0.78158   0.79336
 Alpha virt. eigenvalues --    0.81101   0.81861   0.82958   0.85088   0.86715
 Alpha virt. eigenvalues --    0.87839   0.88343   0.90380   0.92803   0.93060
 Alpha virt. eigenvalues --    0.94408   0.95594   0.98090   0.99515   1.00327
 Alpha virt. eigenvalues --    1.02675   1.03876   1.05521   1.06437   1.07988
 Alpha virt. eigenvalues --    1.09912   1.10127   1.12201   1.13037   1.13597
 Alpha virt. eigenvalues --    1.15134   1.17274   1.19935   1.21714   1.25189
 Alpha virt. eigenvalues --    1.26514   1.27356   1.29111   1.31319   1.32633
 Alpha virt. eigenvalues --    1.35513   1.35807   1.37836   1.39464   1.41409
 Alpha virt. eigenvalues --    1.42082   1.44327   1.45822   1.47417   1.47701
 Alpha virt. eigenvalues --    1.51801   1.52804   1.53018   1.53543   1.54079
 Alpha virt. eigenvalues --    1.55796   1.56370   1.57978   1.58081   1.58689
 Alpha virt. eigenvalues --    1.59314   1.59741   1.60688   1.61194   1.62352
 Alpha virt. eigenvalues --    1.63391   1.63940   1.65657   1.66136   1.67256
 Alpha virt. eigenvalues --    1.68428   1.69128   1.71218   1.71887   1.73909
 Alpha virt. eigenvalues --    1.74839   1.75715   1.78467   1.79899   1.81193
 Alpha virt. eigenvalues --    1.82875   1.83482   1.84248   1.85825   1.86922
 Alpha virt. eigenvalues --    1.88770   1.90885   1.91095   1.92457   1.93947
 Alpha virt. eigenvalues --    1.96100   1.97015   1.99183   2.00273   2.01364
 Alpha virt. eigenvalues --    2.02128   2.04017   2.06189   2.07666   2.08340
 Alpha virt. eigenvalues --    2.09930   2.12382   2.13551   2.14116   2.17390
 Alpha virt. eigenvalues --    2.17573   2.20243   2.23028   2.24736   2.26936
 Alpha virt. eigenvalues --    2.28825   2.29779   2.30715   2.32918   2.33223
 Alpha virt. eigenvalues --    2.34601   2.34941   2.35815   2.36577   2.37054
 Alpha virt. eigenvalues --    2.38932   2.40331   2.40752   2.42097   2.43970
 Alpha virt. eigenvalues --    2.45759   2.46138   2.47176   2.48438   2.50248
 Alpha virt. eigenvalues --    2.53588   2.54168   2.54915   2.57277   2.57591
 Alpha virt. eigenvalues --    2.58418   2.60479   2.61414   2.62610   2.64604
 Alpha virt. eigenvalues --    2.65445   2.68574   2.69451   2.70280   2.71696
 Alpha virt. eigenvalues --    2.73627   2.75512   2.77414   2.80759   2.81371
 Alpha virt. eigenvalues --    2.82124   2.82300   2.84494   2.85686   2.89373
 Alpha virt. eigenvalues --    2.90600   2.91735   2.93612   2.95626   2.96104
 Alpha virt. eigenvalues --    2.96305   2.97486   2.98925   3.00459   3.01325
 Alpha virt. eigenvalues --    3.02024   3.03560   3.04005   3.05493   3.06593
 Alpha virt. eigenvalues --    3.08101   3.08641   3.10628   3.11258   3.13601
 Alpha virt. eigenvalues --    3.14547   3.15290   3.16111   3.16809   3.17239
 Alpha virt. eigenvalues --    3.18491   3.20925   3.21336   3.22941   3.24161
 Alpha virt. eigenvalues --    3.25184   3.25532   3.27251   3.28118   3.29068
 Alpha virt. eigenvalues --    3.30168   3.31366   3.32649   3.33510   3.34706
 Alpha virt. eigenvalues --    3.35292   3.35906   3.37006   3.37369   3.39239
 Alpha virt. eigenvalues --    3.40039   3.41033   3.42127   3.44020   3.45185
 Alpha virt. eigenvalues --    3.47103   3.47939   3.50571   3.52056   3.52816
 Alpha virt. eigenvalues --    3.53704   3.55520   3.55796   3.59120   3.61173
 Alpha virt. eigenvalues --    3.65556   3.69118   3.70452   3.72268   3.72688
 Alpha virt. eigenvalues --    3.73969   3.77883   3.78854   3.80679   3.81802
 Alpha virt. eigenvalues --    3.83012   3.84797   3.86891   3.88620   3.89486
 Alpha virt. eigenvalues --    3.90533   3.92793   3.94276   3.96226   3.96946
 Alpha virt. eigenvalues --    3.99291   4.05187   4.08073   4.08985   4.13879
 Alpha virt. eigenvalues --    4.15258   4.17472   4.19723   4.22450   4.24867
 Alpha virt. eigenvalues --    4.26348   4.30162   4.33019   4.34804   4.36493
 Alpha virt. eigenvalues --    4.37938   4.40817   4.42367   4.46963   4.47284
 Alpha virt. eigenvalues --    4.49131   4.52253   4.54010   4.55863   4.58558
 Alpha virt. eigenvalues --    4.64424   4.65347   4.68413   4.69843   4.71241
 Alpha virt. eigenvalues --    4.73192   4.73641   4.77765   4.83837   4.86551
 Alpha virt. eigenvalues --    4.92157   4.93580   4.95257   4.97788   5.01575
 Alpha virt. eigenvalues --    5.02459   5.02888   5.03943   5.04818   5.12127
 Alpha virt. eigenvalues --    5.14592   5.15671   5.18575   5.19447   5.19888
 Alpha virt. eigenvalues --    5.25036   5.30979   5.31491   5.33667   5.34982
 Alpha virt. eigenvalues --    5.38609   5.41350   5.42328   5.43442   5.48090
 Alpha virt. eigenvalues --    5.49912   5.53371   5.55935   5.64557   5.69301
 Alpha virt. eigenvalues --    5.72350   5.75341   5.82767   5.89413   5.95604
 Alpha virt. eigenvalues --    5.96206   6.05969   6.09669   6.15012   6.20181
 Alpha virt. eigenvalues --    6.37266   6.38090   6.42506   6.57747   6.65352
 Alpha virt. eigenvalues --    6.75321   6.78632   6.90489   6.92895   7.05990
 Alpha virt. eigenvalues --    7.13168   7.29171   7.41716  22.43588  22.54550
 Alpha virt. eigenvalues --   22.58026  22.84666  23.02504  23.25065  23.35086
 Alpha virt. eigenvalues --   23.51277  32.08216  32.50093  32.85244  44.09308
 Alpha virt. eigenvalues --   44.38549
          Condensed to atoms (all electrons):
               1          2          3          4          5          6
     1  N    6.581375   0.389603  -0.108465   0.006732   0.000170  -0.003866
     2  C    0.389603   4.480804   0.503123  -0.096910   0.003333  -0.022370
     3  N   -0.108465   0.503123   6.540244   0.589110  -0.054859  -0.103168
     4  C    0.006732  -0.096910   0.589110   5.042543   0.229613   0.308007
     5  C    0.000170   0.003333  -0.054859   0.229613   5.151441  -0.074885
     6  C   -0.003866  -0.022370  -0.103168   0.308007  -0.074885   5.594969
     7  C   -0.000116   0.001338  -0.000610  -0.041176  -0.021977   0.286324
     8  O   -0.000001   0.000040   0.000010   0.000666  -0.021061  -0.110814
     9  C   -0.000000   0.000016   0.000030  -0.001299  -0.003190   0.004201
    10  C    0.000000  -0.000003  -0.000006   0.000326   0.000180   0.001232
    11  O   -0.000002  -0.000300  -0.000313   0.001641  -0.000062  -0.141089
    12  C    0.006497  -0.112407  -0.013639  -0.022170   0.007877   0.438943
    13  N   -0.109088   0.493965  -0.072216  -0.043337  -0.003077  -0.046076
    14  H    0.368966  -0.027889   0.006041  -0.000891   0.000033   0.000294
    15  H    0.369661  -0.028923   0.008012   0.000824  -0.000342   0.000754
    16  H    0.000008  -0.000676   0.000715  -0.047652   0.419158   0.003220
    17  H   -0.000288   0.000883   0.007975  -0.067832   0.421902   0.012578
    18  H    0.000006  -0.000580   0.000451  -0.044903   0.413837   0.005386
    19  H    0.000000   0.000000   0.000003  -0.000568   0.000287  -0.002100
    20  H    0.000000   0.000002   0.000003   0.000276  -0.000411   0.003249
    21  H   -0.000000   0.000003   0.000002   0.000028   0.000058   0.004153
    22  H   -0.000000  -0.000000   0.000001  -0.000236  -0.000017  -0.001291
    23  H   -0.000000  -0.000000  -0.000000  -0.000008   0.000001  -0.000031
    24  H   -0.000009   0.005452  -0.001508   0.004953   0.000088  -0.057659
               7          8          9         10         11         12
     1  N   -0.000116  -0.000001  -0.000000   0.000000  -0.000002   0.006497
     2  C    0.001338   0.000040   0.000016  -0.000003  -0.000300  -0.112407
     3  N   -0.000610   0.000010   0.000030  -0.000006  -0.000313  -0.013639
     4  C   -0.041176   0.000666  -0.001299   0.000326   0.001641  -0.022170
     5  C   -0.021977  -0.021061  -0.003190   0.000180  -0.000062   0.007877
     6  C    0.286324  -0.110814   0.004201   0.001232  -0.141089   0.438943
     7  C    4.530027   0.363104  -0.048394   0.001314   0.639700  -0.069197
     8  O    0.363104   8.043411   0.181126  -0.030227  -0.084377   0.004716
     9  C   -0.048394   0.181126   4.966918   0.268704   0.014090  -0.001033
    10  C    0.001314  -0.030227   0.268704   5.080089  -0.017776   0.000170
    11  O    0.639700  -0.084377   0.014090  -0.017776   7.915741   0.020884
    12  C   -0.069197   0.004716  -0.001033   0.000170   0.020884   4.820350
    13  N    0.007208  -0.000222   0.000011  -0.000000   0.000430   0.542626
    14  H   -0.000006   0.000000  -0.000000   0.000000   0.000000   0.001045
    15  H   -0.000010   0.000000  -0.000000   0.000000   0.000000  -0.001132
    16  H   -0.004397   0.000019  -0.000453  -0.000460  -0.000012   0.000604
    17  H    0.000890   0.002052  -0.000029   0.000002   0.000025  -0.000536
    18  H   -0.004781   0.001043   0.000031   0.000317  -0.000025   0.000344
    19  H   -0.017042  -0.027285   0.435914  -0.054992   0.007732  -0.000022
    20  H    0.006327  -0.035722   0.405922  -0.039418   0.001271  -0.000003
    21  H    0.004186  -0.003932  -0.041474   0.418094   0.005634  -0.000049
    22  H   -0.003461   0.002423  -0.033296   0.397870   0.000529  -0.000009
    23  H    0.000544   0.004606  -0.040429   0.404384   0.000291  -0.000000
    24  H   -0.012100   0.000657  -0.000234   0.000049   0.015214   0.429627
              13         14         15         16         17         18
     1  N   -0.109088   0.368966   0.369661   0.000008  -0.000288   0.000006
     2  C    0.493965  -0.027889  -0.028923  -0.000676   0.000883  -0.000580
     3  N   -0.072216   0.006041   0.008012   0.000715   0.007975   0.000451
     4  C   -0.043337  -0.000891   0.000824  -0.047652  -0.067832  -0.044903
     5  C   -0.003077   0.000033  -0.000342   0.419158   0.421902   0.413837
     6  C   -0.046076   0.000294   0.000754   0.003220   0.012578   0.005386
     7  C    0.007208  -0.000006  -0.000010  -0.004397   0.000890  -0.004781
     8  O   -0.000222   0.000000   0.000000   0.000019   0.002052   0.001043
     9  C    0.000011  -0.000000  -0.000000  -0.000453  -0.000029   0.000031
    10  C   -0.000000   0.000000   0.000000  -0.000460   0.000002   0.000317
    11  O    0.000430   0.000000   0.000000  -0.000012   0.000025  -0.000025
    12  C    0.542626   0.001045  -0.001132   0.000604  -0.000536   0.000344
    13  N    6.525810   0.007814   0.006122   0.000176   0.000434   0.000168
    14  H    0.007814   0.400410  -0.022938  -0.000001   0.000001  -0.000001
    15  H    0.006122  -0.022938   0.402330   0.000007   0.000132   0.000007
    16  H    0.000176  -0.000001   0.000007   0.518765  -0.019992  -0.031865
    17  H    0.000434   0.000001   0.000132  -0.019992   0.509953  -0.019858
    18  H    0.000168  -0.000001   0.000007  -0.031865  -0.019858   0.517399
    19  H    0.000002  -0.000000  -0.000000   0.000071   0.000010  -0.000131
    20  H   -0.000001   0.000000   0.000000   0.000140  -0.000048  -0.000077
    21  H    0.000000  -0.000000  -0.000000   0.000005  -0.000002  -0.000009
    22  H   -0.000000  -0.000000  -0.000000   0.000276   0.000015  -0.000044
    23  H    0.000000  -0.000000  -0.000000   0.000024  -0.000000  -0.000008
    24  H   -0.024546  -0.000089   0.000016   0.000008   0.000006   0.000002
              19         20         21         22         23         24
     1  N    0.000000   0.000000  -0.000000  -0.000000  -0.000000  -0.000009
     2  C    0.000000   0.000002   0.000003  -0.000000  -0.000000   0.005452
     3  N    0.000003   0.000003   0.000002   0.000001  -0.000000  -0.001508
     4  C   -0.000568   0.000276   0.000028  -0.000236  -0.000008   0.004953
     5  C    0.000287  -0.000411   0.000058  -0.000017   0.000001   0.000088
     6  C   -0.002100   0.003249   0.004153  -0.001291  -0.000031  -0.057659
     7  C   -0.017042   0.006327   0.004186  -0.003461   0.000544  -0.012100
     8  O   -0.027285  -0.035722  -0.003932   0.002423   0.004606   0.000657
     9  C    0.435914   0.405922  -0.041474  -0.033296  -0.040429  -0.000234
    10  C   -0.054992  -0.039418   0.418094   0.397870   0.404384   0.000049
    11  O    0.007732   0.001271   0.005634   0.000529   0.000291   0.015214
    12  C   -0.000022  -0.000003  -0.000049  -0.000009  -0.000000   0.429627
    13  N    0.000002  -0.000001   0.000000  -0.000000   0.000000  -0.024546
    14  H   -0.000000   0.000000  -0.000000  -0.000000  -0.000000  -0.000089
    15  H   -0.000000   0.000000  -0.000000  -0.000000  -0.000000   0.000016
    16  H    0.000071   0.000140   0.000005   0.000276   0.000024   0.000008
    17  H    0.000010  -0.000048  -0.000002   0.000015  -0.000000   0.000006
    18  H   -0.000131  -0.000077  -0.000009  -0.000044  -0.000008   0.000002
    19  H    0.526304  -0.028462  -0.005113   0.007076   0.001092  -0.000037
    20  H   -0.028462   0.552083   0.005142  -0.005614  -0.002618   0.000004
    21  H   -0.005113   0.005142   0.488415  -0.025190  -0.021843   0.000026
    22  H    0.007076  -0.005614  -0.025190   0.540875  -0.020482  -0.000004
    23  H    0.001092  -0.002618  -0.021843  -0.020482   0.533169  -0.000000
    24  H   -0.000037   0.000004   0.000026  -0.000004  -0.000000   0.458828
 Mulliken charges:
               1
     1  N   -0.501185
     2  C    0.411496
     3  N   -0.300936
     4  C    0.182263
     5  C   -0.468098
     6  C   -0.099963
     7  C    0.382304
     8  O   -0.290231
     9  C   -0.107130
    10  C   -0.429847
    11  O   -0.379226
    12  C   -0.053486
    13  N   -0.286204
    14  H    0.267212
    15  H    0.265480
    16  H    0.162308
    17  H    0.151728
    18  H    0.163291
    19  H    0.157260
    20  H    0.137955
    21  H    0.171867
    22  H    0.140579
    23  H    0.141308
    24  H    0.181257
 Sum of Mulliken charges =  -0.00000
 Mulliken charges with hydrogens summed into heavy atoms:
               1
     1  N    0.031507
     2  C    0.411496
     3  N   -0.300936
     4  C    0.182263
     5  C    0.009229
     6  C   -0.099963
     7  C    0.382304
     8  O   -0.290231
     9  C    0.188085
    10  C    0.023906
    11  O   -0.379226
    12  C    0.127770
    13  N   -0.286204
 Electronic spatial extent (au):  <R**2>=           2896.7179
 Charge=             -0.0000 electrons
 Dipole moment (field-independent basis, Debye):
    X=              0.4814    Y=              2.3474    Z=              0.4312  Tot=              2.4347
 Quadrupole moment (field-independent basis, Debye-Ang):
   XX=            -56.4445   YY=            -81.1004   ZZ=            -77.1080
   XY=             -3.2439   XZ=              2.4085   YZ=             -0.5937
 Traceless Quadrupole moment (field-independent basis, Debye-Ang):
   XX=             15.1065   YY=             -9.5494   ZZ=             -5.5570
   XY=             -3.2439   XZ=              2.4085   YZ=             -0.5937
 Octapole moment (field-independent basis, Debye-Ang**2):
  XXX=             52.2402  YYY=             10.1046  ZZZ=             -2.8090  XYY=              2.0100
  XXY=             13.5763  XXZ=             10.5949  XZZ=             -7.3506  YZZ=             -0.1868
  YYZ=              0.6645  XYZ=              1.9224
 Hexadecapole moment (field-independent basis, Debye-Ang**3):
 XXXX=          -2248.4368 YYYY=           -698.2960 ZZZZ=           -164.1283 XXXY=              3.0510
 XXXZ=             89.8612 YYYX=             -4.9504 YYYZ=             -2.4480 ZZZX=              8.9103
 ZZZY=              0.8110 XXYY=           -626.7397 XXZZ=           -535.3017 YYZZ=           -141.9047
 XXYZ=             -2.5655 YYXZ=              2.2918 ZZXY=              0.1984
 N-N= 7.910743772032D+02 E-N=-3.043422146083D+03  KE= 6.230049852964D+02
 Unable to Open any file for archive entry.
 1\1\GINC-COMPUTE-0-16\SP\RM062X\def2TZVP\C8H11N3O2\ZTAN64\16-Aug-2024\
 0\\# M062X/def2tzvp int=(grid=ultrafine) nmr=giao guess=read geom=chec
 k\\pyrmd1.xyz\\0,1\N,0,-4.2379797068,1.5352689907,0.1596183435\C,0,-2.
 9440274125,1.1489127158,0.07736994\N,0,-2.7175640578,-0.1331066361,-0.
 2706107061\C,0,-1.4475556236,-0.5332131709,-0.3780708777\C,0,-1.267850
 7588,-1.9744068381,-0.768543153\C,0,-0.3863100903,0.3712863678,-0.1295
 086157\C,0,1.0659893865,0.1044416369,-0.1990223199\O,0,1.3674913922,-1
 .1641528345,-0.5651226834\C,0,2.77570929,-1.4883849675,-0.6308404046\C
 ,0,3.3262400674,-1.8288142054,0.7439690216\O,0,1.9174764082,0.94208590
 98,0.0446366878\C,0,-0.758573679,1.6761217086,0.2327710216\N,0,-2.0124
 115165,2.090859295,0.3436360046\H,0,-4.4487058465,2.4585196024,0.49872
 74304\H,0,-4.9611964931,0.8445468813,0.0533411144\H,0,-0.6906558505,-2
 .5152968761,-0.0147049845\H,0,-2.2520033693,-2.4289591203,-0.883281415
 1\H,0,-0.7066298001,-2.0582616925,-1.7025181231\H,0,3.3107255098,-0.64
 47965264,-1.0719695589\H,0,2.8227186374,-2.3448989343,-1.3068964337\H,
 0,3.2818735171,-0.9549082763,1.3970941855\H,0,2.7558278044,-2.64379418
 72,1.1989018737\H,0,4.3710103719,-2.1446928369,0.6593512591\H,0,0.0256
 018197,2.3999439944,0.4382723936\\Version=ES64L-G16RevC.01\State=1-A\H
 F=-626.2017704\RMSD=1.884e-09\Dipole=-0.5374211,-0.790653,-0.0599914\Q
 uadrupole=7.0702548,-3.0499126,-4.0203422,-7.8460111,-2.4917771,0.7288
 905\PG=C01 [X(C8H11N3O2)]\\@
 The archive entry for this job was punched.


 Other things may change us, but we start and end with family.
 -- Anthony Brandt
 Job cpu time:       0 days  0 hours 39 minutes  1.1 seconds.
 Elapsed time:       0 days  0 hours  2 minutes 35.8 seconds.
 File lengths (MBytes):  RWF=    126 Int=      0 D2E=      0 Chk=     21 Scr=      1
 Normal termination of Gaussian 16 at Fri Aug 16 14:08:14 2024.
 
 
-----Kestrel cluster job statistics-----
Time info:

real	15m32.244s
user	241m16.498s
sys	0m25.894s
 
Disk space usage:
21M	/scratch/363662.kestrel.chem.wisc.edu
