 Entering Gaussian System, Link 0=/uufs/chpc.utah.edu/sys/installdir/gaussian16/C01/AVX2/g16/g16
 Input=an1_conf-1.com
 Output=an1_conf-1.log
 Initial command:
 /uufs/chpc.utah.edu/sys/installdir/gaussian16/C01/AVX2/g16/l1.exe "/scratch/local/u1262707/7933477/notchpeak.peaks/Gau-4180923.inp" -scrdir="/scratch/local/u1262707/7933477/notchpeak.peaks/"
 Entering Link 1 = /uufs/chpc.utah.edu/sys/installdir/gaussian16/C01/AVX2/g16/l1.exe PID=   4180961.
  
 Copyright (c) 1988-2019, Gaussian, Inc.  All Rights Reserved.
  
 This is part of the Gaussian(R) 16 program.  It is based on
 the Gaussian(R) 09 system (copyright 2009, Gaussian, Inc.),
 the Gaussian(R) 03 system (copyright 2003, Gaussian, Inc.),
 the Gaussian(R) 98 system (copyright 1998, Gaussian, Inc.),
 the Gaussian(R) 94 system (copyright 1995, Gaussian, Inc.),
 the Gaussian 92(TM) system (copyright 1992, Gaussian, Inc.),
 the Gaussian 90(TM) system (copyright 1990, Gaussian, Inc.),
 the Gaussian 88(TM) system (copyright 1988, Gaussian, Inc.),
 the Gaussian 86(TM) system (copyright 1986, Carnegie Mellon
 University), and the Gaussian 82(TM) system (copyright 1983,
 Carnegie Mellon University). Gaussian is a federally registered
 trademark of Gaussian, Inc.
  
 This software contains proprietary and confidential information,
 including trade secrets, belonging to Gaussian, Inc.
  
 This software is provided under written license and may be
 used, copied, transmitted, or stored only in accord with that
 written license.
  
 The following legend is applicable only to US Government
 contracts under FAR:
  
                    RESTRICTED RIGHTS LEGEND
  
 Use, reproduction and disclosure by the US Government is
 subject to restrictions as set forth in subparagraphs (a)
 and (c) of the Commercial Computer Software - Restricted
 Rights clause in FAR 52.227-19.
  
 Gaussian, Inc.
 340 Quinnipiac St., Bldg. 40, Wallingford CT 06492
  
  
 ---------------------------------------------------------------
 Warning -- This program may not be used in any manner that
 competes with the business of Gaussian, Inc. or will provide
 assistance to any competitor of Gaussian, Inc.  The licensee
 of this program is prohibited from giving any competitor of
 Gaussian, Inc. access to this program.  By using this program,
 the user acknowledges that Gaussian, Inc. is engaged in the
 business of creating and licensing software in the field of
 computational chemistry and represents and warrants to the
 licensee that it is not a competitor of Gaussian, Inc. and that
 it will not use this program in any manner prohibited above.
 ---------------------------------------------------------------
  

 Cite this work as:
 Gaussian 16, Revision C.01,
 M. J. Frisch, G. W. Trucks, H. B. Schlegel, G. E. Scuseria, 
 M. A. Robb, J. R. Cheeseman, G. Scalmani, V. Barone, 
 G. A. Petersson, H. Nakatsuji, X. Li, M. Caricato, A. V. Marenich, 
 J. Bloino, B. G. Janesko, R. Gomperts, B. Mennucci, H. P. Hratchian, 
 J. V. Ortiz, A. F. Izmaylov, J. L. Sonnenberg, D. Williams-Young, 
 F. Ding, F. Lipparini, F. Egidi, J. Goings, B. Peng, A. Petrone, 
 T. Henderson, D. Ranasinghe, V. G. Zakrzewski, J. Gao, N. Rega, 
 G. Zheng, W. Liang, M. Hada, M. Ehara, K. Toyota, R. Fukuda, 
 J. Hasegawa, M. Ishida, T. Nakajima, Y. Honda, O. Kitao, H. Nakai, 
 T. Vreven, K. Throssell, J. A. Montgomery, Jr., J. E. Peralta, 
 F. Ogliaro, M. J. Bearpark, J. J. Heyd, E. N. Brothers, K. N. Kudin, 
 V. N. Staroverov, T. A. Keith, R. Kobayashi, J. Normand, 
 K. Raghavachari, A. P. Rendell, J. C. Burant, S. S. Iyengar, 
 J. Tomasi, M. Cossi, J. M. Millam, M. Klene, C. Adamo, R. Cammi, 
 J. W. Ochterski, R. L. Martin, K. Morokuma, O. Farkas, 
 J. B. Foresman, and D. J. Fox, Gaussian, Inc., Wallingford CT, 2019.
 
 ******************************************
 Gaussian 16:  ES64L-G16RevC.01  3-Jul-2019
                 8-Jun-2023 
 ******************************************
 %NProcShared=32
 Will use up to   32 processors via shared memory.
 %mem=16GB
 %chk=an1_conf-1.chk
 ----------------------------------------------------------------------
 # B3LYP/6-31G(d,p) symmetry=loose empiricaldispersion=GD3BJ int=(grid=
 ultrafine) opt freq=noraman
 ----------------------------------------------------------------------
 1/18=20,19=15,26=4,38=1/1,3;
 2/9=110,12=2,17=4,18=3,40=1/2;
 3/5=1,6=6,7=101,11=2,25=1,30=1,71=1,74=-5,75=-5,124=41/1,2,3;
 4//1;
 5/5=2,38=5/2;
 6/7=2,8=2,9=2,10=2,28=1/1;
 7//1,2,3,16;
 1/18=20,19=15,26=4/3(2);
 2/9=110/2;
 99//99;
 2/9=110/2;
 3/5=1,6=6,7=101,11=2,25=1,30=1,71=1,74=-5,75=-5,124=41/1,2,3;
 4/5=5,16=3,69=1/1;
 5/5=2,38=5/2;
 7//1,2,3,16;
 1/18=20,19=15,26=4/3(-5);
 2/9=110/2;
 6/7=2,8=2,9=2,10=2,19=2,28=1/1;
 99/9=1/99;
 -------
 an1.xyz
 -------
 Symbolic Z-matrix:
 Charge =  0 Multiplicity = 1
 N                     2.1706    0.3793   -0.6108 
 C                     0.849     0.1615   -0.2484 
 C                     0.0433   -0.6474   -1.0431 
 C                    -1.2829   -0.8711   -0.678 
 C                    -1.7874   -0.2812    0.4806 
 C                    -0.9781    0.5302    1.2754 
 C                     0.3476    0.7517    0.9073 
 H                     2.5555   -0.1761   -1.3583 
 H                     2.7758    0.8362    0.0528 
 H                     0.4369   -1.0997   -1.9402 
 H                    -1.9156   -1.4969   -1.2902 
 H                    -2.8159   -0.4532    0.7645 
 H                    -1.3756    0.9856    2.1705 
 H                     0.9766    1.381     1.5179 
 

 GradGradGradGradGradGradGradGradGradGradGradGradGradGradGradGradGradGrad
 Berny optimization.
 Initialization pass.
                           ----------------------------
                           !    Initial Parameters    !
                           ! (Angstroms and Degrees)  !
 --------------------------                            --------------------------
 ! Name  Definition              Value          Derivative Info.                !
 --------------------------------------------------------------------------------
 ! R1    R(1,2)                  1.3876         estimate D2E/DX2                !
 ! R2    R(1,8)                  1.0077         estimate D2E/DX2                !
 ! R3    R(1,9)                  1.0077         estimate D2E/DX2                !
 ! R4    R(2,3)                  1.391          estimate D2E/DX2                !
 ! R5    R(2,7)                  1.3912         estimate D2E/DX2                !
 ! R6    R(3,4)                  1.3936         estimate D2E/DX2                !
 ! R7    R(3,10)                 1.079          estimate D2E/DX2                !
 ! R8    R(4,5)                  1.3946         estimate D2E/DX2                !
 ! R9    R(4,11)                 1.0801         estimate D2E/DX2                !
 ! R10   R(5,6)                  1.3946         estimate D2E/DX2                !
 ! R11   R(5,12)                 1.0807         estimate D2E/DX2                !
 ! R12   R(6,7)                  1.3936         estimate D2E/DX2                !
 ! R13   R(6,13)                 1.0801         estimate D2E/DX2                !
 ! R14   R(7,14)                 1.0791         estimate D2E/DX2                !
 ! A1    A(2,1,8)              118.1017         estimate D2E/DX2                !
 ! A2    A(2,1,9)              118.1129         estimate D2E/DX2                !
 ! A3    A(8,1,9)              120.5994         estimate D2E/DX2                !
 ! A4    A(1,2,3)              119.5858         estimate D2E/DX2                !
 ! A5    A(1,2,7)              119.5807         estimate D2E/DX2                !
 ! A6    A(3,2,7)              120.8332         estimate D2E/DX2                !
 ! A7    A(2,3,4)              119.6605         estimate D2E/DX2                !
 ! A8    A(2,3,10)             120.4941         estimate D2E/DX2                !
 ! A9    A(4,3,10)             119.8452         estimate D2E/DX2                !
 ! A10   A(3,4,5)              119.6046         estimate D2E/DX2                !
 ! A11   A(3,4,11)             120.128          estimate D2E/DX2                !
 ! A12   A(5,4,11)             120.2673         estimate D2E/DX2                !
 ! A13   A(4,5,6)              120.6393         estimate D2E/DX2                !
 ! A14   A(4,5,12)             119.6824         estimate D2E/DX2                !
 ! A15   A(6,5,12)             119.6782         estimate D2E/DX2                !
 ! A16   A(5,6,7)              119.6018         estimate D2E/DX2                !
 ! A17   A(5,6,13)             120.2668         estimate D2E/DX2                !
 ! A18   A(7,6,13)             120.1314         estimate D2E/DX2                !
 ! A19   A(2,7,6)              119.6606         estimate D2E/DX2                !
 ! A20   A(2,7,14)             120.4895         estimate D2E/DX2                !
 ! A21   A(6,7,14)             119.8497         estimate D2E/DX2                !
 ! D1    D(8,1,2,3)             -9.9191         estimate D2E/DX2                !
 ! D2    D(8,1,2,7)            169.8914         estimate D2E/DX2                !
 ! D3    D(9,1,2,3)           -169.8911         estimate D2E/DX2                !
 ! D4    D(9,1,2,7)              9.9194         estimate D2E/DX2                !
 ! D5    D(1,2,3,4)            179.7692         estimate D2E/DX2                !
 ! D6    D(1,2,3,10)            -0.4038         estimate D2E/DX2                !
 ! D7    D(7,2,3,4)             -0.0388         estimate D2E/DX2                !
 ! D8    D(7,2,3,10)           179.7881         estimate D2E/DX2                !
 ! D9    D(1,2,7,6)           -179.7706         estimate D2E/DX2                !
 ! D10   D(1,2,7,14)             0.4042         estimate D2E/DX2                !
 ! D11   D(3,2,7,6)              0.0374         estimate D2E/DX2                !
 ! D12   D(3,2,7,14)          -179.7878         estimate D2E/DX2                !
 ! D13   D(2,3,4,5)             -0.0046         estimate D2E/DX2                !
 ! D14   D(2,3,4,11)           179.9235         estimate D2E/DX2                !
 ! D15   D(10,3,4,5)          -179.8326         estimate D2E/DX2                !
 ! D16   D(10,3,4,11)            0.0954         estimate D2E/DX2                !
 ! D17   D(3,4,5,6)              0.0493         estimate D2E/DX2                !
 ! D18   D(3,4,5,12)           179.9519         estimate D2E/DX2                !
 ! D19   D(11,4,5,6)          -179.8786         estimate D2E/DX2                !
 ! D20   D(11,4,5,12)            0.024          estimate D2E/DX2                !
 ! D21   D(4,5,6,7)             -0.0507         estimate D2E/DX2                !
 ! D22   D(4,5,6,13)           179.8828         estimate D2E/DX2                !
 ! D23   D(12,5,6,7)          -179.9533         estimate D2E/DX2                !
 ! D24   D(12,5,6,13)           -0.0198         estimate D2E/DX2                !
 ! D25   D(5,6,7,2)              0.0073         estimate D2E/DX2                !
 ! D26   D(5,6,7,14)           179.8337         estimate D2E/DX2                !
 ! D27   D(13,6,7,2)          -179.9263         estimate D2E/DX2                !
 ! D28   D(13,6,7,14)           -0.1            estimate D2E/DX2                !
 --------------------------------------------------------------------------------
 Trust Radius=3.00D-01 FncErr=1.00D-07 GrdErr=1.00D-06 EigMax=2.50D+02 EigMin=1.00D-04
 Number of steps in this run=     73 maximum allowed number of steps=    100.
 GradGradGradGradGradGradGradGradGradGradGradGradGradGradGradGradGradGrad

                          Input orientation:                          
 ---------------------------------------------------------------------
 Center     Atomic      Atomic             Coordinates (Angstroms)
 Number     Number       Type             X           Y           Z
 ---------------------------------------------------------------------
      1          7           0        2.170600    0.379300   -0.610800
      2          6           0        0.849000    0.161500   -0.248400
      3          6           0        0.043300   -0.647400   -1.043100
      4          6           0       -1.282900   -0.871100   -0.678000
      5          6           0       -1.787400   -0.281200    0.480600
      6          6           0       -0.978100    0.530200    1.275400
      7          6           0        0.347600    0.751700    0.907300
      8          1           0        2.555500   -0.176100   -1.358300
      9          1           0        2.775800    0.836200    0.052800
     10          1           0        0.436900   -1.099700   -1.940200
     11          1           0       -1.915600   -1.496900   -1.290200
     12          1           0       -2.815900   -0.453200    0.764500
     13          1           0       -1.375600    0.985600    2.170500
     14          1           0        0.976600    1.381000    1.517900
 ---------------------------------------------------------------------
                    Distance matrix (angstroms):
                    1          2          3          4          5
     1  N    0.000000
     2  C    1.387587   0.000000
     3  C    2.401333   1.391050   0.000000
     4  C    3.673510   2.407450   1.393609   0.000000
     5  C    4.158507   2.770926   2.409819   1.394581   0.000000
     6  C    3.673531   2.407530   2.793822   2.423286   1.394648
     7  C    2.401383   1.391180   2.419533   2.793776   2.409809
     8  H    1.007657   2.063491   2.575388   3.959690   4.717349
     9  H    1.007665   2.063613   3.296759   4.463405   4.717456
    10  H    2.638269   2.150032   1.079020   2.145488   3.387879
    11  H    4.547388   3.388016   2.149418   1.080150   2.151765
    12  H    5.239245   3.851664   3.388238   2.146051   1.080738
    13  H    4.547391   3.388077   3.873912   3.401453   2.151772
    14  H    2.638257   2.150181   3.397672   3.872889   3.388008
                    6          7          8          9         10
     6  C    0.000000
     7  C    1.393571   0.000000
     8  H    4.463358   3.296753   0.000000
     9  H    3.959817   2.575552   1.750568   0.000000
    10  H    3.872839   3.397633   2.383298   3.631833   0.000000
    11  H    3.401521   3.873923   4.662605   5.408904   2.472756
    12  H    2.146067   3.388201   5.782301   5.782402   4.279494
    13  H    1.080092   2.149372   5.408838   4.662735   4.952927
    14  H    2.145581   1.079116   3.631806   2.383369   4.289942
                   11         12         13         14
    11  H    0.000000
    12  H    2.474195   0.000000
    13  H    4.293117   2.474156   0.000000
    14  H    4.953035   4.279598   2.472867   0.000000
 Stoichiometry    C6H7N
 Framework group  CS[SG(C2HN),X(C4H6)]
 Deg. of freedom    20
 Full point group                 CS      NOp   2
 Largest Abelian subgroup         CS      NOp   2
 Largest concise Abelian subgroup CS      NOp   2
                         Standard orientation:                         
 ---------------------------------------------------------------------
 Center     Atomic      Atomic             Coordinates (Angstroms)
 Number     Number       Type             X           Y           Z
 ---------------------------------------------------------------------
      1          7           0        0.000000    2.303297   -0.000000
      2          6           0       -0.005971    0.915723   -0.000000
      3          6           0       -0.006930    0.228979   -1.209753
      4          6           0       -0.008046   -1.164628   -1.211631
      5          6           0       -0.008093   -1.855202    0.000000
      6          6           0       -0.008046   -1.164628    1.211631
      7          6           0       -0.006930    0.228979    1.209753
      8          1           0        0.156600    2.777314   -0.875281
      9          1           0        0.156600    2.777314    0.875281
     10          1           0       -0.009624    0.767225   -2.144936
     11          1           0       -0.010043   -1.705531   -2.146588
     12          1           0       -0.009745   -2.935939    0.000000
     13          1           0       -0.010043   -1.705531    2.146588
     14          1           0       -0.009624    0.767225    2.144936
 ---------------------------------------------------------------------
 Rotational constants (GHZ):           5.5838046           2.6487986           1.7971390
 Standard basis: 6-31G(d,p) (6D, 7F)
 There are    82 symmetry adapted cartesian basis functions of A'  symmetry.
 There are    58 symmetry adapted cartesian basis functions of A"  symmetry.
 There are    82 symmetry adapted basis functions of A'  symmetry.
 There are    58 symmetry adapted basis functions of A"  symmetry.
   140 basis functions,   245 primitive gaussians,   140 cartesian basis functions
    25 alpha electrons       25 beta electrons
       nuclear repulsion energy       272.3932226608 Hartrees.
 NAtoms=   14 NActive=   14 NUniq=    9 SFac= 2.42D+00 NAtFMM=   60 NAOKFM=F Big=F
 Integral buffers will be    131072 words long.
 Raffenetti 2 integral format.
 Two-electron integral symmetry is turned on.
 Nuclear repulsion after empirical dispersion term =      272.3703315443 Hartrees.
 One-electron integrals computed using PRISM.
 NBasis=   140 RedAO= T EigKep=  4.55D-04  NBF=    82    58
 NBsUse=   140 1.00D-06 EigRej= -1.00D+00 NBFU=    82    58
 ExpMin= 1.61D-01 ExpMax= 4.17D+03 ExpMxC= 6.27D+02 IAcc=3 IRadAn=         5 AccDes= 0.00D+00
 Harris functional with IExCor=  402 and IRadAn=       5 diagonalized for initial guess.
 HarFok:  IExCor=  402 AccDes= 0.00D+00 IRadAn=         5 IDoV= 1 UseB2=F ITyADJ=14
 ICtDFT=  3500011 ScaDFX=  1.000000  1.000000  1.000000  1.000000
 FoFCou: FMM=F IPFlag=           0 FMFlag=      100000 FMFlg1=           0
         NFxFlg=           0 DoJE=T BraDBF=F KetDBF=T FulRan=T
         wScrn=  0.000000 ICntrl=       500 IOpCl=  0 I1Cent=   200000004 NGrid=           0
         NMat0=    1 NMatS0=      1 NMatT0=    0 NMatD0=    1 NMtDS0=    0 NMtDT0=    0
 Petite list used in FoFCou.
 Initial guess orbital symmetries:
       Occupied  (A') (A') (A") (A') (A") (A') (A') (A') (A') (A")
                 (A') (A") (A') (A') (A") (A') (A") (A') (A") (A')
                 (A') (A") (A') (A") (A')
       Virtual   (A") (A') (A') (A') (A') (A") (A') (A") (A') (A")
                 (A') (A") (A') (A") (A') (A") (A') (A') (A") (A')
                 (A') (A") (A') (A') (A") (A') (A") (A") (A') (A')
                 (A') (A') (A') (A") (A') (A") (A") (A') (A') (A")
                 (A') (A") (A') (A") (A') (A") (A') (A") (A') (A")
                 (A') (A') (A") (A') (A") (A") (A') (A") (A") (A')
                 (A') (A') (A') (A") (A') (A") (A') (A") (A') (A')
                 (A") (A') (A") (A') (A") (A') (A") (A') (A") (A')
                 (A') (A") (A") (A') (A') (A') (A") (A") (A') (A")
                 (A") (A') (A") (A') (A") (A') (A') (A") (A') (A')
                 (A') (A") (A") (A') (A') (A") (A") (A') (A') (A')
                 (A") (A') (A") (A') (A')
 The electronic state of the initial guess is 1-A'.
 Requested convergence on RMS density matrix=1.00D-08 within 128 cycles.
 Requested convergence on MAX density matrix=1.00D-06.
 Requested convergence on             energy=1.00D-06.
 No special actions if energy rises.
 Integral accuracy reduced to 1.0D-05 until final iterations.
 Initial convergence to 1.0D-05 achieved.  Increase integral accuracy.
 SCF Done:  E(RB3LYP) =  -287.636598475     A.U. after   13 cycles
            NFock= 13  Conv=0.26D-08     -V/T= 2.0095

 **********************************************************************

            Population analysis using the SCF Density.

 **********************************************************************

 Orbital symmetries:
       Occupied  (A') (A') (A') (A") (A") (A') (A') (A') (A') (A")
                 (A') (A") (A') (A') (A") (A') (A') (A") (A") (A')
                 (A') (A") (A') (A") (A')
       Virtual   (A") (A') (A') (A') (A") (A') (A") (A') (A') (A")
                 (A') (A") (A') (A") (A') (A") (A') (A') (A') (A")
                 (A') (A') (A') (A") (A") (A') (A") (A") (A') (A')
                 (A') (A') (A") (A') (A') (A") (A") (A') (A') (A")
                 (A') (A") (A') (A") (A') (A") (A') (A") (A') (A")
                 (A') (A') (A") (A") (A') (A") (A') (A") (A") (A')
                 (A') (A') (A') (A') (A") (A") (A') (A") (A') (A')
                 (A") (A") (A') (A') (A") (A') (A") (A') (A') (A")
                 (A') (A") (A") (A') (A') (A') (A") (A") (A') (A")
                 (A") (A') (A") (A') (A") (A') (A') (A") (A') (A')
                 (A') (A") (A") (A') (A') (A") (A") (A') (A') (A')
                 (A") (A') (A") (A') (A')
 The electronic state is 1-A'.
 Alpha  occ. eigenvalues --  -14.33404 -10.21860 -10.17819 -10.17818 -10.17153
 Alpha  occ. eigenvalues --  -10.17153 -10.16604  -0.91104  -0.82461  -0.73510
 Alpha  occ. eigenvalues --   -0.71429  -0.60639  -0.58780  -0.51661  -0.51043
 Alpha  occ. eigenvalues --   -0.46809  -0.42220  -0.42131  -0.40929  -0.37393
 Alpha  occ. eigenvalues --   -0.34325  -0.33615  -0.29795  -0.23933  -0.19008
 Alpha virt. eigenvalues --    0.01003   0.03226   0.08198   0.10748   0.12465
 Alpha virt. eigenvalues --    0.16666   0.17111   0.18060   0.20020   0.20096
 Alpha virt. eigenvalues --    0.27133   0.31568   0.32879   0.35462   0.36088
 Alpha virt. eigenvalues --    0.47690   0.53497   0.54288   0.55734   0.57850
 Alpha virt. eigenvalues --    0.59807   0.60495   0.60823   0.60914   0.62431
 Alpha virt. eigenvalues --    0.62896   0.63565   0.67284   0.67913   0.68440
 Alpha virt. eigenvalues --    0.76141   0.77747   0.82623   0.83058   0.83964
 Alpha virt. eigenvalues --    0.84976   0.86074   0.87692   0.91819   0.95718
 Alpha virt. eigenvalues --    0.98008   1.00114   1.03132   1.10345   1.11480
 Alpha virt. eigenvalues --    1.17332   1.19210   1.25373   1.29441   1.31814
 Alpha virt. eigenvalues --    1.35778   1.38003   1.41349   1.43208   1.43752
 Alpha virt. eigenvalues --    1.44698   1.50481   1.67456   1.76757   1.78279
 Alpha virt. eigenvalues --    1.82313   1.88655   1.89321   1.93363   1.93872
 Alpha virt. eigenvalues --    1.97471   1.97930   1.98490   2.01519   2.02497
 Alpha virt. eigenvalues --    2.07249   2.12291   2.12791   2.24365   2.29317
 Alpha virt. eigenvalues --    2.31585   2.37157   2.38399   2.40313   2.40358
 Alpha virt. eigenvalues --    2.42069   2.42504   2.45862   2.45994   2.49587
 Alpha virt. eigenvalues --    2.53961   2.57321   2.58895   2.59290   2.61812
 Alpha virt. eigenvalues --    2.68426   2.72076   2.73982   2.77456   2.82861
 Alpha virt. eigenvalues --    2.83800   2.96636   3.05190   3.07084   3.20579
 Alpha virt. eigenvalues --    3.26301   3.27047   3.33003   3.36625   3.48800
 Alpha virt. eigenvalues --    3.51327   3.63494   3.93956   4.04703   4.14613
 Alpha virt. eigenvalues --    4.17268   4.18474   4.45068   4.47708   4.86166
          Condensed to atoms (all electrons):
               1          2          3          4          5          6
     1  N    6.845227   0.293602  -0.073063   0.005280   0.000668   0.005280
     2  C    0.293602   4.484149   0.543235  -0.012085  -0.038524  -0.012085
     3  C   -0.073063   0.543235   4.934368   0.541256  -0.048077  -0.043099
     4  C    0.005280  -0.012085   0.541256   4.783351   0.552476  -0.026380
     5  C    0.000668  -0.038524  -0.048077   0.552476   4.833811   0.552476
     6  C    0.005280  -0.012085  -0.043099  -0.026380   0.552476   4.783351
     7  C   -0.073063   0.543235  -0.058264  -0.043099  -0.048077   0.541256
     8  H    0.349783  -0.022448  -0.009227  -0.000068   0.000001  -0.000172
     9  H    0.349783  -0.022448   0.005856  -0.000172   0.000001  -0.000068
    10  H   -0.010141  -0.045511   0.359098  -0.039487   0.005121   0.000428
    11  H   -0.000135   0.003810  -0.038752   0.364536  -0.041228   0.004691
    12  H    0.000003   0.000821   0.005344  -0.043616   0.367742  -0.043616
    13  H   -0.000135   0.003810   0.001005   0.004691  -0.041228   0.364536
    14  H   -0.010141  -0.045511   0.005858   0.000428   0.005121  -0.039487
               7          8          9         10         11         12
     1  N   -0.073063   0.349783   0.349783  -0.010141  -0.000135   0.000003
     2  C    0.543235  -0.022448  -0.022448  -0.045511   0.003810   0.000821
     3  C   -0.058264  -0.009227   0.005856   0.359098  -0.038752   0.005344
     4  C   -0.043099  -0.000068  -0.000172  -0.039487   0.364536  -0.043616
     5  C   -0.048077   0.000001   0.000001   0.005121  -0.041228   0.367742
     6  C    0.541256  -0.000172  -0.000068   0.000428   0.004691  -0.043616
     7  C    4.934368   0.005856  -0.009227   0.005858   0.001005   0.005344
     8  H    0.005856   0.439375  -0.029699   0.006225  -0.000007  -0.000001
     9  H   -0.009227  -0.029699   0.439375  -0.000031   0.000004  -0.000001
    10  H    0.005858   0.006225  -0.000031   0.658528  -0.006544  -0.000208
    11  H    0.001005  -0.000007   0.000004  -0.006544   0.640115  -0.006569
    12  H    0.005344  -0.000001  -0.000001  -0.000208  -0.006569   0.651972
    13  H   -0.038752   0.000004  -0.000007   0.000017  -0.000203  -0.006569
    14  H    0.359098  -0.000031   0.006225  -0.000188   0.000017  -0.000208
              13         14
     1  N   -0.000135  -0.010141
     2  C    0.003810  -0.045511
     3  C    0.001005   0.005858
     4  C    0.004691   0.000428
     5  C   -0.041228   0.005121
     6  C    0.364536  -0.039487
     7  C   -0.038752   0.359098
     8  H    0.000004  -0.000031
     9  H   -0.000007   0.006225
    10  H    0.000017  -0.000188
    11  H   -0.000203   0.000017
    12  H   -0.006569  -0.000208
    13  H    0.640115  -0.006544
    14  H   -0.006544   0.658528
 Mulliken charges:
               1
     1  N   -0.682946
     2  C    0.325950
     3  C   -0.125538
     4  C   -0.087111
     5  C   -0.100283
     6  C   -0.087111
     7  C   -0.125538
     8  H    0.260410
     9  H    0.260410
    10  H    0.066834
    11  H    0.079263
    12  H    0.069563
    13  H    0.079263
    14  H    0.066834
 Sum of Mulliken charges =  -0.00000
 Mulliken charges with hydrogens summed into heavy atoms:
               1
     1  N   -0.162126
     2  C    0.325950
     3  C   -0.058704
     4  C   -0.007849
     5  C   -0.030720
     6  C   -0.007849
     7  C   -0.058704
 Electronic spatial extent (au):  <R**2>=            677.9028
 Charge=              0.0000 electrons
 Dipole moment (field-independent basis, Debye):
    X=              0.5029    Y=              1.6681    Z=             -0.0000  Tot=              1.7423
 Quadrupole moment (field-independent basis, Debye-Ang):
   XX=            -45.3455   YY=            -33.3660   ZZ=            -36.0242
   XY=              1.5862   XZ=              0.0000   YZ=              0.0000
 Traceless Quadrupole moment (field-independent basis, Debye-Ang):
   XX=             -7.1003   YY=              4.8792   ZZ=              2.2210
   XY=              1.5862   XZ=              0.0000   YZ=              0.0000
 Octapole moment (field-independent basis, Debye-Ang**2):
  XXX=              0.4528  YYY=             22.4002  ZZZ=              0.0000  XYY=              4.6378
  XXY=              2.2399  XXZ=             -0.0000  XZZ=              0.3852  YZZ=              6.2084
  YYZ=              0.0000  XYZ=              0.0000
 Hexadecapole moment (field-independent basis, Debye-Ang**3):
 XXXX=            -46.2431 YYYY=           -467.4541 ZZZZ=           -282.9507 XXXY=             -1.5419
 XXXZ=              0.0000 YYYX=             11.5165 YYYZ=              0.0000 ZZZX=              0.0000
 ZZZY=              0.0000 XXYY=           -110.5895 XXZZ=            -63.7583 YYZZ=           -117.3073
 XXYZ=              0.0000 YYXZ=              0.0000 ZZXY=              0.5771
 N-N= 2.723703315443D+02 E-N=-1.211775119258D+03  KE= 2.849213786325D+02
 Symmetry A'   KE= 2.021814022786D+02
 Symmetry A"   KE= 8.273997635388D+01
 Calling FoFJK, ICntrl=      2127 FMM=F ISym2X=1 I1Cent= 0 IOpClX= 0 NMat=1 NMatS=1 NMatT=0.
 ***** Axes restored to original set *****
 -------------------------------------------------------------------
 Center     Atomic                   Forces (Hartrees/Bohr)
 Number     Number              X              Y              Z
 -------------------------------------------------------------------
      1        7          -0.006411458    0.003786285   -0.001715592
      2        6           0.023269703    0.001188421   -0.004483830
      3        6          -0.015618653   -0.005275958   -0.000582203
      4        6           0.006588560    0.005613679    0.004031382
      5        6          -0.007021927   -0.001166399    0.001932518
      6        6           0.004745769   -0.002857414   -0.007777366
      7        6          -0.014238716    0.001067450    0.008260540
      8        1           0.004351557    0.002285376    0.004718488
      9        1           0.002924427   -0.004274974   -0.004426674
     10        1           0.003496552   -0.001702457   -0.003996134
     11        1          -0.001971095   -0.002274172   -0.002228972
     12        1          -0.003432907   -0.000654177    0.001004994
     13        1          -0.001125816    0.001611477    0.003187643
     14        1           0.004444003    0.002652864    0.002075205
 -------------------------------------------------------------------
 Cartesian Forces:  Max     0.023269703 RMS     0.006169577

 GradGradGradGradGradGradGradGradGradGradGradGradGradGradGradGradGradGrad
 Berny optimization.
 FormGI is forming the generalized inverse of G from B-inverse, IUseBI=4.
 Internal  Forces:  Max     0.012221531 RMS     0.003533094
 Search for a local minimum.
 Step number   1 out of a maximum of   73
 All quantities printed in internal units (Hartrees-Bohrs-Radians)
 Mixed Optimization -- RFO/linear search
 Second derivative matrix not updated -- first step.
 ITU=  0
     Eigenvalues ---    0.01856   0.02098   0.02160   0.02163   0.02166
     Eigenvalues ---    0.02168   0.02177   0.02188   0.02191   0.02203
     Eigenvalues ---    0.02332   0.16000   0.16000   0.16000   0.16000
     Eigenvalues ---    0.16000   0.16000   0.16000   0.22000   0.22000
     Eigenvalues ---    0.23492   0.25000   0.35905   0.35976   0.35976
     Eigenvalues ---    0.36113   0.36113   0.42383   0.42534   0.46370
     Eigenvalues ---    0.46370   0.46558   0.46696   0.46845   0.47060
     Eigenvalues ---    0.47741
 RFO step:  Lambda=-2.93950480D-03 EMin= 1.85598309D-02
 Linear search not attempted -- first point.
 Iteration  1 RMS(Cart)=  0.01965187 RMS(Int)=  0.00039474
 Iteration  2 RMS(Cart)=  0.00030663 RMS(Int)=  0.00022923
 Iteration  3 RMS(Cart)=  0.00000025 RMS(Int)=  0.00022923
 ClnCor:  largest displacement from symmetrization is 1.12D-10 for atom     9.
 Variable       Old X    -DE/DX   Delta X   Delta X   Delta X     New X
                                 (Linear)    (Quad)   (Total)
    R1        2.62216   0.00148   0.00000   0.00308   0.00308   2.62523
    R2        1.90416  -0.00310   0.00000  -0.00664  -0.00664   1.89752
    R3        1.90416  -0.00310   0.00000  -0.00664  -0.00664   1.89752
    R4        2.62877   0.01222   0.00000   0.02665   0.02671   2.65548
    R5        2.62877   0.01222   0.00000   0.02665   0.02671   2.65548
    R6        2.63354   0.00105   0.00000   0.00224   0.00224   2.63577
    R7        2.03905   0.00531   0.00000   0.01459   0.01459   2.05364
    R8        2.63543   0.00127   0.00000   0.00182   0.00177   2.63720
    R9        2.04119   0.00374   0.00000   0.01030   0.01030   2.05149
   R10        2.63543   0.00127   0.00000   0.00182   0.00177   2.63720
   R11        2.04230   0.00364   0.00000   0.01004   0.01004   2.05234
   R12        2.63354   0.00105   0.00000   0.00224   0.00224   2.63577
   R13        2.04119   0.00374   0.00000   0.01030   0.01030   2.05149
   R14        2.03905   0.00531   0.00000   0.01459   0.01459   2.05364
    A1        2.06132   0.00344   0.00000   0.01260   0.01171   2.07303
    A2        2.06132   0.00344   0.00000   0.01260   0.01171   2.07303
    A3        2.10493  -0.00723   0.00000  -0.05347  -0.05446   2.05047
    A4        2.08710   0.00480   0.00000   0.01767   0.01749   2.10460
    A5        2.08710   0.00480   0.00000   0.01767   0.01749   2.10460
    A6        2.10897  -0.00959   0.00000  -0.03527  -0.03524   2.07373
    A7        2.08846   0.00230   0.00000   0.01141   0.01148   2.09993
    A8        2.10303  -0.00286   0.00000  -0.01621  -0.01625   2.08678
    A9        2.09169   0.00056   0.00000   0.00481   0.00477   2.09646
   A10        2.08748   0.00501   0.00000   0.01978   0.01974   2.10722
   A11        2.09663  -0.00276   0.00000  -0.01147  -0.01145   2.08518
   A12        2.09907  -0.00225   0.00000  -0.00831  -0.00829   2.09078
   A13        2.10553  -0.00502   0.00000  -0.02710  -0.02719   2.07833
   A14        2.08883   0.00251   0.00000   0.01355   0.01360   2.10242
   A15        2.08883   0.00251   0.00000   0.01355   0.01360   2.10242
   A16        2.08748   0.00501   0.00000   0.01978   0.01974   2.10722
   A17        2.09907  -0.00225   0.00000  -0.00831  -0.00829   2.09078
   A18        2.09663  -0.00276   0.00000  -0.01147  -0.01145   2.08518
   A19        2.08846   0.00230   0.00000   0.01141   0.01148   2.09993
   A20        2.10303  -0.00286   0.00000  -0.01621  -0.01625   2.08678
   A21        2.09169   0.00056   0.00000   0.00481   0.00477   2.09646
    D1       -0.17313  -0.00159   0.00000  -0.06205  -0.06216  -0.23529
    D2        2.96516  -0.00095   0.00000  -0.03445  -0.03397   2.93119
    D3       -2.96516   0.00095   0.00000   0.03445   0.03397  -2.93119
    D4        0.17313   0.00159   0.00000   0.06205   0.06216   0.23529
    D5        3.13757   0.00065   0.00000   0.02661   0.02647  -3.11915
    D6       -0.00705   0.00062   0.00000   0.02503   0.02488   0.01783
    D7       -0.00068  -0.00003   0.00000  -0.00145  -0.00133  -0.00201
    D8        3.13789  -0.00006   0.00000  -0.00303  -0.00291   3.13497
    D9       -3.13757  -0.00065   0.00000  -0.02661  -0.02647   3.11915
   D10        0.00705  -0.00062   0.00000  -0.02503  -0.02488  -0.01783
   D11        0.00068   0.00003   0.00000   0.00145   0.00133   0.00201
   D12       -3.13789   0.00006   0.00000   0.00303   0.00291  -3.13497
   D13       -0.00008  -0.00002   0.00000  -0.00049  -0.00055  -0.00063
   D14        3.14026   0.00006   0.00000   0.00236   0.00232  -3.14060
   D15       -3.13867   0.00003   0.00000   0.00111   0.00108  -3.13759
   D16        0.00166   0.00010   0.00000   0.00397   0.00396   0.00562
   D17        0.00084   0.00006   0.00000   0.00244   0.00242   0.00326
   D18        3.14075   0.00008   0.00000   0.00311   0.00312  -3.13931
   D19       -3.13949  -0.00001   0.00000  -0.00042  -0.00046  -3.13995
   D20        0.00042   0.00001   0.00000   0.00025   0.00024   0.00066
   D21       -0.00084  -0.00006   0.00000  -0.00244  -0.00242  -0.00326
   D22        3.13949   0.00001   0.00000   0.00042   0.00046   3.13995
   D23       -3.14075  -0.00008   0.00000  -0.00311  -0.00312   3.13931
   D24       -0.00042  -0.00001   0.00000  -0.00025  -0.00024  -0.00066
   D25        0.00008   0.00002   0.00000   0.00049   0.00055   0.00063
   D26        3.13867  -0.00003   0.00000  -0.00111  -0.00108   3.13759
   D27       -3.14026  -0.00006   0.00000  -0.00236  -0.00232   3.14060
   D28       -0.00166  -0.00010   0.00000  -0.00397  -0.00396  -0.00562
         Item               Value     Threshold  Converged?
 Maximum Force            0.012222     0.000450     NO 
 RMS     Force            0.003533     0.000300     NO 
 Maximum Displacement     0.070326     0.001800     NO 
 RMS     Displacement     0.019726     0.001200     NO 
 Predicted change in Energy=-1.499182D-03
 GradGradGradGradGradGradGradGradGradGradGradGradGradGradGradGradGradGrad

                          Input orientation:                          
 ---------------------------------------------------------------------
 Center     Atomic      Atomic             Coordinates (Angstroms)
 Number     Number       Type             X           Y           Z
 ---------------------------------------------------------------------
      1          7           0        2.185401    0.400960   -0.628676
      2          6           0        0.870304    0.160556   -0.250996
      3          6           0        0.036831   -0.650652   -1.039605
      4          6           0       -1.290434   -0.866629   -0.669248
      5          6           0       -1.812199   -0.284115    0.486605
      6          6           0       -0.987790    0.524592    1.270122
      7          6           0        0.341159    0.748308    0.910552
      8          1           0        2.592715   -0.166834   -1.349767
      9          1           0        2.808669    0.825879    0.034081
     10          1           0        0.431725   -1.106226   -1.943771
     11          1           0       -1.921905   -1.496539   -1.288105
     12          1           0       -2.845745   -0.457003    0.771915
     13          1           0       -1.382128    0.984754    2.170830
     14          1           0        0.973202    1.382880    1.526056
 ---------------------------------------------------------------------
                    Distance matrix (angstroms):
                    1          2          3          4          5
     1  N    0.000000
     2  C    1.389214   0.000000
     3  C    2.427159   1.405219   0.000000
     4  C    3.699981   2.428752   1.394792   0.000000
     5  C    4.206422   2.817376   2.425403   1.395549   0.000000
     6  C    3.699981   2.428752   2.786734   2.405877   1.395549
     7  C    2.427159   1.405219   2.419259   2.786734   2.425403
     8  H    1.004125   2.069102   2.619699   4.003957   4.773812
     9  H    1.004125   2.069102   3.319041   4.490201   4.773812
    10  H    2.660162   2.159300   1.086741   2.155841   3.408488
    11  H    4.572233   3.408518   2.148005   1.085600   2.152116
    12  H    5.292465   3.903428   3.410037   2.159568   1.086052
    13  H    4.572233   3.408518   3.872324   3.391470   2.152116
    14  H    2.660162   2.159300   3.405093   3.873461   3.408488
                    6          7          8          9         10
     6  C    0.000000
     7  C    1.394792   0.000000
     8  H    4.490201   3.319041   0.000000
     9  H    4.003957   2.619699   1.716726   0.000000
    10  H    3.873461   3.405093   2.430057   3.646202   0.000000
    11  H    3.391470   3.872324   4.706774   5.433244   2.474231
    12  H    2.159568   3.410037   5.844876   5.844876   4.305607
    13  H    1.085600   2.148005   5.433244   4.706774   4.959053
    14  H    2.155841   1.086741   3.646202   2.430057   4.304479
                   11         12         13         14
    11  H    0.000000
    12  H    2.485518   0.000000
    13  H    4.290968   2.485518   0.000000
    14  H    4.959053   4.305607   2.474231   0.000000
 Stoichiometry    C6H7N
 Framework group  CS[SG(C2HN),X(C4H6)]
 Deg. of freedom    20
 Full point group                 CS      NOp   2
 Largest Abelian subgroup         CS      NOp   2
 Largest concise Abelian subgroup CS      NOp   2
                         Standard orientation:                         
 ---------------------------------------------------------------------
 Center     Atomic      Atomic             Coordinates (Angstroms)
 Number     Number       Type             X           Y           Z
 ---------------------------------------------------------------------
      1          7           0       -0.028640    2.326549   -0.000000
      2          6           0       -0.001813    0.937593   -0.000000
      3          6           0       -0.003056    0.222447   -1.209630
      4          6           0       -0.003056   -1.172329   -1.202939
      5          6           0       -0.001074   -1.879783    0.000000
      6          6           0       -0.003056   -1.172329    1.202939
      7          6           0       -0.003056    0.222447    1.209630
      8          1           0        0.156504    2.813581   -0.858363
      9          1           0        0.156504    2.813581    0.858363
     10          1           0       -0.008374    0.763246   -2.152239
     11          1           0       -0.003090   -1.710970   -2.145484
     12          1           0        0.001053   -2.965833    0.000000
     13          1           0       -0.003090   -1.710970    2.145484
     14          1           0       -0.008374    0.763246    2.152239
 ---------------------------------------------------------------------
 Rotational constants (GHZ):           5.6148798           2.5934019           1.7747734
 Standard basis: 6-31G(d,p) (6D, 7F)
 There are    82 symmetry adapted cartesian basis functions of A'  symmetry.
 There are    58 symmetry adapted cartesian basis functions of A"  symmetry.
 There are    82 symmetry adapted basis functions of A'  symmetry.
 There are    58 symmetry adapted basis functions of A"  symmetry.
   140 basis functions,   245 primitive gaussians,   140 cartesian basis functions
    25 alpha electrons       25 beta electrons
       nuclear repulsion energy       271.1468056451 Hartrees.
 NAtoms=   14 NActive=   14 NUniq=    9 SFac= 2.42D+00 NAtFMM=   60 NAOKFM=F Big=F
 Integral buffers will be    131072 words long.
 Raffenetti 2 integral format.
 Two-electron integral symmetry is turned on.
 Nuclear repulsion after empirical dispersion term =      271.1240132051 Hartrees.
 One-electron integrals computed using PRISM.
 NBasis=   140 RedAO= T EigKep=  4.66D-04  NBF=    82    58
 NBsUse=   140 1.00D-06 EigRej= -1.00D+00 NBFU=    82    58
 Initial guess from the checkpoint file:  "an1_conf-1.chk"
 B after Tr=    -0.000001   -0.000019    0.000000
         Rot=    0.999996   -0.000000   -0.000000   -0.002874 Ang=  -0.33 deg.
 Initial guess orbital symmetries:
       Occupied  (A') (A') (A') (A") (A") (A') (A') (A') (A') (A")
                 (A') (A") (A') (A') (A") (A') (A') (A") (A") (A')
                 (A') (A") (A') (A") (A')
       Virtual   (A") (A') (A') (A') (A") (A') (A") (A') (A') (A")
                 (A') (A") (A') (A") (A') (A") (A') (A') (A') (A")
                 (A') (A') (A') (A") (A") (A') (A") (A") (A') (A')
                 (A') (A') (A") (A') (A') (A") (A") (A') (A') (A")
                 (A') (A") (A') (A") (A') (A") (A') (A") (A') (A")
                 (A') (A') (A") (A") (A') (A") (A') (A") (A") (A')
                 (A') (A') (A') (A') (A") (A") (A') (A") (A') (A')
                 (A") (A") (A') (A') (A") (A') (A") (A') (A') (A")
                 (A') (A") (A") (A') (A') (A') (A") (A") (A') (A")
                 (A") (A') (A") (A') (A") (A') (A') (A") (A') (A')
                 (A') (A") (A") (A') (A') (A") (A") (A') (A') (A')
                 (A") (A') (A") (A') (A')
 ExpMin= 1.61D-01 ExpMax= 4.17D+03 ExpMxC= 6.27D+02 IAcc=3 IRadAn=         5 AccDes= 0.00D+00
 Harris functional with IExCor=  402 and IRadAn=       5 diagonalized for initial guess.
 HarFok:  IExCor=  402 AccDes= 0.00D+00 IRadAn=         5 IDoV= 1 UseB2=F ITyADJ=14
 ICtDFT=  3500011 ScaDFX=  1.000000  1.000000  1.000000  1.000000
 FoFCou: FMM=F IPFlag=           0 FMFlag=      100000 FMFlg1=           0
         NFxFlg=           0 DoJE=T BraDBF=F KetDBF=T FulRan=T
         wScrn=  0.000000 ICntrl=       500 IOpCl=  0 I1Cent=   200000004 NGrid=           0
         NMat0=    1 NMatS0=      1 NMatT0=    0 NMatD0=    1 NMtDS0=    0 NMtDT0=    0
 Petite list used in FoFCou.
 Requested convergence on RMS density matrix=1.00D-08 within 128 cycles.
 Requested convergence on MAX density matrix=1.00D-06.
 Requested convergence on             energy=1.00D-06.
 No special actions if energy rises.
 Integral accuracy reduced to 1.0D-05 until final iterations.
 Initial convergence to 1.0D-05 achieved.  Increase integral accuracy.
 SCF Done:  E(RB3LYP) =  -287.638309969     A.U. after   11 cycles
            NFock= 11  Conv=0.61D-08     -V/T= 2.0100
 Calling FoFJK, ICntrl=      2127 FMM=F ISym2X=1 I1Cent= 0 IOpClX= 0 NMat=1 NMatS=1 NMatT=0.
 ***** Axes restored to original set *****
 -------------------------------------------------------------------
 Center     Atomic                   Forces (Hartrees/Bohr)
 Number     Number              X              Y              Z
 -------------------------------------------------------------------
      1        7          -0.008648680    0.003327879   -0.001037626
      2        6           0.005523173   -0.000001170   -0.000861069
      3        6          -0.003445040   -0.000790804    0.000574005
      4        6           0.002724272    0.001062614    0.000150004
      5        6          -0.001547076   -0.000182484    0.000372332
      6        6           0.002453040   -0.000184207   -0.001588071
      7        6          -0.003337373   -0.000295870    0.001263945
      8        1           0.002157899   -0.001529211    0.000703312
      9        1           0.002169445   -0.001476135    0.000777300
     10        1           0.000264783   -0.000082895    0.000007145
     11        1           0.000279996   -0.000331627   -0.000612223
     12        1           0.000695006    0.000136376   -0.000206288
     13        1           0.000443541    0.000420174    0.000435792
     14        1           0.000267014   -0.000072640    0.000021441
 -------------------------------------------------------------------
 Cartesian Forces:  Max     0.008648680 RMS     0.002072267

 GradGradGradGradGradGradGradGradGradGradGradGradGradGradGradGradGradGrad
 Berny optimization.
 Using GEDIIS/GDIIS optimizer.
 FormGI is forming the generalized inverse of G from B-inverse, IUseBI=4.
 Internal  Forces:  Max     0.004155377 RMS     0.000908520
 Search for a local minimum.
 Step number   2 out of a maximum of   73
 All quantities printed in internal units (Hartrees-Bohrs-Radians)
 Mixed Optimization -- En-DIIS/RFO-DIIS
 Update second derivatives using D2CorX and points    1    2
 DE= -1.71D-03 DEPred=-1.50D-03 R= 1.14D+00
 TightC=F SS=  1.41D+00  RLast= 1.53D-01 DXNew= 5.0454D-01 4.5763D-01
 Trust test= 1.14D+00 RLast= 1.53D-01 DXMaxT set to 4.58D-01
 ITU=  1  0
 Use linear search instead of GDIIS.
     Eigenvalues ---    0.01856   0.01984   0.02144   0.02160   0.02164
     Eigenvalues ---    0.02166   0.02170   0.02177   0.02189   0.02191
     Eigenvalues ---    0.02253   0.15027   0.16000   0.16000   0.16000
     Eigenvalues ---    0.16000   0.16000   0.16165   0.21844   0.22000
     Eigenvalues ---    0.23394   0.24992   0.35769   0.35976   0.36012
     Eigenvalues ---    0.36113   0.36338   0.42294   0.42325   0.45594
     Eigenvalues ---    0.46370   0.46445   0.46560   0.47057   0.47223
     Eigenvalues ---    0.54421
 RFO step:  Lambda=-5.43133341D-04 EMin= 1.85598309D-02
 Quartic linear search produced a step of  0.20144.
 Iteration  1 RMS(Cart)=  0.01369067 RMS(Int)=  0.00095072
 Iteration  2 RMS(Cart)=  0.00067355 RMS(Int)=  0.00070737
 Iteration  3 RMS(Cart)=  0.00000094 RMS(Int)=  0.00070737
 ClnCor:  largest displacement from symmetrization is 5.13D-11 for atom    13.
 Variable       Old X    -DE/DX   Delta X   Delta X   Delta X     New X
                                 (Linear)    (Quad)   (Total)
    R1        2.62523  -0.00416   0.00062  -0.01047  -0.00985   2.61539
    R2        1.89752   0.00123  -0.00134   0.00333   0.00199   1.89951
    R3        1.89752   0.00123  -0.00134   0.00333   0.00199   1.89951
    R4        2.65548   0.00035   0.00538   0.00027   0.00566   2.66114
    R5        2.65548   0.00035   0.00538   0.00027   0.00566   2.66114
    R6        2.63577  -0.00266   0.00045  -0.00686  -0.00641   2.62936
    R7        2.05364   0.00013   0.00294   0.00008   0.00302   2.05666
    R8        2.63720   0.00021   0.00036   0.00050   0.00085   2.63806
    R9        2.05149   0.00038   0.00207   0.00102   0.00310   2.05458
   R10        2.63720   0.00021   0.00036   0.00050   0.00085   2.63806
   R11        2.05234  -0.00074   0.00202  -0.00268  -0.00066   2.05168
   R12        2.63577  -0.00266   0.00045  -0.00686  -0.00641   2.62936
   R13        2.05149   0.00038   0.00207   0.00102   0.00310   2.05458
   R14        2.05364   0.00013   0.00294   0.00008   0.00302   2.05666
    A1        2.07303   0.00044   0.00236  -0.01114  -0.01168   2.06135
    A2        2.07303   0.00044   0.00236  -0.01114  -0.01168   2.06135
    A3        2.05047  -0.00188  -0.01097  -0.02831  -0.04273   2.00774
    A4        2.10460   0.00030   0.00352   0.00108   0.00457   2.10916
    A5        2.10460   0.00030   0.00352   0.00108   0.00457   2.10916
    A6        2.07373  -0.00060  -0.00710  -0.00216  -0.00926   2.06447
    A7        2.09993   0.00023   0.00231   0.00091   0.00324   2.10317
    A8        2.08678  -0.00032  -0.00327  -0.00174  -0.00502   2.08176
    A9        2.09646   0.00009   0.00096   0.00083   0.00178   2.09824
   A10        2.10722   0.00041   0.00398   0.00173   0.00570   2.11292
   A11        2.08518  -0.00087  -0.00231  -0.00578  -0.00808   2.07710
   A12        2.09078   0.00046  -0.00167   0.00404   0.00238   2.09316
   A13        2.07833  -0.00069  -0.00548  -0.00311  -0.00861   2.06972
   A14        2.10242   0.00034   0.00274   0.00156   0.00431   2.10673
   A15        2.10242   0.00034   0.00274   0.00156   0.00431   2.10673
   A16        2.10722   0.00041   0.00398   0.00173   0.00570   2.11292
   A17        2.09078   0.00046  -0.00167   0.00404   0.00238   2.09316
   A18        2.08518  -0.00087  -0.00231  -0.00578  -0.00808   2.07710
   A19        2.09993   0.00023   0.00231   0.00091   0.00324   2.10317
   A20        2.08678  -0.00032  -0.00327  -0.00174  -0.00502   2.08176
   A21        2.09646   0.00009   0.00096   0.00083   0.00178   2.09824
    D1       -0.23529  -0.00146  -0.01252  -0.06488  -0.07664  -0.31193
    D2        2.93119  -0.00143  -0.00684  -0.06494  -0.07088   2.86031
    D3       -2.93119   0.00143   0.00684   0.06494   0.07088  -2.86031
    D4        0.23529   0.00146   0.01252   0.06488   0.07664   0.31193
    D5       -3.11915   0.00010   0.00533   0.00457   0.00986  -3.10929
    D6        0.01783   0.00011   0.00501   0.00513   0.01010   0.02793
    D7       -0.00201   0.00009  -0.00027   0.00468   0.00444   0.00243
    D8        3.13497   0.00010  -0.00059   0.00524   0.00468   3.13965
    D9        3.11915  -0.00010  -0.00533  -0.00457  -0.00986   3.10929
   D10       -0.01783  -0.00011  -0.00501  -0.00513  -0.01010  -0.02793
   D11        0.00201  -0.00009   0.00027  -0.00468  -0.00444  -0.00243
   D12       -3.13497  -0.00010   0.00059  -0.00524  -0.00468  -3.13965
   D13       -0.00063  -0.00002  -0.00011  -0.00070  -0.00083  -0.00146
   D14       -3.14060  -0.00002   0.00047  -0.00083  -0.00037  -3.14098
   D15       -3.13759  -0.00002   0.00022  -0.00126  -0.00105  -3.13864
   D16        0.00562  -0.00002   0.00080  -0.00139  -0.00060   0.00502
   D17        0.00326  -0.00006   0.00049  -0.00331  -0.00284   0.00042
   D18       -3.13931  -0.00001   0.00063  -0.00069  -0.00006  -3.13937
   D19       -3.13995  -0.00006  -0.00009  -0.00320  -0.00331   3.13992
   D20        0.00066  -0.00001   0.00005  -0.00057  -0.00053   0.00013
   D21       -0.00326   0.00006  -0.00049   0.00331   0.00284  -0.00042
   D22        3.13995   0.00006   0.00009   0.00320   0.00331  -3.13992
   D23        3.13931   0.00001  -0.00063   0.00069   0.00006   3.13937
   D24       -0.00066   0.00001  -0.00005   0.00057   0.00053  -0.00013
   D25        0.00063   0.00002   0.00011   0.00070   0.00083   0.00146
   D26        3.13759   0.00002  -0.00022   0.00126   0.00105   3.13864
   D27        3.14060   0.00002  -0.00047   0.00083   0.00037   3.14098
   D28       -0.00562   0.00002  -0.00080   0.00139   0.00060  -0.00502
         Item               Value     Threshold  Converged?
 Maximum Force            0.004155     0.000450     NO 
 RMS     Force            0.000909     0.000300     NO 
 Maximum Displacement     0.052515     0.001800     NO 
 RMS     Displacement     0.013829     0.001200     NO 
 Predicted change in Energy=-3.002586D-04
 GradGradGradGradGradGradGradGradGradGradGradGradGradGradGradGradGradGrad

                          Input orientation:                          
 ---------------------------------------------------------------------
 Center     Atomic      Atomic             Coordinates (Angstroms)
 Number     Number       Type             X           Y           Z
 ---------------------------------------------------------------------
      1          7           0        2.176129    0.426652   -0.645660
      2          6           0        0.871698    0.172094   -0.259491
      3          6           0        0.033366   -0.645031   -1.042164
      4          6           0       -1.288370   -0.865192   -0.667287
      5          6           0       -1.815048   -0.286681    0.488890
      6          6           0       -0.986397    0.522940    1.267776
      7          6           0        0.337505    0.753059    0.906781
      8          1           0        2.596024   -0.182553   -1.326059
      9          1           0        2.809352    0.798089    0.040962
     10          1           0        0.429060   -1.100711   -1.947847
     11          1           0       -1.913927   -1.500803   -1.289190
     12          1           0       -2.846670   -0.464020    0.777093
     13          1           0       -1.373562    0.983192    2.173512
     14          1           0        0.970645    1.388894    1.522676
 ---------------------------------------------------------------------
                    Distance matrix (angstroms):
                    1          2          3          4          5
     1  N    0.000000
     2  C    1.384003   0.000000
     3  C    2.428405   1.408216   0.000000
     4  C    3.697577   2.430669   1.391398   0.000000
     5  C    4.210171   2.826509   2.426763   1.395999   0.000000
     6  C    3.697577   2.430669   2.782067   2.400535   1.395999
     7  C    2.428405   1.408216   2.417756   2.782067   2.426763
     8  H    1.005180   2.058311   2.619485   3.998562   4.771001
     9  H    1.005180   2.058311   3.310869   4.478777   4.771001
    10  H    2.660973   2.160210   1.088338   2.155195   3.411210
    11  H    4.567031   3.408603   2.141336   1.087238   2.155328
    12  H    5.295850   3.912212   3.411315   2.162284   1.085704
    13  H    4.567031   3.408603   3.869254   3.390269   2.155328
    14  H    2.660973   2.160210   3.404959   3.870399   3.411210
                    6          7          8          9         10
     6  C    0.000000
     7  C    1.391398   0.000000
     8  H    4.478777   3.310869   0.000000
     9  H    3.998562   2.619485   1.695852   0.000000
    10  H    3.870399   3.404959   2.434208   3.636838   0.000000
    11  H    3.390269   3.869254   4.698809   5.418817   2.466473
    12  H    2.162284   3.411315   5.841694   5.841694   4.308257
    13  H    1.087238   2.141336   5.418817   4.698809   4.957590
    14  H    2.155195   1.088338   3.636838   2.434208   4.305343
                   11         12         13         14
    11  H    0.000000
    12  H    2.492881   0.000000
    13  H    4.295641   2.492881   0.000000
    14  H    4.957590   4.308257   2.466473   0.000000
 Stoichiometry    C6H7N
 Framework group  CS[SG(C2HN),X(C4H6)]
 Deg. of freedom    20
 Full point group                 CS      NOp   2
 Largest Abelian subgroup         CS      NOp   2
 Largest concise Abelian subgroup CS      NOp   2
                         Standard orientation:                         
 ---------------------------------------------------------------------
 Center     Atomic      Atomic             Coordinates (Angstroms)
 Number     Number       Type             X           Y           Z
 ---------------------------------------------------------------------
      1          7           0       -0.042399    2.326355   -0.000000
      2          6           0       -0.004013    0.942884   -0.000000
      3          6           0       -0.002503    0.220607   -1.208878
      4          6           0       -0.002503   -1.170764   -1.200268
      5          6           0       -0.002246   -1.883625    0.000000
      6          6           0       -0.002503   -1.170764    1.200268
      7          6           0       -0.002503    0.220607    1.208878
      8          1           0        0.203514    2.806912   -0.847926
      9          1           0        0.203514    2.806912    0.847926
     10          1           0       -0.005481    0.762570   -2.152671
     11          1           0       -0.000736   -1.703893   -2.147821
     12          1           0       -0.000170   -2.969327    0.000000
     13          1           0       -0.000736   -1.703893    2.147821
     14          1           0       -0.005481    0.762570    2.152671
 ---------------------------------------------------------------------
 Rotational constants (GHZ):           5.6250526           2.5918811           1.7756597
 Standard basis: 6-31G(d,p) (6D, 7F)
 There are    82 symmetry adapted cartesian basis functions of A'  symmetry.
 There are    58 symmetry adapted cartesian basis functions of A"  symmetry.
 There are    82 symmetry adapted basis functions of A'  symmetry.
 There are    58 symmetry adapted basis functions of A"  symmetry.
   140 basis functions,   245 primitive gaussians,   140 cartesian basis functions
    25 alpha electrons       25 beta electrons
       nuclear repulsion energy       271.2118674888 Hartrees.
 NAtoms=   14 NActive=   14 NUniq=    9 SFac= 2.42D+00 NAtFMM=   60 NAOKFM=F Big=F
 Integral buffers will be    131072 words long.
 Raffenetti 2 integral format.
 Two-electron integral symmetry is turned on.
 Nuclear repulsion after empirical dispersion term =      271.1890685884 Hartrees.
 One-electron integrals computed using PRISM.
 NBasis=   140 RedAO= T EigKep=  4.65D-04  NBF=    82    58
 NBsUse=   140 1.00D-06 EigRej= -1.00D+00 NBFU=    82    58
 Initial guess from the checkpoint file:  "an1_conf-1.chk"
 B after Tr=     0.000000    0.000000   -0.000000
         Rot=    1.000000   -0.000000   -0.000000    0.000164 Ang=   0.02 deg.
 Initial guess orbital symmetries:
       Occupied  (A') (A') (A') (A") (A") (A') (A') (A') (A') (A")
                 (A') (A") (A') (A') (A") (A') (A') (A") (A") (A')
                 (A') (A") (A') (A") (A')
       Virtual   (A") (A') (A') (A') (A") (A') (A") (A') (A") (A')
                 (A') (A") (A') (A") (A') (A") (A') (A') (A') (A")
                 (A') (A') (A') (A") (A") (A') (A") (A") (A') (A')
                 (A') (A') (A") (A') (A') (A") (A") (A') (A') (A")
                 (A') (A") (A') (A") (A') (A") (A') (A") (A") (A')
                 (A') (A') (A") (A') (A") (A") (A') (A") (A") (A')
                 (A') (A') (A') (A') (A") (A") (A') (A") (A') (A')
                 (A") (A') (A") (A') (A") (A') (A") (A') (A") (A')
                 (A') (A") (A") (A') (A') (A') (A") (A") (A') (A")
                 (A") (A') (A") (A') (A") (A') (A') (A") (A') (A')
                 (A') (A") (A") (A') (A') (A") (A") (A') (A') (A')
                 (A") (A') (A") (A') (A')
 ExpMin= 1.61D-01 ExpMax= 4.17D+03 ExpMxC= 6.27D+02 IAcc=3 IRadAn=         5 AccDes= 0.00D+00
 Harris functional with IExCor=  402 and IRadAn=       5 diagonalized for initial guess.
 HarFok:  IExCor=  402 AccDes= 0.00D+00 IRadAn=         5 IDoV= 1 UseB2=F ITyADJ=14
 ICtDFT=  3500011 ScaDFX=  1.000000  1.000000  1.000000  1.000000
 FoFCou: FMM=F IPFlag=           0 FMFlag=      100000 FMFlg1=           0
         NFxFlg=           0 DoJE=T BraDBF=F KetDBF=T FulRan=T
         wScrn=  0.000000 ICntrl=       500 IOpCl=  0 I1Cent=   200000004 NGrid=           0
         NMat0=    1 NMatS0=      1 NMatT0=    0 NMatD0=    1 NMtDS0=    0 NMtDT0=    0
 Petite list used in FoFCou.
 Requested convergence on RMS density matrix=1.00D-08 within 128 cycles.
 Requested convergence on MAX density matrix=1.00D-06.
 Requested convergence on             energy=1.00D-06.
 No special actions if energy rises.
 Integral accuracy reduced to 1.0D-05 until final iterations.
 Initial convergence to 1.0D-05 achieved.  Increase integral accuracy.
 SCF Done:  E(RB3LYP) =  -287.638793039     A.U. after   10 cycles
            NFock= 10  Conv=0.87D-08     -V/T= 2.0099
 Calling FoFJK, ICntrl=      2127 FMM=F ISym2X=1 I1Cent= 0 IOpClX= 0 NMat=1 NMatS=1 NMatT=0.
 ***** Axes restored to original set *****
 -------------------------------------------------------------------
 Center     Atomic                   Forces (Hartrees/Bohr)
 Number     Number              X              Y              Z
 -------------------------------------------------------------------
      1        7          -0.000992036    0.004144265   -0.002818109
      2        6          -0.003762889   -0.001926611    0.001969279
      3        6           0.001978650    0.000886384    0.000122657
      4        6          -0.001078011   -0.000735868   -0.000666942
      5        6           0.000704516    0.000068632   -0.000159176
      6        6          -0.000801579    0.000534856    0.001104455
      7        6           0.001762201   -0.000108610   -0.001264370
      8        1           0.000818910   -0.002189513   -0.000225466
      9        1           0.001157255   -0.000634180    0.001942676
     10        1          -0.000441017    0.000251936    0.000707675
     11        1           0.000352750    0.000316059    0.000309135
     12        1           0.000675570    0.000139607   -0.000205573
     13        1           0.000232911   -0.000234826   -0.000458802
     14        1          -0.000607231   -0.000512131   -0.000357439
 -------------------------------------------------------------------
 Cartesian Forces:  Max     0.004144265 RMS     0.001343513

 GradGradGradGradGradGradGradGradGradGradGradGradGradGradGradGradGradGrad
 Berny optimization.
 Using GEDIIS/GDIIS optimizer.
 FormGI is forming the generalized inverse of G from B-inverse, IUseBI=4.
 Internal  Forces:  Max     0.001821684 RMS     0.000670829
 Search for a local minimum.
 Step number   3 out of a maximum of   73
 All quantities printed in internal units (Hartrees-Bohrs-Radians)
 Mixed Optimization -- En-DIIS/RFO-DIIS
 Swapping is turned off.
 Update second derivatives using D2CorX and points    1    2    3
 DE= -4.83D-04 DEPred=-3.00D-04 R= 1.61D+00
 TightC=F SS=  1.41D+00  RLast= 1.59D-01 DXNew= 7.6964D-01 4.7656D-01
 Trust test= 1.61D+00 RLast= 1.59D-01 DXMaxT set to 4.77D-01
 ITU=  1  1  0
     Eigenvalues ---    0.00795   0.01856   0.02126   0.02160   0.02165
     Eigenvalues ---    0.02166   0.02169   0.02177   0.02189   0.02191
     Eigenvalues ---    0.02224   0.15998   0.16000   0.16000   0.16000
     Eigenvalues ---    0.16000   0.16109   0.16980   0.22000   0.22567
     Eigenvalues ---    0.24988   0.25790   0.35950   0.35976   0.36025
     Eigenvalues ---    0.36113   0.37346   0.42265   0.43632   0.45879
     Eigenvalues ---    0.46370   0.46560   0.46927   0.47056   0.53343
     Eigenvalues ---    0.63307
 En-DIIS/RFO-DIIS/Sim-DIIS IScMMF=       -3 using points:     3    2
 RFO step:  Lambda=-6.16542018D-04.
 DidBck=F Rises=F RFO-DIIS coefs:    2.80448   -1.80448
 Iteration  1 RMS(Cart)=  0.02567251 RMS(Int)=  0.00424089
 Iteration  2 RMS(Cart)=  0.00223860 RMS(Int)=  0.00364244
 Iteration  3 RMS(Cart)=  0.00001171 RMS(Int)=  0.00364243
 Iteration  4 RMS(Cart)=  0.00000025 RMS(Int)=  0.00364243
 ClnCor:  largest displacement from symmetrization is 1.88D-09 for atom    13.
 Variable       Old X    -DE/DX   Delta X   Delta X   Delta X     New X
                                 (Linear)    (Quad)   (Total)
    R1        2.61539   0.00148  -0.01777   0.01717  -0.00060   2.61479
    R2        1.89951   0.00182   0.00360   0.00284   0.00644   1.90596
    R3        1.89951   0.00182   0.00360   0.00284   0.00644   1.90596
    R4        2.66114  -0.00174   0.01022  -0.00622   0.00401   2.66515
    R5        2.66114  -0.00174   0.01022  -0.00622   0.00401   2.66515
    R6        2.62936  -0.00006  -0.01157   0.00755  -0.00402   2.62534
    R7        2.05666  -0.00085   0.00545  -0.00380   0.00165   2.05831
    R8        2.63806  -0.00016   0.00153  -0.00090   0.00063   2.63868
    R9        2.05458  -0.00056   0.00559  -0.00359   0.00199   2.05657
   R10        2.63806  -0.00016   0.00153  -0.00090   0.00063   2.63868
   R11        2.05168  -0.00072  -0.00119  -0.00018  -0.00137   2.05031
   R12        2.62936  -0.00006  -0.01157   0.00755  -0.00402   2.62534
   R13        2.05458  -0.00056   0.00559  -0.00359   0.00199   2.05657
   R14        2.05666  -0.00085   0.00545  -0.00380   0.00165   2.05831
    A1        2.06135  -0.00079  -0.02108  -0.01119  -0.04515   2.01620
    A2        2.06135  -0.00079  -0.02108  -0.01119  -0.04515   2.01620
    A3        2.00774   0.00016  -0.07711   0.01431  -0.08156   1.92618
    A4        2.10916  -0.00051   0.00824  -0.00396   0.00421   2.11337
    A5        2.10916  -0.00051   0.00824  -0.00396   0.00421   2.11337
    A6        2.06447   0.00101  -0.01671   0.00772  -0.00902   2.05545
    A7        2.10317  -0.00011   0.00585  -0.00191   0.00394   2.10711
    A8        2.08176   0.00022  -0.00906   0.00392  -0.00515   2.07661
    A9        2.09824  -0.00011   0.00322  -0.00200   0.00121   2.09945
   A10        2.11292  -0.00069   0.01029  -0.00622   0.00406   2.11698
   A11        2.07710   0.00031  -0.01458   0.00824  -0.00634   2.07076
   A12        2.09316   0.00038   0.00429  -0.00202   0.00228   2.09544
   A13        2.06972   0.00059  -0.01554   0.00856  -0.00700   2.06272
   A14        2.10673  -0.00029   0.00777  -0.00428   0.00350   2.11023
   A15        2.10673  -0.00029   0.00777  -0.00428   0.00350   2.11023
   A16        2.11292  -0.00069   0.01029  -0.00622   0.00406   2.11698
   A17        2.09316   0.00038   0.00429  -0.00202   0.00228   2.09544
   A18        2.07710   0.00031  -0.01458   0.00824  -0.00634   2.07076
   A19        2.10317  -0.00011   0.00585  -0.00191   0.00394   2.10711
   A20        2.08176   0.00022  -0.00906   0.00392  -0.00515   2.07661
   A21        2.09824  -0.00011   0.00322  -0.00200   0.00121   2.09945
    D1       -0.31193  -0.00125  -0.13830  -0.00857  -0.14079  -0.45272
    D2        2.86031  -0.00118  -0.12791  -0.00072  -0.12240   2.73791
    D3       -2.86031   0.00118   0.12791   0.00072   0.12240  -2.73791
    D4        0.31193   0.00125   0.13830   0.00857   0.14079   0.45272
    D5       -3.10929   0.00009   0.01780   0.00267   0.02043  -3.08886
    D6        0.02793   0.00009   0.01823   0.00177   0.01996   0.04789
    D7        0.00243   0.00000   0.00801  -0.00518   0.00285   0.00528
    D8        3.13965  -0.00000   0.00844  -0.00607   0.00238  -3.14115
    D9        3.10929  -0.00009  -0.01780  -0.00267  -0.02043   3.08886
   D10       -0.02793  -0.00009  -0.01823  -0.00177  -0.01996  -0.04789
   D11       -0.00243  -0.00000  -0.00801   0.00518  -0.00285  -0.00528
   D12       -3.13965   0.00000  -0.00844   0.00607  -0.00238   3.14115
   D13       -0.00146  -0.00000  -0.00150   0.00044  -0.00109  -0.00255
   D14       -3.14098   0.00000  -0.00067   0.00118   0.00048  -3.14050
   D15       -3.13864  -0.00000  -0.00190   0.00133  -0.00059  -3.13923
   D16        0.00502   0.00001  -0.00108   0.00206   0.00097   0.00600
   D17        0.00042   0.00001  -0.00512   0.00436  -0.00077  -0.00035
   D18       -3.13937  -0.00001  -0.00010   0.00018   0.00008  -3.13929
   D19        3.13992   0.00000  -0.00597   0.00363  -0.00237   3.13755
   D20        0.00013  -0.00002  -0.00095  -0.00055  -0.00152  -0.00138
   D21       -0.00042  -0.00001   0.00512  -0.00436   0.00077   0.00035
   D22       -3.13992  -0.00000   0.00597  -0.00363   0.00237  -3.13755
   D23        3.13937   0.00001   0.00010  -0.00018  -0.00008   3.13929
   D24       -0.00013   0.00002   0.00095   0.00055   0.00152   0.00138
   D25        0.00146   0.00000   0.00150  -0.00044   0.00109   0.00255
   D26        3.13864   0.00000   0.00190  -0.00133   0.00059   3.13923
   D27        3.14098  -0.00000   0.00067  -0.00118  -0.00048   3.14050
   D28       -0.00502  -0.00001   0.00108  -0.00206  -0.00097  -0.00600
         Item               Value     Threshold  Converged?
 Maximum Force            0.001822     0.000450     NO 
 RMS     Force            0.000671     0.000300     NO 
 Maximum Displacement     0.101696     0.001800     NO 
 RMS     Displacement     0.026044     0.001200     NO 
 Predicted change in Energy=-2.432321D-04
 GradGradGradGradGradGradGradGradGradGradGradGradGradGradGradGradGradGrad

                          Input orientation:                          
 ---------------------------------------------------------------------
 Center     Atomic      Atomic             Coordinates (Angstroms)
 Number     Number       Type             X           Y           Z
 ---------------------------------------------------------------------
      1          7           0        2.164794    0.474644   -0.678318
      2          6           0        0.872738    0.190465   -0.272831
      3          6           0        0.030941   -0.633923   -1.047951
      4          6           0       -1.284815   -0.863996   -0.665948
      5          6           0       -1.814069   -0.292620    0.492998
      6          6           0       -0.983401    0.521570    1.265539
      7          6           0        0.334715    0.762486    0.898651
      8          1           0        2.592998   -0.213335   -1.278799
      9          1           0        2.801316    0.744274    0.056114
     10          1           0        0.426314   -1.086235   -1.956505
     11          1           0       -1.904112   -1.506671   -1.288700
     12          1           0       -2.841950   -0.478252    0.786566
     13          1           0       -1.363303    0.979364    2.176846
     14          1           0        0.967637    1.402160    1.512331
 ---------------------------------------------------------------------
                    Distance matrix (angstroms):
                    1          2          3          4          5
     1  N    0.000000
     2  C    1.383686   0.000000
     3  C    2.432874   1.410336   0.000000
     4  C    3.700259   2.433406   1.389271   0.000000
     5  C    4.218060   2.835278   2.427978   1.396330   0.000000
     6  C    3.700259   2.433406   2.777821   2.396098   1.396330
     7  C    2.432874   1.410336   2.414849   2.777821   2.427978
     8  H    1.008588   2.033303   2.606592   3.979495   4.750557
     9  H    1.008588   2.033303   3.285325   4.450210   4.750557
    10  H    2.663159   2.159633   1.089209   2.154737   3.413094
    11  H    4.566637   3.409275   2.136371   1.088292   2.157887
    12  H    5.302960   3.920257   3.412212   2.164085   1.084979
    13  H    4.566637   3.409275   3.865996   3.389043   2.157887
    14  H    2.663159   2.159633   3.402657   3.867028   3.413094
                    6          7          8          9         10
     6  C    0.000000
     7  C    1.389271   0.000000
     8  H    4.450210   3.285325   0.000000
     9  H    3.979495   2.606592   1.656020   0.000000
    10  H    3.867028   3.402657   2.432234   3.611375   0.000000
    11  H    3.389043   3.865996   4.679404   5.386681   2.460410
    12  H    2.164085   3.412212   5.820187   5.820187   4.309946
    13  H    1.088292   2.136371   5.386681   4.679404   4.955201
    14  H    2.154737   1.089209   3.611375   2.432234   4.303251
                   11         12         13         14
    11  H    0.000000
    12  H    2.498783   0.000000
    13  H    4.299169   2.498783   0.000000
    14  H    4.955201   4.309946   2.460410   0.000000
 Stoichiometry    C6H7N
 Framework group  CS[SG(C2HN),X(C4H6)]
 Deg. of freedom    20
 Full point group                 CS      NOp   2
 Largest Abelian subgroup         CS      NOp   2
 Largest concise Abelian subgroup CS      NOp   2
                         Standard orientation:                         
 ---------------------------------------------------------------------
 Center     Atomic      Atomic             Coordinates (Angstroms)
 Number     Number       Type             X           Y           Z
 ---------------------------------------------------------------------
      1          7           0       -0.067947    2.330583   -0.000000
      2          6           0       -0.005463    0.948309   -0.000000
      3          6           0       -0.002155    0.219500   -1.207424
      4          6           0       -0.002155   -1.169740   -1.198049
      5          6           0       -0.002371   -1.886967    0.000000
      6          6           0       -0.002155   -1.169740    1.198049
      7          6           0       -0.002155    0.219500    1.207424
      8          1           0        0.289988    2.781729   -0.828010
      9          1           0        0.289988    2.781729    0.828010
     10          1           0       -0.004202    0.762507   -2.151625
     11          1           0        0.001494   -1.697895   -2.149584
     12          1           0       -0.000223   -2.971944    0.000000
     13          1           0        0.001494   -1.697895    2.149584
     14          1           0       -0.004202    0.762507    2.151625
 ---------------------------------------------------------------------
 Rotational constants (GHZ):           5.6345104           2.5879541           1.7762800
 Standard basis: 6-31G(d,p) (6D, 7F)
 There are    82 symmetry adapted cartesian basis functions of A'  symmetry.
 There are    58 symmetry adapted cartesian basis functions of A"  symmetry.
 There are    82 symmetry adapted basis functions of A'  symmetry.
 There are    58 symmetry adapted basis functions of A"  symmetry.
   140 basis functions,   245 primitive gaussians,   140 cartesian basis functions
    25 alpha electrons       25 beta electrons
       nuclear repulsion energy       271.2240915358 Hartrees.
 NAtoms=   14 NActive=   14 NUniq=    9 SFac= 2.42D+00 NAtFMM=   60 NAOKFM=F Big=F
 Integral buffers will be    131072 words long.
 Raffenetti 2 integral format.
 Two-electron integral symmetry is turned on.
 Nuclear repulsion after empirical dispersion term =      271.2012721426 Hartrees.
 One-electron integrals computed using PRISM.
 NBasis=   140 RedAO= T EigKep=  4.65D-04  NBF=    82    58
 NBsUse=   140 1.00D-06 EigRej= -1.00D+00 NBFU=    82    58
 Initial guess from the checkpoint file:  "an1_conf-1.chk"
 B after Tr=    -0.000000    0.000000   -0.000000
         Rot=    1.000000    0.000000    0.000000    0.000286 Ang=   0.03 deg.
 Initial guess orbital symmetries:
       Occupied  (A') (A') (A') (A") (A") (A') (A') (A') (A') (A")
                 (A') (A") (A') (A') (A") (A') (A') (A") (A") (A')
                 (A') (A") (A') (A") (A')
       Virtual   (A") (A') (A') (A') (A") (A') (A") (A') (A") (A')
                 (A') (A") (A') (A") (A') (A") (A') (A') (A') (A")
                 (A') (A') (A") (A') (A") (A') (A") (A") (A') (A')
                 (A') (A') (A") (A') (A') (A") (A") (A') (A') (A")
                 (A') (A") (A') (A") (A') (A") (A') (A") (A") (A')
                 (A') (A') (A") (A') (A") (A") (A') (A") (A") (A')
                 (A') (A') (A') (A') (A") (A") (A') (A") (A') (A')
                 (A') (A") (A") (A') (A") (A') (A") (A') (A") (A')
                 (A') (A") (A') (A") (A') (A") (A') (A') (A") (A")
                 (A") (A") (A') (A') (A") (A') (A') (A") (A') (A')
                 (A') (A") (A') (A") (A') (A") (A") (A') (A') (A')
                 (A") (A') (A") (A') (A')
 ExpMin= 1.61D-01 ExpMax= 4.17D+03 ExpMxC= 6.27D+02 IAcc=3 IRadAn=         5 AccDes= 0.00D+00
 Harris functional with IExCor=  402 and IRadAn=       5 diagonalized for initial guess.
 HarFok:  IExCor=  402 AccDes= 0.00D+00 IRadAn=         5 IDoV= 1 UseB2=F ITyADJ=14
 ICtDFT=  3500011 ScaDFX=  1.000000  1.000000  1.000000  1.000000
 FoFCou: FMM=F IPFlag=           0 FMFlag=      100000 FMFlg1=           0
         NFxFlg=           0 DoJE=T BraDBF=F KetDBF=T FulRan=T
         wScrn=  0.000000 ICntrl=       500 IOpCl=  0 I1Cent=   200000004 NGrid=           0
         NMat0=    1 NMatS0=      1 NMatT0=    0 NMatD0=    1 NMtDS0=    0 NMtDT0=    0
 Petite list used in FoFCou.
 Requested convergence on RMS density matrix=1.00D-08 within 128 cycles.
 Requested convergence on MAX density matrix=1.00D-06.
 Requested convergence on             energy=1.00D-06.
 No special actions if energy rises.
 Integral accuracy reduced to 1.0D-05 until final iterations.
 Initial convergence to 1.0D-05 achieved.  Increase integral accuracy.
 SCF Done:  E(RB3LYP) =  -287.639014101     A.U. after   11 cycles
            NFock= 11  Conv=0.58D-08     -V/T= 2.0099
 Calling FoFJK, ICntrl=      2127 FMM=F ISym2X=1 I1Cent= 0 IOpClX= 0 NMat=1 NMatS=1 NMatT=0.
 ***** Axes restored to original set *****
 -------------------------------------------------------------------
 Center     Atomic                   Forces (Hartrees/Bohr)
 Number     Number              X              Y              Z
 -------------------------------------------------------------------
      1        7           0.008586696    0.001535288   -0.002441330
      2        6          -0.014567487   -0.003059006    0.004467701
      3        6           0.006355364    0.002457846   -0.000011101
      4        6          -0.003703493   -0.002284664   -0.001192156
      5        6           0.003040768    0.000521763   -0.000848812
      6        6          -0.003012130    0.000893448    0.003238148
      7        6           0.005798905   -0.000100131   -0.003576934
      8        1          -0.000861440   -0.001747581   -0.002488613
      9        1          -0.000075233    0.001866519    0.002549462
     10        1          -0.000982111    0.000391529    0.000968317
     11        1           0.000291130    0.000755257    0.000963754
     12        1           0.000356815    0.000090558   -0.000120645
     13        1          -0.000023415   -0.000690665   -0.001051868
     14        1          -0.001204368   -0.000630162   -0.000455925
 -------------------------------------------------------------------
 Cartesian Forces:  Max     0.014567487 RMS     0.003432346

 GradGradGradGradGradGradGradGradGradGradGradGradGradGradGradGradGradGrad
 Berny optimization.
 Using GEDIIS/GDIIS optimizer.
 FormGI is forming the generalized inverse of G from B-inverse, IUseBI=4.
 Internal  Forces:  Max     0.008180750 RMS     0.001568983
 Search for a local minimum.
 Step number   4 out of a maximum of   73
 All quantities printed in internal units (Hartrees-Bohrs-Radians)
 Mixed Optimization -- RFO/linear search
 Update second derivatives using D2CorX and points    1    2    3    4
 DE= -2.21D-04 DEPred=-2.43D-04 R= 9.09D-01
 TightC=F SS=  1.41D+00  RLast= 2.87D-01 DXNew= 8.0148D-01 8.6211D-01
 Trust test= 9.09D-01 RLast= 2.87D-01 DXMaxT set to 8.01D-01
 ITU=  1  1  1  0
 Use linear search instead of GDIIS.
     Eigenvalues ---    0.01296   0.01856   0.02139   0.02160   0.02166
     Eigenvalues ---    0.02166   0.02169   0.02177   0.02189   0.02191
     Eigenvalues ---    0.02242   0.15989   0.16000   0.16000   0.16000
     Eigenvalues ---    0.16000   0.16105   0.17157   0.22000   0.22546
     Eigenvalues ---    0.24969   0.25456   0.35966   0.35976   0.36027
     Eigenvalues ---    0.36113   0.36774   0.42237   0.43350   0.45810
     Eigenvalues ---    0.46370   0.46560   0.46914   0.47055   0.50860
     Eigenvalues ---    0.73947
 RFO step:  Lambda=-1.63032496D-04 EMin= 1.29638137D-02
 Quartic linear search produced a step of -0.27972.
 Iteration  1 RMS(Cart)=  0.00548891 RMS(Int)=  0.00060416
 Iteration  2 RMS(Cart)=  0.00007153 RMS(Int)=  0.00059881
 Iteration  3 RMS(Cart)=  0.00000009 RMS(Int)=  0.00059881
[...]
                 (A") (A') (A') (A") (A") (A') (A') (A') (A") (A')
                 (A') (A') (A") (A') (A") (A') (A") (A') (A") (A")
                 (A') (A") (A') (A") (A') (A') (A") (A") (A') (A")
                 (A') (A') (A") (A") (A') (A") (A") (A') (A") (A')
                 (A") (A') (A') (A") (A") (A') (A') (A') (A") (A')
                 (A') (A") (A") (A') (A') (A') (A") (A") (A') (A')
                 (A") (A") (A') (A') (A") (A') (A') (A") (A") (A')
                 (A') (A") (A") (A') (A") (A') (A') (A') (A") (A')
                 (A") (A") (A') (A') (A") (A") (A') (A') (A') (A")
                 (A") (A') (A') (A')
 Requested convergence on RMS density matrix=1.00D-08 within 128 cycles.
 Requested convergence on MAX density matrix=1.00D-06.
 Requested convergence on             energy=1.00D-06.
 No special actions if energy rises.
 SCF Done:  E(RM062X) =  -287.584400987     A.U. after    1 cycles
            NFock=  1  Conv=0.73D-09     -V/T= 2.0055
 DoSCS=F DFT=T ScalE2(SS,OS)=  1.000000  1.000000
 Range of M.O.s used for correlation:     1   259
 NBasis=   259 NAE=    25 NBE=    25 NFC=     0 NFV=     0
 NROrb=    259 NOA=    25 NOB=    25 NVA=   234 NVB=   234

 **** Warning!!: The largest alpha MO coefficient is  0.56613031D+02

          Differentiating once with respect to magnetic field using GIAOs.
          Electric field/nuclear overlap derivatives assumed to be zero.
 FoFCou: FMM=F IPFlag=           0 FMFlag=      100000 FMFlg1=           0
         NFxFlg=           0 DoJE=F BraDBF=F KetDBF=T FulRan=T
         wScrn=  0.000000 ICntrl=      6100 IOpCl=  0 I1Cent=           7 NGrid=          14
         NMat0=    1 NMatS0=      1 NMatT0=    0 NMatD0=    1 NMtDS0=    0 NMtDT0=    0
 Symmetry not used in FoFCou.
   1 Symmetry operations used in ECPInt.
 ECPInt:  NShTT=    5565 NPrTT=   16828 LenC2=    5566 LenP2D=   16828.
 LDataN:  DoStor=T MaxTD1= 7 Len=  274
 FoFJK:  IHMeth= 1 ICntrl=    6127 DoSepK=F KAlg= 0 I1Cent=           0 FoldK=F
 IRaf=         1 NMat=       1 IRICut=       1 DoRegI=T DoRafI=F ISym2E= 0 IDoP0=0 IntGTp=1.
          There are     3 degrees of freedom in the 1st order CPHF.  IDoFFX=0 NUNeed=     3.
      3 vectors produced by pass  0 Test12= 1.95D-13 3.33D-08 XBig12= 4.83D+00 7.54D-01.
 AX will form     3 AO Fock derivatives at one time.
      3 vectors produced by pass  1 Test12= 1.95D-13 3.33D-08 XBig12= 3.23D-02 1.15D-01.
      3 vectors produced by pass  2 Test12= 1.95D-13 3.33D-08 XBig12= 6.33D-04 1.21D-02.
      3 vectors produced by pass  3 Test12= 1.95D-13 3.33D-08 XBig12= 4.56D-06 6.41D-04.
      3 vectors produced by pass  4 Test12= 1.95D-13 3.33D-08 XBig12= 3.98D-08 6.08D-05.
      3 vectors produced by pass  5 Test12= 1.95D-13 3.33D-08 XBig12= 3.35D-10 6.31D-06.
      3 vectors produced by pass  6 Test12= 1.95D-13 3.33D-08 XBig12= 3.00D-12 4.41D-07.
      1 vectors produced by pass  7 Test12= 1.95D-13 3.33D-08 XBig12= 3.21D-14 3.99D-08.
 InvSVY:  IOpt=1 It=  1 EMax= 4.44D-16
 Solved reduced A of dimension    22 with     3 vectors.
 Calculating GIAO nuclear magnetic shielding tensors.
 SCF GIAO Magnetic shielding tensor (ppm):
      1  N    Isotropic =   188.0959   Anisotropy =    98.6136
   XX=   158.7088   YX=   -38.0333   ZX=     0.0000
   XY=     9.6645   YY=   251.7234   ZY=    -0.0000
   XZ=     0.0000   YZ=     0.0000   ZZ=   153.8556
   Eigenvalues:   153.8556   156.5938   253.8384
      2  C    Isotropic =    15.0145   Anisotropy =   207.6580
   XX=   153.4440   YX=    -0.5939   ZX=    -0.0000
   XY=    -2.4473   YY=   -97.7184   ZY=    -0.0000
   XZ=    -0.0000   YZ=     0.0000   ZZ=   -10.6820
   Eigenvalues:   -97.7276   -10.6820   153.4532
      3  C    Isotropic =    52.6624   Anisotropy =   168.5380
   XX=   164.9582   YX=     4.7264   ZX=     0.2531
   XY=     1.1262   YY=    22.4014   ZY=    39.5769
   XZ=    -0.5355   YZ=    44.0271   ZZ=   -29.3725
   Eigenvalues:   -52.6650    45.6311   165.0211
      4  C    Isotropic =    34.0423   Anisotropy =   215.3899
   XX=   177.6349   YX=     0.0728   ZX=     0.3729
   XY=     0.4468   YY=    -8.9228   ZY=   -50.1491
   XZ=     0.2944   YZ=   -50.3996   ZZ=   -66.5852
   Eigenvalues:   -95.7093    20.2007   177.6356
      5  C    Isotropic =    47.7301   Anisotropy =   198.8979
   XX=   180.3269   YX=    -1.5825   ZX=    -0.0000
   XY=     0.2645   YY=   -74.2593   ZY=    -0.0000
   XZ=    -0.0000   YZ=    -0.0000   ZZ=    37.1226
   Eigenvalues:   -74.2610    37.1226   180.3287
      6  C    Isotropic =    34.0423   Anisotropy =   215.3899
   XX=   177.6349   YX=     0.0728   ZX=    -0.3729
   XY=     0.4468   YY=    -8.9228   ZY=    50.1491
   XZ=    -0.2944   YZ=    50.3996   ZZ=   -66.5852
   Eigenvalues:   -95.7093    20.2007   177.6356
      7  C    Isotropic =    52.6624   Anisotropy =   168.5380
   XX=   164.9582   YX=     4.7264   ZX=    -0.2531
   XY=     1.1262   YY=    22.4014   ZY=   -39.5769
   XZ=     0.5355   YZ=   -44.0271   ZZ=   -29.3725
   Eigenvalues:   -52.6650    45.6311   165.0211
      8  H    Isotropic =    28.6656   Anisotropy =    10.6781
   XX=    23.0430   YX=     3.6145   ZX=    -2.1794
   XY=     2.3995   YY=    30.8349   ZY=    -5.7514
   XZ=    -1.8437   YZ=    -0.8342   ZZ=    32.1189
   Eigenvalues:    21.9367    28.2758    35.7843
      9  H    Isotropic =    28.6656   Anisotropy =    10.6781
   XX=    23.0430   YX=     3.6145   ZX=     2.1794
   XY=     2.3995   YY=    30.8349   ZY=     5.7514
   XZ=     1.8437   YZ=     0.8342   ZZ=    32.1189
   Eigenvalues:    21.9367    28.2758    35.7843
     10  H    Isotropic =    24.5820   Anisotropy =     7.0706
   XX=    21.7955   YX=     0.0840   ZX=    -0.1275
   XY=     0.0660   YY=    27.7195   ZY=     3.1840
   XZ=    -0.0137   YZ=     2.4666   ZZ=    24.2309
   Eigenvalues:    21.7843    22.6659    29.2957
     11  H    Isotropic =    23.9540   Anisotropy =     5.8516
   XX=    21.5034   YX=     0.0277   ZX=    -0.0021
   XY=     0.0818   YY=    26.7633   ZY=    -2.2252
   XZ=     0.0157   YZ=    -2.0870   ZZ=    23.5952
   Eigenvalues:    21.5021    22.5047    27.8550
     12  H    Isotropic =    24.4732   Anisotropy =     5.0199
   XX=    22.0545   YX=    -0.1666   ZX=     0.0000
   XY=     0.0756   YY=    23.5453   ZY=    -0.0000
   XZ=     0.0000   YZ=     0.0000   ZZ=    27.8198
   Eigenvalues:    22.0531    23.5467    27.8198
     13  H    Isotropic =    23.9540   Anisotropy =     5.8516
   XX=    21.5034   YX=     0.0277   ZX=     0.0021
   XY=     0.0818   YY=    26.7633   ZY=     2.2252
   XZ=    -0.0157   YZ=     2.0870   ZZ=    23.5952
   Eigenvalues:    21.5021    22.5047    27.8550
     14  H    Isotropic =    24.5820   Anisotropy =     7.0706
   XX=    21.7955   YX=     0.0840   ZX=     0.1275
   XY=     0.0660   YY=    27.7195   ZY=    -3.1840
   XZ=     0.0137   YZ=    -2.4666   ZZ=    24.2309
   Eigenvalues:    21.7843    22.6659    29.2957
 End of Minotr F.D. properties file   721 does not exist.
 End of Minotr F.D. properties file   722 does not exist.
 End of Minotr F.D. properties file   788 does not exist.

 **********************************************************************

            Population analysis using the SCF Density.

 **********************************************************************

 Orbital symmetries:
       Occupied  (A') (A') (A') (A") (A") (A') (A') (A') (A') (A")
                 (A') (A") (A') (A') (A") (A') (A') (A") (A") (A')
                 (A') (A") (A') (A") (A')
       Virtual   (A") (A') (A') (A') (A") (A") (A') (A') (A") (A')
                 (A') (A') (A') (A') (A") (A") (A") (A') (A") (A')
                 (A') (A") (A") (A') (A') (A') (A") (A') (A') (A')
                 (A") (A') (A') (A") (A') (A") (A") (A') (A') (A")
                 (A') (A') (A") (A") (A') (A') (A") (A') (A") (A")
                 (A') (A') (A") (A") (A') (A') (A") (A') (A') (A")
                 (A') (A") (A') (A") (A") (A') (A') (A') (A") (A')
                 (A") (A") (A') (A') (A") (A') (A') (A") (A") (A')
                 (A') (A') (A') (A") (A") (A') (A") (A') (A') (A')
                 (A") (A") (A') (A") (A') (A') (A") (A") (A') (A')
                 (A") (A') (A') (A") (A") (A') (A') (A') (A") (A')
                 (A") (A") (A') (A") (A') (A") (A') (A") (A') (A")
                 (A') (A') (A") (A') (A") (A') (A") (A') (A") (A')
                 (A') (A') (A") (A") (A') (A") (A') (A") (A') (A')
                 (A") (A') (A') (A") (A") (A') (A') (A') (A") (A')
                 (A') (A') (A") (A') (A") (A') (A") (A') (A") (A")
                 (A') (A") (A') (A") (A') (A') (A") (A") (A') (A")
                 (A') (A') (A") (A") (A') (A") (A") (A') (A") (A')
                 (A") (A') (A') (A") (A") (A') (A') (A') (A") (A')
                 (A') (A") (A") (A') (A') (A') (A") (A") (A') (A')
                 (A") (A") (A') (A') (A") (A') (A') (A") (A") (A')
                 (A') (A") (A") (A') (A") (A') (A') (A') (A") (A')
                 (A") (A") (A') (A') (A") (A") (A') (A') (A') (A")
                 (A") (A') (A') (A')
 The electronic state is 1-A'.
 Alpha  occ. eigenvalues --  -14.75221 -10.58155 -10.53874 -10.53873 -10.53395
 Alpha  occ. eigenvalues --  -10.53394 -10.52837  -1.02705  -0.93647  -0.83746
 Alpha  occ. eigenvalues --   -0.81650  -0.69251  -0.67707  -0.59687  -0.57963
 Alpha  occ. eigenvalues --   -0.54724  -0.49672  -0.48992  -0.48112  -0.45642
 Alpha  occ. eigenvalues --   -0.41459  -0.39635  -0.37973  -0.30402  -0.25981
 Alpha virt. eigenvalues --    0.02524   0.04013   0.06434   0.09089   0.09749
 Alpha virt. eigenvalues --    0.12745   0.12778   0.15325   0.16491   0.16651
 Alpha virt. eigenvalues --    0.19542   0.22341   0.24312   0.24955   0.25077
 Alpha virt. eigenvalues --    0.26647   0.27847   0.28849   0.29002   0.29852
 Alpha virt. eigenvalues --    0.32957   0.34658   0.36066   0.36402   0.37546
 Alpha virt. eigenvalues --    0.38257   0.39693   0.41513   0.43769   0.44293
 Alpha virt. eigenvalues --    0.44700   0.45100   0.45971   0.47312   0.48243
 Alpha virt. eigenvalues --    0.48347   0.50325   0.51123   0.51620   0.54007
 Alpha virt. eigenvalues --    0.54867   0.55120   0.57342   0.60068   0.60724
 Alpha virt. eigenvalues --    0.66035   0.69337   0.70407   0.71292   0.73753
 Alpha virt. eigenvalues --    0.74563   0.76565   0.78862   0.79594   0.80653
 Alpha virt. eigenvalues --    0.86592   0.88933   0.90716   0.91343   0.91529
 Alpha virt. eigenvalues --    0.93270   1.04049   1.04552   1.06628   1.08521
 Alpha virt. eigenvalues --    1.09611   1.11260   1.15574   1.19196   1.21923
 Alpha virt. eigenvalues --    1.22385   1.24119   1.25067   1.26423   1.29104
 Alpha virt. eigenvalues --    1.31688   1.32550   1.37212   1.40275   1.41151
 Alpha virt. eigenvalues --    1.41385   1.46374   1.48271   1.49149   1.50717
 Alpha virt. eigenvalues --    1.53135   1.54990   1.56931   1.59272   1.61098
 Alpha virt. eigenvalues --    1.63947   1.65892   1.66379   1.70516   1.72326
 Alpha virt. eigenvalues --    1.74094   1.75068   1.75930   1.77348   1.79053
 Alpha virt. eigenvalues --    1.79471   1.86142   1.89755   1.93350   1.95428
 Alpha virt. eigenvalues --    1.95852   2.01676   2.05225   2.05521   2.09336
 Alpha virt. eigenvalues --    2.10802   2.12272   2.15938   2.18612   2.21233
 Alpha virt. eigenvalues --    2.23584   2.26926   2.30511   2.30762   2.34972
 Alpha virt. eigenvalues --    2.44005   2.45150   2.49472   2.51615   2.53558
 Alpha virt. eigenvalues --    2.55018   2.57591   2.59830   2.61571   2.62794
 Alpha virt. eigenvalues --    2.64184   2.67465   2.67662   2.68942   2.70565
 Alpha virt. eigenvalues --    2.71361   2.73987   2.76821   2.77385   2.77850
 Alpha virt. eigenvalues --    2.78708   2.83084   2.84934   2.85187   2.87300
 Alpha virt. eigenvalues --    2.88561   2.91366   2.91485   2.98509   2.99551
 Alpha virt. eigenvalues --    3.01990   3.07508   3.09781   3.10871   3.12998
 Alpha virt. eigenvalues --    3.14010   3.14964   3.15403   3.15527   3.21850
 Alpha virt. eigenvalues --    3.22351   3.23009   3.23434   3.24991   3.30027
 Alpha virt. eigenvalues --    3.32005   3.32693   3.36353   3.36361   3.40688
 Alpha virt. eigenvalues --    3.41502   3.42546   3.44028   3.46646   3.47857
 Alpha virt. eigenvalues --    3.49041   3.53183   3.53334   3.61129   3.61480
 Alpha virt. eigenvalues --    3.69442   3.72027   3.74472   3.78211   3.84190
 Alpha virt. eigenvalues --    3.84899   3.93710   3.98278   3.99457   4.03540
 Alpha virt. eigenvalues --    4.04659   4.07085   4.11988   4.13901   4.14487
 Alpha virt. eigenvalues --    4.16520   4.18106   4.20431   4.21558   4.24813
 Alpha virt. eigenvalues --    4.25154   4.39400   4.39528   4.53930   4.54197
 Alpha virt. eigenvalues --    4.56078   4.61502   4.63483   4.70675   4.73642
 Alpha virt. eigenvalues --    4.81330   4.81333   4.85450   4.89936   4.92976
 Alpha virt. eigenvalues --    5.01698   5.06538   5.14844   5.19312   5.21055
 Alpha virt. eigenvalues --    5.24007   5.30941   5.40908   5.49923   5.51617
 Alpha virt. eigenvalues --    5.78409   5.83783  22.18626  22.68183  22.69427
 Alpha virt. eigenvalues --   22.79784  22.87824  23.25379  32.16238
          Condensed to atoms (all electrons):
               1          2          3          4          5          6
     1  N    6.636230   0.240267  -0.045979  -0.001188   0.004043  -0.001188
     2  C    0.240267   4.725623   0.491288  -0.022244  -0.063282  -0.022244
     3  C   -0.045979   0.491288   5.055991   0.472937  -0.020595  -0.087622
     4  C   -0.001188  -0.022244   0.472937   4.912338   0.505039  -0.009237
     5  C    0.004043  -0.063282  -0.020595   0.505039   4.930436   0.505039
     6  C   -0.001188  -0.022244  -0.087622  -0.009237   0.505039   4.912338
     7  C   -0.045979   0.491288   0.016369  -0.087622  -0.020595   0.472937
     8  H    0.380079  -0.039781  -0.010074   0.001331  -0.000007  -0.000921
     9  H    0.380079  -0.039781   0.003456  -0.000921  -0.000007   0.001331
    10  H    0.000932  -0.036155   0.385624  -0.006640   0.001722   0.000774
    11  H   -0.000212   0.007115  -0.040419   0.412808  -0.035771   0.005488
    12  H    0.000036  -0.001577   0.008297  -0.040188   0.414086  -0.040188
    13  H   -0.000212   0.007115  -0.001104   0.005488  -0.035771   0.412808
    14  H    0.000932  -0.036155   0.002424   0.000774   0.001722  -0.006640
               7          8          9         10         11         12
     1  N   -0.045979   0.380079   0.380079   0.000932  -0.000212   0.000036
     2  C    0.491288  -0.039781  -0.039781  -0.036155   0.007115  -0.001577
     3  C    0.016369  -0.010074   0.003456   0.385624  -0.040419   0.008297
     4  C   -0.087622   0.001331  -0.000921  -0.006640   0.412808  -0.040188
     5  C   -0.020595  -0.000007  -0.000007   0.001722  -0.035771   0.414086
     6  C    0.472937  -0.000921   0.001331   0.000774   0.005488  -0.040188
     7  C    5.055991   0.003456  -0.010074   0.002424  -0.001104   0.008297
     8  H    0.003456   0.455472  -0.031210   0.002670  -0.000031  -0.000003
     9  H   -0.010074  -0.031210   0.455472  -0.000260   0.000024  -0.000003
    10  H    0.002424   0.002670  -0.000260   0.510740  -0.004827  -0.000252
    11  H   -0.001104  -0.000031   0.000024  -0.004827   0.522406  -0.004077
    12  H    0.008297  -0.000003  -0.000003  -0.000252  -0.004077   0.521347
    13  H   -0.040419   0.000024  -0.000031   0.000075  -0.000306  -0.004077
    14  H    0.385624  -0.000260   0.002670  -0.000417   0.000075  -0.000252
              13         14
     1  N   -0.000212   0.000932
     2  C    0.007115  -0.036155
     3  C   -0.001104   0.002424
     4  C    0.005488   0.000774
     5  C   -0.035771   0.001722
     6  C    0.412808  -0.006640
     7  C   -0.040419   0.385624
     8  H    0.000024  -0.000260
     9  H   -0.000031   0.002670
    10  H    0.000075  -0.000417
    11  H   -0.000306   0.000075
    12  H   -0.004077  -0.000252
    13  H    0.522406  -0.004827
    14  H   -0.004827   0.510740
 Mulliken charges:
               1
     1  N   -0.547839
     2  C    0.298523
     3  C   -0.230593
     4  C   -0.142673
     5  C   -0.186058
     6  C   -0.142673
     7  C   -0.230593
     8  H    0.239254
     9  H    0.239254
    10  H    0.143590
    11  H    0.138831
    12  H    0.138556
    13  H    0.138831
    14  H    0.143590
 Sum of Mulliken charges =  -0.00000
 Mulliken charges with hydrogens summed into heavy atoms:
               1
     1  N   -0.069330
     2  C    0.298523
     3  C   -0.087003
     4  C   -0.003842
     5  C   -0.047503
     6  C   -0.003842
     7  C   -0.087003
 Electronic spatial extent (au):  <R**2>=            687.1602
 Charge=             -0.0000 electrons
 Dipole moment (field-independent basis, Debye):
    X=              1.0216    Y=              1.1888    Z=              0.0000  Tot=              1.5674
 Quadrupole moment (field-independent basis, Debye-Ang):
   XX=            -46.9820   YY=            -35.1298   ZZ=            -36.5130
   XY=              3.3323   XZ=             -0.0000   YZ=              0.0000
 Traceless Quadrupole moment (field-independent basis, Debye-Ang):
   XX=             -7.4404   YY=              4.4118   ZZ=              3.0286
   XY=              3.3323   XZ=             -0.0000   YZ=              0.0000
 Octapole moment (field-independent basis, Debye-Ang**2):
  XXX=              0.7401  YYY=             14.9637  ZZZ=              0.0000  XYY=              9.9514
  XXY=              3.0323  XXZ=              0.0000  XZZ=              0.6770  YZZ=              5.3675
  YYZ=              0.0000  XYZ=             -0.0000
 Hexadecapole moment (field-independent basis, Debye-Ang**3):
 XXXX=            -55.8278 YYYY=           -502.8590 ZZZZ=           -282.8286 XXXY=              0.9498
 XXXZ=             -0.0000 YYYX=             28.2862 YYYZ=              0.0000 ZZZX=             -0.0000
 ZZZY=             -0.0000 XXYY=           -117.5592 XXZZ=            -67.5321 YYZZ=           -122.7383
 XXYZ=              0.0000 YYXZ=             -0.0000 ZZXY=              2.0356
 N-N= 2.711883792955D+02 E-N=-1.210071004454D+03  KE= 2.860253010802D+02
 Symmetry A'   KE= 2.029204194272D+02
 Symmetry A"   KE= 8.310488165300D+01
 Unable to Open any file for archive entry.
 1\1\GINC-NOTCH023\SP\RM062X\def2TZVP\C6H7N1\U1262707\08-Jun-2023\0\\# 
 M062X/def2tzvp int=(grid=ultrafine) nmr=giao guess=read geom=check\\an
 1.xyz\\0,1\N,0,2.1695152051,0.4753601677,-0.6795688584\C,0,0.864045262
 4,0.1898509663,-0.2710341854\C,0,0.0332762618,-0.6316326394,-1.0504836
 462\C,0,-1.2848026887,-0.8665837437,-0.6690110598\C,0,-1.8054621765,-0
 .2933263492,0.4921613504\C,0,-0.9823910406,0.5235670344,1.2688664513\C
 ,0,0.3371558995,0.765266314,0.8968008567\H,0,2.586374397,-0.2225538518
 ,-1.2803747293\H,0,2.7965619778,0.7436537357,0.0665237399\H,0,0.427248
 0802,-1.080271488,-1.9588856009\H,0,-1.9087732379,-1.5067702993,-1.286
 0119916\H,0,-2.8327517107,-0.4803518047,0.7866370849\H,0,-1.3683475844
 ,0.9775028675,2.1770778957\H,0,0.9681560697,1.406218921,1.5072951336\\
 Version=ES64L-G16RevC.01\State=1-A'\HF=-287.584401\RMSD=7.331e-10\Dipo
 le=0.5614421,-0.2405301,0.0849313\Quadrupole=3.8819351,-3.3474966,-0.5
 344385,0.2480206,-0.4323269,3.9779008\PG=CS [SG(C2H1N1),X(C4H6)]\\@
 The archive entry for this job was punched.


 I DO NOT KNOW WHAT I MAY APPEAR TO THE WORLD; BUT TO MYSELF
 I SEEM TO HAVE BEEN ONLY LIKE A BOY PLAYING ON THE SEASHORE,
 AND DIVERTING MYSELF IN NOW AND THEN FINDING A SMOOTHER PEBBLE
 OR A PRETTIER SHELL THAN ORDINARY, WHILST THE GREAT OCEAN OF
 TRUTH LAY ALL UNDISCOVERED BEFORE ME.
                                          -- NEWTON (1642-1726)
 Job cpu time:       0 days  0 hours  5 minutes 59.8 seconds.
 Elapsed time:       0 days  0 hours  0 minutes 13.9 seconds.
 File lengths (MBytes):  RWF=     44 Int=      0 D2E=      0 Chk=      8 Scr=      1
 Normal termination of Gaussian 16 at Thu Jun  8 13:07:55 2023.
