 Entering Gaussian System, Link 0=/share/apps/gaussian/g16/g16
 Initial command:
 /share/apps/gaussian/g16/l1.exe "/scratch/144407.kestrel.chem.wisc.edu/Gau-126457.inp" -scrdir="/scratch/144407.kestrel.chem.wisc.edu/"
 Entering Link 1 = /share/apps/gaussian/g16/l1.exe PID=    126458.
  
 Copyright (c) 1988-2019, Gaussian, Inc.  All Rights Reserved.
  
 This is part of the Gaussian(R) 16 program.  It is based on
 the Gaussian(R) 09 system (copyright 2009, Gaussian, Inc.),
 the Gaussian(R) 03 system (copyright 2003, Gaussian, Inc.),
 the Gaussian(R) 98 system (copyright 1998, Gaussian, Inc.),
 the Gaussian(R) 94 system (copyright 1995, Gaussian, Inc.),
 the Gaussian 92(TM) system (copyright 1992, Gaussian, Inc.),
 the Gaussian 90(TM) system (copyright 1990, Gaussian, Inc.),
 the Gaussian 88(TM) system (copyright 1988, Gaussian, Inc.),
 the Gaussian 86(TM) system (copyright 1986, Carnegie Mellon
 University), and the Gaussian 82(TM) system (copyright 1983,
 Carnegie Mellon University). Gaussian is a federally registered
 trademark of Gaussian, Inc.
  
 This software contains proprietary and confidential information,
 including trade secrets, belonging to Gaussian, Inc.
  
 This software is provided under written license and may be
 used, copied, transmitted, or stored only in accord with that
 written license.
  
 The following legend is applicable only to US Government
 contracts under FAR:
  
                    RESTRICTED RIGHTS LEGEND
  
 Use, reproduction and disclosure by the US Government is
 subject to restrictions as set forth in subparagraphs (a)
 and (c) of the Commercial Computer Software - Restricted
 Rights clause in FAR 52.227-19.
  
 Gaussian, Inc.
 340 Quinnipiac St., Bldg. 40, Wallingford CT 06492
  
  
 ---------------------------------------------------------------
 Warning -- This program may not be used in any manner that
 competes with the business of Gaussian, Inc. or will provide
 assistance to any competitor of Gaussian, Inc.  The licensee
 of this program is prohibited from giving any competitor of
 Gaussian, Inc. access to this program.  By using this program,
 the user acknowledges that Gaussian, Inc. is engaged in the
 business of creating and licensing software in the field of
 computational chemistry and represents and warrants to the
 licensee that it is not a competitor of Gaussian, Inc. and that
 it will not use this program in any manner prohibited above.
 ---------------------------------------------------------------
  

 Cite this work as:
 Gaussian 16, Revision C.01,
 M. J. Frisch, G. W. Trucks, H. B. Schlegel, G. E. Scuseria, 
 M. A. Robb, J. R. Cheeseman, G. Scalmani, V. Barone, 
 G. A. Petersson, H. Nakatsuji, X. Li, M. Caricato, A. V. Marenich, 
 J. Bloino, B. G. Janesko, R. Gomperts, B. Mennucci, H. P. Hratchian, 
 J. V. Ortiz, A. F. Izmaylov, J. L. Sonnenberg, D. Williams-Young, 
 F. Ding, F. Lipparini, F. Egidi, J. Goings, B. Peng, A. Petrone, 
 T. Henderson, D. Ranasinghe, V. G. Zakrzewski, J. Gao, N. Rega, 
 G. Zheng, W. Liang, M. Hada, M. Ehara, K. Toyota, R. Fukuda, 
 J. Hasegawa, M. Ishida, T. Nakajima, Y. Honda, O. Kitao, H. Nakai, 
 T. Vreven, K. Throssell, J. A. Montgomery, Jr., J. E. Peralta, 
 F. Ogliaro, M. J. Bearpark, J. J. Heyd, E. N. Brothers, K. N. Kudin, 
 V. N. Staroverov, T. A. Keith, R. Kobayashi, J. Normand, 
 K. Raghavachari, A. P. Rendell, J. C. Burant, S. S. Iyengar, 
 J. Tomasi, M. Cossi, J. M. Millam, M. Klene, C. Adamo, R. Cammi, 
 J. W. Ochterski, R. L. Martin, K. Morokuma, O. Farkas, 
 J. B. Foresman, and D. J. Fox, Gaussian, Inc., Wallingford CT, 2019.
 
 ******************************************
 Gaussian 16:  ES64L-G16RevC.01  3-Jul-2019
                16-Feb-2023 
 ******************************************
 %nprocs=16
 Will use up to   16 processors via shared memory.
 %mem=16GB
 %chk=an2_conf-1.chk
 ----------------------------------------------------------------------
 # B3LYP/6-31G(d,p) symmetry=loose empiricaldispersion=GD3BJ int=(grid=
 ultrafine) opt freq=noraman
 ----------------------------------------------------------------------
 1/18=20,19=15,26=4,38=1/1,3;
 2/9=110,12=2,17=4,18=3,40=1/2;
 3/5=1,6=6,7=101,11=2,25=1,30=1,71=1,74=-5,75=-5,124=41/1,2,3;
 4//1;
 5/5=2,38=5/2;
 6/7=2,8=2,9=2,10=2,28=1/1;
 7//1,2,3,16;
 1/18=20,19=15,26=4/3(2);
 2/9=110/2;
 99//99;
 2/9=110/2;
 3/5=1,6=6,7=101,11=2,25=1,30=1,71=1,74=-5,75=-5,124=41/1,2,3;
 4/5=5,16=3,69=1/1;
 5/5=2,38=5/2;
 7//1,2,3,16;
 1/18=20,19=15,26=4/3(-5);
 2/9=110/2;
 6/7=2,8=2,9=2,10=2,19=2,28=1/1;
 99/9=1/99;
 -------
 an2.xyz
 -------
 Symbolic Z-matrix:
 Charge =  0 Multiplicity = 1
 C                    -2.7003   -0.0973   -0.0222 
 C                    -1.184    -0.0429   -0.0087 
 C                    -0.4433   -1.1921   -0.2941 
 C                     0.949    -1.1374   -0.2944 
 C                     1.5908    0.0638   -0.014 
 N                     2.9775    0.1156   -0.0101 
 C                     0.8597    1.2131    0.2655 
 C                    -0.5327    1.1616    0.2666 
 H                    -3.0588   -0.839    -0.737 
 H                    -3.1237    0.8597   -0.3295 
 H                    -3.0835   -0.3494    0.9669 
 H                    -0.9408   -2.1251   -0.5143 
 H                     1.5208   -2.0252   -0.5154 
 H                     3.4855   -0.7532   -0.0619 
 H                     3.4208    0.9486    0.3435 
 H                     1.3624    2.1438    0.4777 
 H                    -1.0996    2.0554    0.4815 
 

 GradGradGradGradGradGradGradGradGradGradGradGradGradGradGradGradGradGrad
 Berny optimization.
 Initialization pass.
                           ----------------------------
                           !    Initial Parameters    !
                           ! (Angstroms and Degrees)  !
 --------------------------                            --------------------------
 ! Name  Definition              Value          Derivative Info.                !
 --------------------------------------------------------------------------------
 ! R1    R(1,2)                  1.5173         estimate D2E/DX2                !
 ! R2    R(1,9)                  1.0907         estimate D2E/DX2                !
 ! R3    R(1,10)                 1.0907         estimate D2E/DX2                !
 ! R4    R(1,11)                 1.0903         estimate D2E/DX2                !
 ! R5    R(2,3)                  1.3967         estimate D2E/DX2                !
 ! R6    R(2,8)                  1.3967         estimate D2E/DX2                !
 ! R7    R(3,4)                  1.3934         estimate D2E/DX2                !
 ! R8    R(3,12)                 1.08           estimate D2E/DX2                !
 ! R9    R(4,5)                  1.3905         estimate D2E/DX2                !
 ! R10   R(4,13)                 1.0789         estimate D2E/DX2                !
 ! R11   R(5,6)                  1.3877         estimate D2E/DX2                !
 ! R12   R(5,7)                  1.3905         estimate D2E/DX2                !
 ! R13   R(6,14)                 1.0078         estimate D2E/DX2                !
 ! R14   R(6,15)                 1.0077         estimate D2E/DX2                !
 ! R15   R(7,8)                  1.3934         estimate D2E/DX2                !
 ! R16   R(7,16)                 1.0789         estimate D2E/DX2                !
 ! R17   R(8,17)                 1.08           estimate D2E/DX2                !
 ! A1    A(2,1,9)              111.0193         estimate D2E/DX2                !
 ! A2    A(2,1,10)             111.038          estimate D2E/DX2                !
 ! A3    A(2,1,11)             110.5759         estimate D2E/DX2                !
 ! A4    A(9,1,10)             106.5254         estimate D2E/DX2                !
 ! A5    A(9,1,11)             108.7709         estimate D2E/DX2                !
 ! A6    A(10,1,11)            108.7871         estimate D2E/DX2                !
 ! A7    A(1,2,3)              119.9104         estimate D2E/DX2                !
 ! A8    A(1,2,8)              119.9116         estimate D2E/DX2                !
 ! A9    A(3,2,8)              120.1689         estimate D2E/DX2                !
 ! A10   A(2,3,4)              119.8452         estimate D2E/DX2                !
 ! A11   A(2,3,12)             120.5414         estimate D2E/DX2                !
 ! A12   A(4,3,12)             119.6134         estimate D2E/DX2                !
 ! A13   A(3,4,5)              119.6753         estimate D2E/DX2                !
 ! A14   A(3,4,13)             119.8232         estimate D2E/DX2                !
 ! A15   A(5,4,13)             120.5012         estimate D2E/DX2                !
 ! A16   A(4,5,6)              119.6078         estimate D2E/DX2                !
 ! A17   A(4,5,7)              120.7887         estimate D2E/DX2                !
 ! A18   A(6,5,7)              119.6033         estimate D2E/DX2                !
 ! A19   A(5,6,14)             118.1261         estimate D2E/DX2                !
 ! A20   A(5,6,15)             118.1287         estimate D2E/DX2                !
 ! A21   A(14,6,15)            120.5934         estimate D2E/DX2                !
 ! A22   A(5,7,8)              119.6716         estimate D2E/DX2                !
 ! A23   A(5,7,16)             120.5021         estimate D2E/DX2                !
 ! A24   A(8,7,16)             119.8259         estimate D2E/DX2                !
 ! A25   A(2,8,7)              119.8486         estimate D2E/DX2                !
 ! A26   A(2,8,17)             120.5403         estimate D2E/DX2                !
 ! A27   A(7,8,17)             119.611          estimate D2E/DX2                !
 ! D1    D(9,1,2,3)            -30.3849         estimate D2E/DX2                !
 ! D2    D(9,1,2,8)            148.5207         estimate D2E/DX2                !
 ! D3    D(10,1,2,3)          -148.6968         estimate D2E/DX2                !
 ! D4    D(10,1,2,8)            30.2089         estimate D2E/DX2                !
 ! D5    D(11,1,2,3)            90.4427         estimate D2E/DX2                !
 ! D6    D(11,1,2,8)           -90.6517         estimate D2E/DX2                !
 ! D7    D(1,2,3,4)            179.3616         estimate D2E/DX2                !
 ! D8    D(1,2,3,12)            -0.6875         estimate D2E/DX2                !
 ! D9    D(8,2,3,4)              0.4588         estimate D2E/DX2                !
 ! D10   D(8,2,3,12)          -179.5903         estimate D2E/DX2                !
 ! D11   D(1,2,8,7)           -179.3598         estimate D2E/DX2                !
 ! D12   D(1,2,8,17)             0.6826         estimate D2E/DX2                !
 ! D13   D(3,2,8,7)             -0.457          estimate D2E/DX2                !
 ! D14   D(3,2,8,17)           179.5854         estimate D2E/DX2                !
 ! D15   D(2,3,4,5)             -0.1909         estimate D2E/DX2                !
 ! D16   D(2,3,4,13)          -179.969          estimate D2E/DX2                !
 ! D17   D(12,3,4,5)           179.8577         estimate D2E/DX2                !
 ! D18   D(12,3,4,13)            0.0797         estimate D2E/DX2                !
 ! D19   D(3,4,5,6)            179.7765         estimate D2E/DX2                !
 ! D20   D(3,4,5,7)             -0.0785         estimate D2E/DX2                !
 ! D21   D(13,4,5,6)            -0.447          estimate D2E/DX2                !
 ! D22   D(13,4,5,7)           179.698          estimate D2E/DX2                !
 ! D23   D(4,5,6,14)            -9.89           estimate D2E/DX2                !
 ! D24   D(4,5,6,15)          -169.9644         estimate D2E/DX2                !
 ! D25   D(7,5,6,14)           169.9668         estimate D2E/DX2                !
 ! D26   D(7,5,6,15)             9.8923         estimate D2E/DX2                !
 ! D27   D(4,5,7,8)              0.0802         estimate D2E/DX2                !
 ! D28   D(4,5,7,16)          -179.6995         estimate D2E/DX2                !
 ! D29   D(6,5,7,8)           -179.7748         estimate D2E/DX2                !
 ! D30   D(6,5,7,16)             0.4455         estimate D2E/DX2                !
 ! D31   D(5,7,8,2)              0.1874         estimate D2E/DX2                !
 ! D32   D(5,7,8,17)          -179.8546         estimate D2E/DX2                !
 ! D33   D(16,7,8,2)           179.9687         estimate D2E/DX2                !
 ! D34   D(16,7,8,17)           -0.0734         estimate D2E/DX2                !
 --------------------------------------------------------------------------------
 Trust Radius=3.00D-01 FncErr=1.00D-07 GrdErr=1.00D-06 EigMax=2.50D+02 EigMin=1.00D-04
 Number of steps in this run=     88 maximum allowed number of steps=    102.
 GradGradGradGradGradGradGradGradGradGradGradGradGradGradGradGradGradGrad

                          Input orientation:                          
 ---------------------------------------------------------------------
 Center     Atomic      Atomic             Coordinates (Angstroms)
 Number     Number       Type             X           Y           Z
 ---------------------------------------------------------------------
      1          6           0       -2.700300   -0.097300   -0.022200
      2          6           0       -1.184000   -0.042900   -0.008700
      3          6           0       -0.443300   -1.192100   -0.294100
      4          6           0        0.949000   -1.137400   -0.294400
      5          6           0        1.590800    0.063800   -0.014000
      6          7           0        2.977500    0.115600   -0.010100
      7          6           0        0.859700    1.213100    0.265500
      8          6           0       -0.532700    1.161600    0.266600
      9          1           0       -3.058800   -0.839000   -0.737000
     10          1           0       -3.123700    0.859700   -0.329500
     11          1           0       -3.083500   -0.349400    0.966900
     12          1           0       -0.940800   -2.125100   -0.514300
     13          1           0        1.520800   -2.025200   -0.515400
     14          1           0        3.485500   -0.753200   -0.061900
     15          1           0        3.420800    0.948600    0.343500
     16          1           0        1.362400    2.143800    0.477700
     17          1           0       -1.099600    2.055400    0.481500
 ---------------------------------------------------------------------
                    Distance matrix (angstroms):
                    1          2          3          4          5
     1  C    0.000000
     2  C    1.517336   0.000000
     3  C    2.523205   1.396693   0.000000
     4  C    3.804378   2.414383   1.393374   0.000000
     5  C    4.294131   2.776856   2.406928   1.390472   0.000000
     6  N    5.681803   4.164518   3.673229   2.401176   1.387673
     7  C    3.804408   2.414422   2.792123   2.417915   1.390510
     8  C    2.523237   1.396711   2.421215   2.792052   2.406897
     9  H    1.090679   2.163116   2.676132   4.043192   4.791300
    10  H    1.090665   2.163339   3.375749   4.536136   4.791608
    11  H    1.090282   2.157276   3.044819   4.298009   4.793952
    12  H    2.729464   2.156463   1.080039   2.143654   3.383871
    13  H    4.666662   3.391490   2.144928   1.078881   2.149470
    14  H    6.220603   4.723514   3.960053   2.575946   2.063897
    15  H    6.220571   4.723484   4.463227   3.296681   2.063874
    16  H    4.666686   3.391518   3.870976   3.396073   2.149497
    17  H    2.729482   2.156451   3.402726   3.872048   3.383821
                    6          7          8          9         10
     6  N    0.000000
     7  C    2.401154   0.000000
     8  C    3.673171   1.393353   0.000000
     9  H    6.154394   4.535500   3.375025   0.000000
    10  H    6.154701   4.043067   2.675773   1.748099   0.000000
    11  H    6.156823   4.299092   3.046329   1.773018   1.773187
    12  H    4.541809   3.872140   3.402756   2.487885   3.702463
    13  H    2.638243   3.396093   3.870928   4.735917   5.470703
    14  H    1.007750   3.296718   4.463217   6.579588   6.808420
    15  H    1.007689   2.575903   3.959980   6.807952   6.579613
    16  H    2.638199   1.078860   2.144921   5.469881   4.735565
    17  H    4.541722   2.143591   1.080017   3.701454   2.486845
                   11         12         13         14         15
    11  H    0.000000
    12  H    3.152495   0.000000
    13  H    5.119091   2.463627   0.000000
    14  H    6.661325   4.656061   2.384050   0.000000
    15  H    6.661783   5.404351   3.631969   1.750617   0.000000
    16  H    5.120683   4.950990   4.288578   3.631987   2.384014
    17  H    3.155081   4.300397   4.950919   5.404319   4.655971
                   16         17
    16  H    0.000000
    17  H    2.463589   0.000000
 Stoichiometry    C7H9N
 Framework group  C1[X(C7H9N)]
 Deg. of freedom    45
 Full point group                 C1      NOp   1
 Largest Abelian subgroup         C1      NOp   1
 Largest concise Abelian subgroup C1      NOp   1
                         Standard orientation:                         
 ---------------------------------------------------------------------
 Center     Atomic      Atomic             Coordinates (Angstroms)
 Number     Number       Type             X           Y           Z
 ---------------------------------------------------------------------
      1          6           0       -2.884369    0.000046    0.007610
      2          6           0       -1.367037    0.000019    0.010766
      3          6           0       -0.670582   -1.210599    0.000636
      4          6           0        0.722752   -1.208948   -0.009917
      5          6           0        1.409706   -0.000028   -0.014302
      6          7           0        2.797367   -0.000016   -0.020107
      7          6           0        0.722808    1.208967   -0.009918
      8          6           0       -0.670504    1.210615    0.000671
      9          1           0       -3.274501   -0.873246   -0.516543
     10          1           0       -3.274804    0.874850   -0.513761
     11          1           0       -3.269668   -0.001824    1.027540
     12          1           0       -1.203171   -2.150190    0.001703
     13          1           0        1.260367   -2.144301   -0.018247
     14          1           0        3.273080   -0.875360    0.131647
     15          1           0        3.273076    0.875257    0.131669
     16          1           0        1.260455    2.144277   -0.018226
     17          1           0       -1.203047    2.150207    0.001686
 ---------------------------------------------------------------------
 Rotational constants (GHZ):           5.4012235           1.4834802           1.1727114
 Standard basis: 6-31G(d,p) (6D, 7F)
 There are   165 symmetry adapted cartesian basis functions of A   symmetry.
 There are   165 symmetry adapted basis functions of A   symmetry.
   165 basis functions,   287 primitive gaussians,   165 cartesian basis functions
    29 alpha electrons       29 beta electrons
       nuclear repulsion energy       343.6817980214 Hartrees.
 NAtoms=   17 NActive=   17 NUniq=   17 SFac= 1.00D+00 NAtFMM=   60 NAOKFM=F Big=F
 Integral buffers will be    131072 words long.
 Raffenetti 2 integral format.
 Two-electron integral symmetry is turned on.
 Nuclear repulsion after empirical dispersion term =      343.6535789774 Hartrees.
 One-electron integrals computed using PRISM.
 NBasis=   165 RedAO= T EigKep=  4.17D-04  NBF=   165
 NBsUse=   165 1.00D-06 EigRej= -1.00D+00 NBFU=   165
 ExpMin= 1.61D-01 ExpMax= 4.17D+03 ExpMxC= 6.27D+02 IAcc=3 IRadAn=         5 AccDes= 0.00D+00
 Harris functional with IExCor=  402 and IRadAn=       5 diagonalized for initial guess.
 HarFok:  IExCor=  402 AccDes= 0.00D+00 IRadAn=         5 IDoV= 1 UseB2=F ITyADJ=14
 ICtDFT=  3500011 ScaDFX=  1.000000  1.000000  1.000000  1.000000
 FoFCou: FMM=F IPFlag=           0 FMFlag=      100000 FMFlg1=           0
         NFxFlg=           0 DoJE=T BraDBF=F KetDBF=T FulRan=T
         wScrn=  0.000000 ICntrl=       500 IOpCl=  0 I1Cent=   200000004 NGrid=           0
         NMat0=    1 NMatS0=      1 NMatT0=    0 NMatD0=    1 NMtDS0=    0 NMtDT0=    0
 Petite list used in FoFCou.
 Requested convergence on RMS density matrix=1.00D-08 within 128 cycles.
 Requested convergence on MAX density matrix=1.00D-06.
 Requested convergence on             energy=1.00D-06.
 No special actions if energy rises.
 Integral accuracy reduced to 1.0D-05 until final iterations.
 Initial convergence to 1.0D-05 achieved.  Increase integral accuracy.
 SCF Done:  E(RB3LYP) =  -326.960615391     A.U. after   13 cycles
            NFock= 13  Conv=0.54D-08     -V/T= 2.0095

 **********************************************************************

            Population analysis using the SCF Density.

 **********************************************************************

 Orbital symmetries:
       Occupied  (A) (A) (A) (A) (A) (A) (A) (A) (A) (A) (A) (A)
                 (A) (A) (A) (A) (A) (A) (A) (A) (A) (A) (A) (A)
                 (A) (A) (A) (A) (A)
       Virtual   (A) (A) (A) (A) (A) (A) (A) (A) (A) (A) (A) (A)
                 (A) (A) (A) (A) (A) (A) (A) (A) (A) (A) (A) (A)
                 (A) (A) (A) (A) (A) (A) (A) (A) (A) (A) (A) (A)
                 (A) (A) (A) (A) (A) (A) (A) (A) (A) (A) (A) (A)
                 (A) (A) (A) (A) (A) (A) (A) (A) (A) (A) (A) (A)
                 (A) (A) (A) (A) (A) (A) (A) (A) (A) (A) (A) (A)
                 (A) (A) (A) (A) (A) (A) (A) (A) (A) (A) (A) (A)
                 (A) (A) (A) (A) (A) (A) (A) (A) (A) (A) (A) (A)
                 (A) (A) (A) (A) (A) (A) (A) (A) (A) (A) (A) (A)
                 (A) (A) (A) (A) (A) (A) (A) (A) (A) (A) (A) (A)
                 (A) (A) (A) (A) (A) (A) (A) (A) (A) (A) (A) (A)
                 (A) (A) (A) (A)
 The electronic state is 1-A.
 Alpha  occ. eigenvalues --  -14.33104 -10.21474 -10.17393 -10.17384 -10.17234
 Alpha  occ. eigenvalues --  -10.16963 -10.16963 -10.16857  -0.90831  -0.82826
 Alpha  occ. eigenvalues --   -0.74279  -0.73369  -0.66185  -0.60713  -0.57096
 Alpha  occ. eigenvalues --   -0.51091  -0.50974  -0.45162  -0.43113  -0.41201
 Alpha  occ. eigenvalues --   -0.41120  -0.40845  -0.36770  -0.36667  -0.33288
 Alpha  occ. eigenvalues --   -0.33125  -0.28784  -0.23782  -0.18331
 Alpha virt. eigenvalues --    0.01016   0.03475   0.08406   0.11026   0.12458
 Alpha virt. eigenvalues --    0.13507   0.16222   0.16338   0.18717   0.18821
 Alpha virt. eigenvalues --    0.20665   0.21467   0.24432   0.29497   0.33402
 Alpha virt. eigenvalues --    0.34818   0.35149   0.37260   0.48659   0.52133
 Alpha virt. eigenvalues --    0.53237   0.54282   0.55288   0.56776   0.59228
 Alpha virt. eigenvalues --    0.60164   0.60876   0.61208   0.63398   0.64633
 Alpha virt. eigenvalues --    0.66053   0.66298   0.68234   0.71905   0.72944
 Alpha virt. eigenvalues --    0.75682   0.76877   0.79667   0.82152   0.82920
 Alpha virt. eigenvalues --    0.85197   0.86526   0.87182   0.88074   0.89710
 Alpha virt. eigenvalues --    0.90249   0.94841   0.98956   1.00882   1.00975
 Alpha virt. eigenvalues --    1.03372   1.11664   1.15911   1.18584   1.18999
 Alpha virt. eigenvalues --    1.25626   1.29205   1.30433   1.32231   1.34236
 Alpha virt. eigenvalues --    1.41248   1.41583   1.43323   1.44965   1.45716
 Alpha virt. eigenvalues --    1.53030   1.65968   1.74190   1.76554   1.79723
 Alpha virt. eigenvalues --    1.80302   1.83779   1.86027   1.89222   1.90915
 Alpha virt. eigenvalues --    1.94055   1.97970   1.98338   1.98460   2.00516
 Alpha virt. eigenvalues --    2.05085   2.06124   2.07598   2.10053   2.11803
 Alpha virt. eigenvalues --    2.13568   2.16870   2.22055   2.25631   2.29171
 Alpha virt. eigenvalues --    2.31947   2.33420   2.37908   2.38836   2.42668
 Alpha virt. eigenvalues --    2.43785   2.45870   2.47398   2.49144   2.52677
 Alpha virt. eigenvalues --    2.55517   2.57853   2.60485   2.61946   2.62214
 Alpha virt. eigenvalues --    2.69888   2.70959   2.73930   2.76535   2.78450
 Alpha virt. eigenvalues --    2.80577   2.85904   2.88354   2.89474   2.97616
 Alpha virt. eigenvalues --    3.04010   3.07771   3.20877   3.21502   3.27359
 Alpha virt. eigenvalues --    3.28404   3.34616   3.43156   3.45736   3.48068
 Alpha virt. eigenvalues --    3.51782   3.63568   3.87885   4.05153   4.14896
 Alpha virt. eigenvalues --    4.17475   4.18522   4.39407   4.45247   4.55753
 Alpha virt. eigenvalues --    4.86601
          Condensed to atoms (all electrons):
               1          2          3          4          5          6
     1  C    5.029787   0.354244  -0.061118   0.007575   0.000435  -0.000001
     2  C    0.354244   4.698284   0.558090  -0.037071  -0.030894   0.000628
     3  C   -0.061118   0.558090   4.863361   0.510720  -0.017419   0.005558
     4  C    0.007575  -0.037071   0.510720   4.956359   0.545535  -0.073326
     5  C    0.000435  -0.030894  -0.017419   0.545535   4.485385   0.290997
     6  N   -0.000001   0.000628   0.005558  -0.073326   0.290997   6.849495
     7  C    0.007581  -0.037101  -0.050151  -0.050404   0.545537  -0.073331
     8  C   -0.061037   0.558174  -0.021060  -0.050145  -0.017422   0.005558
     9  H    0.374334  -0.029141  -0.003799   0.000147   0.000024  -0.000000
    10  H    0.374333  -0.029109   0.002736  -0.000238   0.000024  -0.000000
    11  H    0.372656  -0.030952  -0.001581  -0.000145   0.000035  -0.000000
    12  H   -0.010102  -0.043960   0.363262  -0.041193   0.003935  -0.000135
    13  H   -0.000207   0.004094  -0.034996   0.354999  -0.044814  -0.009909
    14  H   -0.000000  -0.000008  -0.000048  -0.009286  -0.022465   0.349992
    15  H   -0.000000  -0.000008  -0.000161   0.005807  -0.022464   0.350008
    16  H   -0.000207   0.004096   0.000755   0.005577  -0.044818  -0.009909
    17  H   -0.010116  -0.043921   0.005703   0.000765   0.003934  -0.000135
               7          8          9         10         11         12
     1  C    0.007581  -0.061037   0.374334   0.374333   0.372656  -0.010102
     2  C   -0.037101   0.558174  -0.029141  -0.029109  -0.030952  -0.043960
     3  C   -0.050151  -0.021060  -0.003799   0.002736  -0.001581   0.363262
     4  C   -0.050404  -0.050145   0.000147  -0.000238  -0.000145  -0.041193
     5  C    0.545537  -0.017422   0.000024   0.000024   0.000035   0.003935
     6  N   -0.073331   0.005558  -0.000000  -0.000000  -0.000000  -0.000135
     7  C    4.956381   0.510730  -0.000238   0.000147  -0.000146   0.000765
     8  C    0.510730   4.863217   0.002726  -0.003803  -0.001568   0.005700
     9  H   -0.000238   0.002726   0.607034  -0.030300  -0.032014   0.004779
    10  H    0.000147  -0.003803  -0.030300   0.606983  -0.031977   0.000055
    11  H   -0.000146  -0.001568  -0.032014  -0.031977   0.606941   0.000703
    12  H    0.000765   0.005700   0.004779   0.000055   0.000703   0.649655
    13  H    0.005577   0.000755  -0.000007   0.000003   0.000003  -0.006259
    14  H    0.005807  -0.000161   0.000000   0.000000  -0.000000  -0.000006
    15  H   -0.009287  -0.000048   0.000000   0.000000  -0.000000   0.000004
    16  H    0.355000  -0.034992   0.000003  -0.000007   0.000003   0.000020
    17  H   -0.041208   0.363243   0.000056   0.004795   0.000697  -0.000187
              13         14         15         16         17
     1  C   -0.000207  -0.000000  -0.000000  -0.000207  -0.010116
     2  C    0.004094  -0.000008  -0.000008   0.004096  -0.043921
     3  C   -0.034996  -0.000048  -0.000161   0.000755   0.005703
     4  C    0.354999  -0.009286   0.005807   0.005577   0.000765
     5  C   -0.044814  -0.022465  -0.022464  -0.044818   0.003934
     6  N   -0.009909   0.349992   0.350008  -0.009909  -0.000135
     7  C    0.005577   0.005807  -0.009287   0.355000  -0.041208
     8  C    0.000755  -0.000161  -0.000048  -0.034992   0.363243
     9  H   -0.000007   0.000000   0.000000   0.000003   0.000056
    10  H    0.000003   0.000000   0.000000  -0.000007   0.004795
    11  H    0.000003  -0.000000  -0.000000   0.000003   0.000697
    12  H   -0.006259  -0.000006   0.000004   0.000020  -0.000187
    13  H    0.658974   0.006180  -0.000035  -0.000198   0.000020
    14  H    0.006180   0.440890  -0.029878  -0.000035   0.000004
    15  H   -0.000035  -0.029878   0.440873   0.006179  -0.000006
    16  H   -0.000198  -0.000035   0.006179   0.658971  -0.006260
    17  H    0.000020   0.000004  -0.000006  -0.006260   0.649658
 Mulliken charges:
               1
     1  C   -0.378156
     2  C    0.104554
     3  C   -0.119852
     4  C   -0.125675
     5  C    0.324456
     6  N   -0.685491
     7  C   -0.125661
     8  C   -0.119868
     9  H    0.106395
    10  H    0.106357
    11  H    0.117346
    12  H    0.072963
    13  H    0.065819
    14  H    0.259016
    15  H    0.259017
    16  H    0.065821
    17  H    0.072958
 Sum of Mulliken charges =  -0.00000
 Mulliken charges with hydrogens summed into heavy atoms:
               1
     1  C   -0.048058
     2  C    0.104554
     3  C   -0.046889
     4  C   -0.059856
     5  C    0.324456
     6  N   -0.167458
     7  C   -0.059840
     8  C   -0.046910
 Electronic spatial extent (au):  <R**2>=           1017.9586
 Charge=             -0.0000 electrons
 Dipole moment (field-independent basis, Debye):
    X=              1.4483    Y=             -0.0003    Z=              0.4956  Tot=              1.5308
 Quadrupole moment (field-independent basis, Debye-Ang):
   XX=            -38.5878   YY=            -42.7479   ZZ=            -51.5673
   XY=              0.0003   XZ=              1.7383   YZ=             -0.0004
 Traceless Quadrupole moment (field-independent basis, Debye-Ang):
   XX=              5.7132   YY=              1.5531   ZZ=             -7.2663
   XY=              0.0003   XZ=              1.7383   YZ=             -0.0004
 Octapole moment (field-independent basis, Debye-Ang**2):
  XXX=             36.7045  YYY=              0.0016  ZZZ=              0.9168  XYY=              8.5263
  XXY=             -0.0003  XXZ=              5.8335  XZZ=             -1.2251  YZZ=             -0.0025
  YYZ=             -0.1305  XYZ=              0.0016
 Hexadecapole moment (field-independent basis, Debye-Ang**3):
 XXXX=           -871.2634 YYYY=           -297.9561 ZZZZ=            -59.3974 XXXY=             -0.0046
 XXXZ=             21.6644 YYYX=             -0.0064 YYYZ=             -0.0005 ZZZX=             -0.2671
 ZZZY=             -0.0007 XXYY=           -185.1853 XXZZ=           -182.2900 YYZZ=            -68.3854
 XXYZ=             -0.0049 YYXZ=              2.8752 ZZXY=              0.0084
 N-N= 3.436535789774D+02 E-N=-1.445251709778D+03  KE= 3.238715479570D+02
 Calling FoFJK, ICntrl=      2127 FMM=F ISym2X=0 I1Cent= 0 IOpClX= 0 NMat=1 NMatS=1 NMatT=0.
 ***** Axes restored to original set *****
 -------------------------------------------------------------------
 Center     Atomic                   Forces (Hartrees/Bohr)
 Number     Number              X              Y              Z
 -------------------------------------------------------------------
      1        6           0.007299933    0.000843707   -0.002530775
      2        6          -0.019220379    0.000249089   -0.003960925
      3        6           0.010402738    0.009172353    0.002328021
      4        6          -0.015160506   -0.004934159   -0.000929629
      5        6           0.023458135    0.000128904    0.003358479
      6        7          -0.003424399    0.001212032   -0.005883813
      7        6          -0.015473425    0.003668063    0.001123633
      8        6           0.011057400   -0.008471347   -0.001884518
      9        1          -0.001242712   -0.003382237    0.000508925
     10        1          -0.001456161    0.002691612    0.001978173
     11        1          -0.004634065   -0.000763219    0.002503521
     12        1          -0.003006217   -0.002929957   -0.000945839
     13        1           0.004271198   -0.003672293   -0.000850843
     14        1           0.002961233    0.005382276    0.003244134
     15        1           0.003416535   -0.005992171    0.000543384
     16        1           0.003986631    0.003970558    0.000968337
     17        1          -0.003235939    0.002826790    0.000429735
 -------------------------------------------------------------------
 Cartesian Forces:  Max     0.023458135 RMS     0.006586847

 GradGradGradGradGradGradGradGradGradGradGradGradGradGradGradGradGradGrad
 Berny optimization.
 FormGI is forming the generalized inverse of G from B-inverse, IUseBI=4.
 Internal  Forces:  Max     0.011434427 RMS     0.003729429
 Search for a local minimum.
 Step number   1 out of a maximum of   88
 All quantities printed in internal units (Hartrees-Bohrs-Radians)
 Mixed Optimization -- RFO/linear search
 Second derivative matrix not updated -- first step.
 ITU=  0
     Eigenvalues ---    0.00537   0.01501   0.01855   0.02103   0.02139
     Eigenvalues ---    0.02153   0.02157   0.02175   0.02193   0.02197
     Eigenvalues ---    0.02209   0.02325   0.07094   0.07162   0.16000
     Eigenvalues ---    0.16000   0.16000   0.16000   0.16000   0.16000
     Eigenvalues ---    0.16000   0.16000   0.16000   0.22000   0.22986
     Eigenvalues ---    0.23999   0.24995   0.25000   0.30625   0.34734
     Eigenvalues ---    0.34736   0.34780   0.35990   0.35992   0.36130
     Eigenvalues ---    0.36132   0.42345   0.42595   0.46286   0.46351
     Eigenvalues ---    0.46362   0.46738   0.46757   0.47151   0.47726
 RFO step:  Lambda=-4.41725365D-03 EMin= 5.36630873D-03
 Linear search not attempted -- first point.
 Iteration  1 RMS(Cart)=  0.02886289 RMS(Int)=  0.00046543
 Iteration  2 RMS(Cart)=  0.00040970 RMS(Int)=  0.00026169
 Iteration  3 RMS(Cart)=  0.00000022 RMS(Int)=  0.00026169
 Variable       Old X    -DE/DX   Delta X   Delta X   Delta X     New X
                                 (Linear)    (Quad)   (Total)
    R1        2.86735   0.00003   0.00000   0.00011   0.00011   2.86745
    R2        2.06108   0.00237   0.00000   0.00675   0.00675   2.06784
    R3        2.06106   0.00237   0.00000   0.00674   0.00674   2.06779
    R4        2.06033   0.00408   0.00000   0.01157   0.01157   2.07191
    R5        2.63937   0.00187   0.00000   0.00290   0.00289   2.64226
    R6        2.63940   0.00185   0.00000   0.00287   0.00286   2.64226
    R7        2.63310   0.00200   0.00000   0.00424   0.00424   2.63733
    R8        2.04098   0.00411   0.00000   0.01128   0.01128   2.05225
    R9        2.62761   0.01143   0.00000   0.02506   0.02508   2.65269
   R10        2.03879   0.00546   0.00000   0.01493   0.01493   2.05372
   R11        2.62232   0.00297   0.00000   0.00616   0.00616   2.62848
   R12        2.62768   0.01141   0.00000   0.02502   0.02503   2.65271
   R13        1.90437  -0.00331   0.00000  -0.00708  -0.00708   1.89729
   R14        1.90426  -0.00326   0.00000  -0.00696  -0.00696   1.89729
   R15        2.63305   0.00202   0.00000   0.00428   0.00428   2.63733
   R16        2.03875   0.00547   0.00000   0.01497   0.01497   2.05371
   R17        2.04094   0.00412   0.00000   0.01132   0.01132   2.05225
    A1        1.93765   0.00023   0.00000   0.00358   0.00354   1.94119
    A2        1.93798   0.00019   0.00000   0.00325   0.00321   1.94119
    A3        1.92991   0.00392   0.00000   0.01953   0.01953   1.94945
    A4        1.85922   0.00128   0.00000   0.01611   0.01604   1.87526
    A5        1.89841  -0.00293   0.00000  -0.02182  -0.02182   1.87659
    A6        1.89869  -0.00294   0.00000  -0.02202  -0.02201   1.87668
    A7        2.09283   0.00470   0.00000   0.02152   0.02131   2.11414
    A8        2.09285   0.00471   0.00000   0.02157   0.02135   2.11420
    A9        2.09734  -0.00939   0.00000  -0.04247  -0.04264   2.05470
   A10        2.09169   0.00743   0.00000   0.02889   0.02893   2.12062
   A11        2.10384  -0.00499   0.00000  -0.02222  -0.02223   2.08161
   A12        2.08765  -0.00244   0.00000  -0.00668  -0.00670   2.08095
   A13        2.08873   0.00289   0.00000   0.01327   0.01333   2.10206
   A14        2.09131   0.00021   0.00000   0.00341   0.00338   2.09469
   A15        2.10314  -0.00310   0.00000  -0.01670  -0.01674   2.08640
   A16        2.08755   0.00562   0.00000   0.02091   0.02075   2.10830
   A17        2.10816  -0.01125   0.00000  -0.04184  -0.04186   2.06630
   A18        2.08747   0.00564   0.00000   0.02099   0.02082   2.10829
   A19        2.06169   0.00343   0.00000   0.01248   0.01158   2.07327
   A20        2.06173   0.00342   0.00000   0.01244   0.01155   2.07328
   A21        2.10475  -0.00724   0.00000  -0.05300  -0.05399   2.05077
   A22        2.08866   0.00290   0.00000   0.01332   0.01338   2.10205
   A23        2.10316  -0.00310   0.00000  -0.01672  -0.01676   2.08640
   A24        2.09136   0.00020   0.00000   0.00338   0.00335   2.09470
   A25        2.09175   0.00742   0.00000   0.02884   0.02887   2.12063
   A26        2.10383  -0.00499   0.00000  -0.02222  -0.02223   2.08159
   A27        2.08761  -0.00243   0.00000  -0.00663  -0.00664   2.08096
    D1       -0.53032   0.00061   0.00000  -0.00608  -0.00646  -0.53678
    D2        2.59218   0.00124   0.00000   0.03043   0.03086   2.62304
    D3       -2.59525  -0.00126   0.00000  -0.03061  -0.03105  -2.62629
    D4        0.52724  -0.00062   0.00000   0.00590   0.00628   0.53352
    D5        1.57852  -0.00031   0.00000  -0.01812  -0.01852   1.56000
    D6       -1.58217   0.00033   0.00000   0.01839   0.01880  -1.56337
    D7        3.13045   0.00082   0.00000   0.03543   0.03513  -3.11760
    D8       -0.01200   0.00074   0.00000   0.03312   0.03279   0.02079
    D9        0.00801   0.00003   0.00000  -0.00188  -0.00164   0.00636
   D10       -3.13444  -0.00005   0.00000  -0.00419  -0.00398  -3.13843
   D11       -3.13042  -0.00082   0.00000  -0.03546  -0.03516   3.11761
   D12        0.01191  -0.00074   0.00000  -0.03304  -0.03271  -0.02080
   D13       -0.00798  -0.00003   0.00000   0.00186   0.00162  -0.00636
   D14        3.13436   0.00005   0.00000   0.00427   0.00406   3.13842
   D15       -0.00333  -0.00005   0.00000   0.00040   0.00024  -0.00309
   D16       -3.14105   0.00012   0.00000   0.00595   0.00587  -3.13518
   D17        3.13911   0.00003   0.00000   0.00269   0.00259  -3.14149
   D18        0.00139   0.00020   0.00000   0.00825   0.00822   0.00961
   D19        3.13769   0.00078   0.00000   0.02973   0.02954  -3.11595
   D20       -0.00137   0.00001   0.00000   0.00087   0.00097  -0.00040
   D21       -0.00780   0.00062   0.00000   0.02418   0.02398   0.01618
   D22        3.13632  -0.00015   0.00000  -0.00468  -0.00459   3.13174
   D23       -0.17261  -0.00170   0.00000  -0.06235  -0.06254  -0.23516
   D24       -2.96644   0.00097   0.00000   0.03394   0.03338  -2.93306
   D25        2.96648  -0.00097   0.00000  -0.03393  -0.03338   2.93310
   D26        0.17265   0.00170   0.00000   0.06236   0.06255   0.23520
   D27        0.00140  -0.00001   0.00000  -0.00089  -0.00100   0.00040
   D28       -3.13635   0.00015   0.00000   0.00469   0.00460  -3.13175
   D29       -3.13766  -0.00078   0.00000  -0.02975  -0.02956   3.11596
   D30        0.00778  -0.00062   0.00000  -0.02417  -0.02397  -0.01620
   D31        0.00327   0.00005   0.00000  -0.00035  -0.00019   0.00308
   D32       -3.13906  -0.00003   0.00000  -0.00275  -0.00264   3.14149
   D33        3.14105  -0.00012   0.00000  -0.00594  -0.00586   3.13519
   D34       -0.00128  -0.00020   0.00000  -0.00833  -0.00831  -0.00959
         Item               Value     Threshold  Converged?
 Maximum Force            0.011434     0.000450     NO 
 RMS     Force            0.003729     0.000300     NO 
 Maximum Displacement     0.092217     0.001800     NO 
 RMS     Displacement     0.028795     0.001200     NO 
 Predicted change in Energy=-2.286431D-03
 GradGradGradGradGradGradGradGradGradGradGradGradGradGradGradGradGradGrad

                          Input orientation:                          
 ---------------------------------------------------------------------
 Center     Atomic      Atomic             Coordinates (Angstroms)
 Number     Number       Type             X           Y           Z
 ---------------------------------------------------------------------
      1          6           0       -2.727012   -0.099318   -0.018259
      2          6           0       -1.210921   -0.038195   -0.032765
      3          6           0       -0.444202   -1.175031   -0.306207
      4          6           0        0.950760   -1.134146   -0.293775
      5          6           0        1.624608    0.063398   -0.006874
      6          7           0        3.014309    0.119871   -0.022225
      7          6           0        0.861673    1.210025    0.264617
      8          6           0       -0.532629    1.151798    0.248062
      9          1           0       -3.099750   -0.853351   -0.718178
     10          1           0       -3.164921    0.861046   -0.306834
     11          1           0       -3.112937   -0.352658    0.976221
     12          1           0       -0.945300   -2.112040   -0.530536
     13          1           0        1.522945   -2.031039   -0.515772
     14          1           0        3.533016   -0.739615   -0.038010
     15          1           0        3.469599    0.929183    0.359543
     16          1           0        1.364081    2.149319    0.480025
     17          1           0       -1.103519    2.050754    0.461068
 ---------------------------------------------------------------------
                    Distance matrix (angstroms):
                    1          2          3          4          5
     1  C    0.000000
     2  C    1.517392   0.000000
     3  C    2.539940   1.398221   0.000000
     4  C    3.830508   2.437643   1.395617   0.000000
     5  C    4.354676   2.837467   2.429667   1.403743   0.000000
     6  N    5.745505   4.228199   3.703879   2.429924   1.390933
     7  C    3.830543   2.437650   2.778424   2.411405   1.403755
     8  C    2.539987   1.398223   2.393567   2.778412   2.429667
     9  H    1.094251   2.168396   2.706498   4.082352   4.864765
    10  H    1.094229   2.168378   3.398223   4.573816   4.864751
    11  H    1.096407   2.175914   3.072957   4.328654   4.856327
    12  H    2.736417   2.149224   1.086007   2.146481   3.407518
    13  H    4.694806   3.417418   2.155536   1.086782   2.157771
    14  H    6.292720   4.795514   4.009960   2.624712   2.070705
    15  H    6.292737   4.795519   4.493193   3.320949   2.070710
    16  H    4.694859   3.417428   3.865145   3.398639   2.157779
    17  H    2.736475   2.149213   3.380695   3.864381   3.407525
                    6          7          8          9         10
     6  N    0.000000
     7  C    2.429930   0.000000
     8  C    3.703877   1.395616   0.000000
     9  H    6.230026   4.573431   3.397698   0.000000
    10  H    6.230027   4.081887   2.705810   1.764258   0.000000
    11  H    6.226020   4.329651   3.074343   1.766877   1.766921
    12  H    4.573654   3.864393   3.380703   2.502231   3.716988
    13  H    2.663488   3.398644   3.865137   4.774644   5.512159
    14  H    1.004002   3.320956   4.493189   6.668519   6.891788
    15  H    1.004003   2.624721   4.009965   6.891680   6.668250
    16  H    2.663488   1.086779   2.155543   5.511579   4.773956
    17  H    4.573663   2.146485   1.086006   3.716098   2.500892
                   11         12         13         14         15
    11  H    0.000000
    12  H    3.172442   0.000000
    13  H    5.151156   2.469619   0.000000
    14  H    6.734024   4.709719   2.436476   0.000000
    15  H    6.734478   5.434392   3.649459   1.716670   0.000000
    16  H    5.152649   4.951127   4.300260   3.649462   2.436484
    17  H    3.174827   4.282192   4.951117   5.434399   4.709739
                   16         17
    16  H    0.000000
    17  H    2.469641   0.000000
 Stoichiometry    C7H9N
 Framework group  C1[X(C7H9N)]
 Deg. of freedom    45
 Full point group                 C1      NOp   1
 Largest Abelian subgroup         C1      NOp   1
 Largest concise Abelian subgroup C1      NOp   1
                         Standard orientation:                         
 ---------------------------------------------------------------------
 Center     Atomic      Atomic             Coordinates (Angstroms)
 Number     Number       Type             X           Y           Z
 ---------------------------------------------------------------------
      1          6           0       -2.913461   -0.000006    0.018299
      2          6           0       -1.396297    0.000024   -0.007992
      3          6           0       -0.673309   -1.196767   -0.009616
      4          6           0        0.722272   -1.205696   -0.005172
      5          6           0        1.441165   -0.000009   -0.002637
      6          7           0        2.831851   -0.000024   -0.028838
      7          6           0        0.722300    1.205709   -0.005175
      8          6           0       -0.673280    1.196800   -0.009611
      9          1           0       -3.318383   -0.881317   -0.488373
     10          1           0       -3.318358    0.882939   -0.485490
     11          1           0       -3.301054   -0.001735    1.043909
     12          1           0       -1.209670   -2.141079   -0.011414
     13          1           0        1.259932   -2.150133   -0.012593
     14          1           0        3.318929   -0.858369    0.155606
     15          1           0        3.318954    0.858301    0.155640
     16          1           0        1.259988    2.150127   -0.012582
     17          1           0       -1.209636    2.141113   -0.011412
 ---------------------------------------------------------------------
 Rotational constants (GHZ):           5.4624569           1.4482672           1.1533365
 Standard basis: 6-31G(d,p) (6D, 7F)
 There are   165 symmetry adapted cartesian basis functions of A   symmetry.
 There are   165 symmetry adapted basis functions of A   symmetry.
   165 basis functions,   287 primitive gaussians,   165 cartesian basis functions
    29 alpha electrons       29 beta electrons
       nuclear repulsion energy       341.8846250182 Hartrees.
 NAtoms=   17 NActive=   17 NUniq=   17 SFac= 1.00D+00 NAtFMM=   60 NAOKFM=F Big=F
 Integral buffers will be    131072 words long.
 Raffenetti 2 integral format.
 Two-electron integral symmetry is turned on.
 Nuclear repulsion after empirical dispersion term =      341.8565753761 Hartrees.
 One-electron integrals computed using PRISM.
 NBasis=   165 RedAO= T EigKep=  4.18D-04  NBF=   165
 NBsUse=   165 1.00D-06 EigRej= -1.00D+00 NBFU=   165
 Initial guess from the checkpoint file:  "an2_conf-1.chk"
 B after Tr=     0.000000   -0.000000    0.000000
         Rot=    1.000000    0.000002   -0.000073   -0.000002 Ang=   0.01 deg.
 ExpMin= 1.61D-01 ExpMax= 4.17D+03 ExpMxC= 6.27D+02 IAcc=3 IRadAn=         5 AccDes= 0.00D+00
 Harris functional with IExCor=  402 and IRadAn=       5 diagonalized for initial guess.
 HarFok:  IExCor=  402 AccDes= 0.00D+00 IRadAn=         5 IDoV= 1 UseB2=F ITyADJ=14
 ICtDFT=  3500011 ScaDFX=  1.000000  1.000000  1.000000  1.000000
 FoFCou: FMM=F IPFlag=           0 FMFlag=      100000 FMFlg1=           0
         NFxFlg=           0 DoJE=T BraDBF=F KetDBF=T FulRan=T
         wScrn=  0.000000 ICntrl=       500 IOpCl=  0 I1Cent=   200000004 NGrid=           0
         NMat0=    1 NMatS0=      1 NMatT0=    0 NMatD0=    1 NMtDS0=    0 NMtDT0=    0
 Petite list used in FoFCou.
 Requested convergence on RMS density matrix=1.00D-08 within 128 cycles.
 Requested convergence on MAX density matrix=1.00D-06.
 Requested convergence on             energy=1.00D-06.
 No special actions if energy rises.
 Integral accuracy reduced to 1.0D-05 until final iterations.
 Initial convergence to 1.0D-05 achieved.  Increase integral accuracy.
 SCF Done:  E(RB3LYP) =  -326.963125911     A.U. after   11 cycles
            NFock= 11  Conv=0.50D-08     -V/T= 2.0100
 Calling FoFJK, ICntrl=      2127 FMM=F ISym2X=0 I1Cent= 0 IOpClX= 0 NMat=1 NMatS=1 NMatT=0.
 ***** Axes restored to original set *****
 -------------------------------------------------------------------
 Center     Atomic                   Forces (Hartrees/Bohr)
 Number     Number              X              Y              Z
 -------------------------------------------------------------------
      1        6           0.004402732    0.000478699   -0.001341494
      2        6          -0.006272589   -0.000174460   -0.000242542
      3        6           0.004699611    0.001161283    0.000478991
      4        6          -0.004253194   -0.000657311   -0.000224904
      5        6           0.005703633   -0.000111998    0.001441775
      6        7          -0.007708763    0.001120769   -0.005938141
      7        6          -0.004280213    0.000365165    0.000020529
      8        6           0.004765249   -0.000916168   -0.000016874
      9        1          -0.000013996   -0.000501101    0.000424431
     10        1          -0.000045385    0.000258845    0.000606398
     11        1          -0.000387240   -0.000088895    0.000323723
     12        1           0.000115995   -0.000794496   -0.000337728
     13        1           0.000042361   -0.000180725    0.000057975
     14        1           0.001576661   -0.000536298    0.002265402
     15        1           0.001571565   -0.000429978    0.002290249
     16        1           0.000030012    0.000139364    0.000133426
     17        1           0.000053561    0.000867305    0.000058784
 -------------------------------------------------------------------
 Cartesian Forces:  Max     0.007708763 RMS     0.002401716

 GradGradGradGradGradGradGradGradGradGradGradGradGradGradGradGradGradGrad
 Berny optimization.
 Using GEDIIS/GDIIS optimizer.
 FormGI is forming the generalized inverse of G from B-inverse, IUseBI=4.
 Internal  Forces:  Max     0.004534953 RMS     0.001065309
 Search for a local minimum.
 Step number   2 out of a maximum of   88
 All quantities printed in internal units (Hartrees-Bohrs-Radians)
 Mixed Optimization -- RFO/linear search
 Update second derivatives using D2CorX and points    1    2
 DE= -2.51D-03 DEPred=-2.29D-03 R= 1.10D+00
 TightC=F SS=  1.41D+00  RLast= 1.92D-01 DXNew= 5.0454D-01 5.7525D-01
 Trust test= 1.10D+00 RLast= 1.92D-01 DXMaxT set to 5.05D-01
 ITU=  1  0
 Use linear search instead of GDIIS.
     Eigenvalues ---    0.00537   0.01482   0.01855   0.02053   0.02134
     Eigenvalues ---    0.02153   0.02158   0.02175   0.02187   0.02196
     Eigenvalues ---    0.02197   0.02296   0.06996   0.06998   0.15327
     Eigenvalues ---    0.15999   0.16000   0.16000   0.16000   0.16000
     Eigenvalues ---    0.16000   0.16000   0.16262   0.22000   0.22508
     Eigenvalues ---    0.23310   0.24991   0.24996   0.31132   0.34735
     Eigenvalues ---    0.34736   0.34753   0.35812   0.35991   0.36131
     Eigenvalues ---    0.36202   0.42204   0.42788   0.45613   0.46291
     Eigenvalues ---    0.46356   0.46417   0.47146   0.47304   0.53144
 RFO step:  Lambda=-7.07659231D-04 EMin= 5.36630876D-03
 Quartic linear search produced a step of  0.16291.
 Iteration  1 RMS(Cart)=  0.01514144 RMS(Int)=  0.00092252
 Iteration  2 RMS(Cart)=  0.00067694 RMS(Int)=  0.00066067
 Iteration  3 RMS(Cart)=  0.00000121 RMS(Int)=  0.00066066
 Iteration  4 RMS(Cart)=  0.00000000 RMS(Int)=  0.00066066
 Variable       Old X    -DE/DX   Delta X   Delta X   Delta X     New X
                                 (Linear)    (Quad)   (Total)
    R1        2.86745  -0.00396   0.00002  -0.01494  -0.01492   2.85253
    R2        2.06784   0.00008   0.00110   0.00018   0.00128   2.06912
    R3        2.06779   0.00009   0.00110   0.00021   0.00130   2.06910
    R4        2.07191   0.00045   0.00189   0.00136   0.00325   2.07516
    R5        2.64226   0.00080   0.00047   0.00197   0.00244   2.64470
    R6        2.64226   0.00079   0.00047   0.00195   0.00242   2.64468
    R7        2.63733  -0.00366   0.00069  -0.00911  -0.00842   2.62892
    R8        2.05225   0.00070   0.00184   0.00212   0.00396   2.05621
    R9        2.65269   0.00051   0.00409   0.00097   0.00505   2.65774
   R10        2.05372   0.00016   0.00243   0.00034   0.00277   2.05649
   R11        2.62848  -0.00453   0.00100  -0.01106  -0.01006   2.61843
   R12        2.65271   0.00050   0.00408   0.00094   0.00501   2.65773
   R13        1.89729   0.00124  -0.00115   0.00317   0.00202   1.89930
   R14        1.89729   0.00124  -0.00113   0.00316   0.00203   1.89932
   R15        2.63733  -0.00366   0.00070  -0.00909  -0.00839   2.62894
   R16        2.05371   0.00016   0.00244   0.00034   0.00278   2.05649
   R17        2.05225   0.00070   0.00184   0.00212   0.00396   2.05622
    A1        1.94119   0.00006   0.00058   0.00133   0.00189   1.94308
    A2        1.94119   0.00006   0.00052   0.00130   0.00181   1.94300
    A3        1.94945   0.00013   0.00318  -0.00116   0.00202   1.95147
    A4        1.87526   0.00044   0.00261   0.00641   0.00899   1.88425
    A5        1.87659  -0.00035  -0.00356  -0.00394  -0.00749   1.86910
    A6        1.87668  -0.00035  -0.00359  -0.00399  -0.00757   1.86911
    A7        2.11414   0.00060   0.00347   0.00253   0.00595   2.12009
    A8        2.11420   0.00059   0.00348   0.00252   0.00594   2.12014
    A9        2.05470  -0.00119  -0.00695  -0.00512  -0.01209   2.04261
   A10        2.12062   0.00068   0.00471   0.00306   0.00778   2.12840
   A11        2.08161   0.00017  -0.00362   0.00225  -0.00138   2.08023
   A12        2.08095  -0.00085  -0.00109  -0.00530  -0.00639   2.07456
   A13        2.10206   0.00016   0.00217   0.00052   0.00270   2.10476
   A14        2.09469  -0.00013   0.00055  -0.00076  -0.00022   2.09447
   A15        2.08640  -0.00003  -0.00273   0.00024  -0.00249   2.08391
   A16        2.10830   0.00025   0.00338   0.00097   0.00431   2.11261
   A17        2.06630  -0.00051  -0.00682  -0.00204  -0.00888   2.05742
   A18        2.10829   0.00026   0.00339   0.00098   0.00434   2.11263
   A19        2.07327   0.00037   0.00189  -0.01213  -0.01325   2.06003
   A20        2.07328   0.00036   0.00188  -0.01213  -0.01326   2.06002
   A21        2.05077  -0.00182  -0.00879  -0.02850  -0.04088   2.00989
   A22        2.10205   0.00017   0.00218   0.00053   0.00272   2.10477
   A23        2.08640  -0.00003  -0.00273   0.00024  -0.00249   2.08390
   A24        2.09470  -0.00014   0.00055  -0.00078  -0.00024   2.09447
   A25        2.12063   0.00068   0.00470   0.00306   0.00777   2.12840
   A26        2.08159   0.00017  -0.00362   0.00225  -0.00138   2.08021
   A27        2.08096  -0.00085  -0.00108  -0.00530  -0.00639   2.07457
    D1       -0.53678   0.00027  -0.00105   0.00281   0.00168  -0.53510
    D2        2.62304   0.00036   0.00503   0.00706   0.01219   2.63524
    D3       -2.62629  -0.00037  -0.00506  -0.00706  -0.01222  -2.63852
    D4        0.53352  -0.00027   0.00102  -0.00281  -0.00171   0.53182
    D5        1.56000  -0.00004  -0.00302  -0.00208  -0.00519   1.55480
    D6       -1.56337   0.00005   0.00306   0.00217   0.00532  -1.55805
    D7       -3.11760   0.00005   0.00572   0.00211   0.00776  -3.10985
    D8        0.02079   0.00011   0.00534   0.00541   0.01068   0.03147
    D9        0.00636  -0.00002  -0.00027  -0.00193  -0.00214   0.00423
   D10       -3.13843   0.00003  -0.00065   0.00138   0.00078  -3.13764
   D11        3.11761  -0.00005  -0.00573  -0.00211  -0.00776   3.10985
   D12       -0.02080  -0.00010  -0.00533  -0.00540  -0.01066  -0.03145
   D13       -0.00636   0.00002   0.00026   0.00192   0.00213  -0.00423
   D14        3.13842  -0.00003   0.00066  -0.00137  -0.00076   3.13766
   D15       -0.00309  -0.00001   0.00004   0.00010   0.00010  -0.00299
   D16       -3.13518   0.00001   0.00096   0.00050   0.00144  -3.13374
   D17       -3.14149  -0.00007   0.00042  -0.00322  -0.00282   3.13888
   D18        0.00961  -0.00005   0.00134  -0.00282  -0.00149   0.00813
   D19       -3.11595   0.00013   0.00481   0.00564   0.01041  -3.10554
   D20       -0.00040   0.00003   0.00016   0.00173   0.00191   0.00151
   D21        0.01618   0.00011   0.00391   0.00524   0.00910   0.02528
   D22        3.13174   0.00002  -0.00075   0.00132   0.00060   3.13233
   D23       -0.23516  -0.00162  -0.01019  -0.06993  -0.07934  -0.31449
   D24       -2.93306   0.00151   0.00544   0.06585   0.07034  -2.86272
   D25        2.93310  -0.00151  -0.00544  -0.06587  -0.07036   2.86274
   D26        0.23520   0.00162   0.01019   0.06991   0.07932   0.31452
   D27        0.00040  -0.00004  -0.00016  -0.00173  -0.00191  -0.00151
   D28       -3.13175  -0.00002   0.00075  -0.00131  -0.00058  -3.13233
   D29        3.11596  -0.00013  -0.00482  -0.00565  -0.01042   3.10554
   D30       -0.01620  -0.00011  -0.00391  -0.00523  -0.00909  -0.02529
   D31        0.00308   0.00001  -0.00003  -0.00009  -0.00009   0.00299
   D32        3.14149   0.00007  -0.00043   0.00321   0.00280  -3.13890
   D33        3.13519  -0.00001  -0.00095  -0.00051  -0.00145   3.13374
   D34       -0.00959   0.00005  -0.00135   0.00280   0.00145  -0.00814
         Item               Value     Threshold  Converged?
 Maximum Force            0.004535     0.000450     NO 
 RMS     Force            0.001065     0.000300     NO 
 Maximum Displacement     0.069359     0.001800     NO 
 RMS     Displacement     0.015268     0.001200     NO 
 Predicted change in Energy=-3.832581D-04
 GradGradGradGradGradGradGradGradGradGradGradGradGradGradGradGradGradGrad

                          Input orientation:                          
 ---------------------------------------------------------------------
 Center     Atomic      Atomic             Coordinates (Angstroms)
 Number     Number       Type             X           Y           Z
 ---------------------------------------------------------------------
      1          6           0       -2.723843   -0.100309   -0.013633
      2          6           0       -1.215916   -0.036705   -0.039856
      3          6           0       -0.441418   -1.170107   -0.312243
      4          6           0        0.949166   -1.131211   -0.302419
      5          6           0        1.629757    0.066217   -0.017861
      6          7           0        3.013780    0.125782   -0.047116
      7          6           0        0.860136    1.211167    0.255554
      8          6           0       -0.529625    1.150313    0.240500
      9          1           0       -3.102504   -0.860109   -0.705147
     10          1           0       -3.167833    0.861006   -0.292189
     11          1           0       -3.104194   -0.354293    0.984718
     12          1           0       -0.938973   -2.110972   -0.538469
     13          1           0        1.520306   -2.030131   -0.526076
     14          1           0        3.524815   -0.738456   -0.001307
     15          1           0        3.462128    0.911055    0.391645
     16          1           0        1.361315    2.152953    0.470369
     17          1           0       -1.097296    2.053803    0.453629
 ---------------------------------------------------------------------
                    Distance matrix (angstroms):
                    1          2          3          4          5
     1  C    0.000000
     2  C    1.509496   0.000000
     3  C    2.538326   1.399514   0.000000
     4  C    3.825853   2.440176   1.391163   0.000000
     5  C    4.356786   2.847619   2.430005   1.406418   0.000000
     6  N    5.742173   4.232821   3.699731   2.430605   1.385612
     7  C    3.825877   2.440173   2.772526   2.409563   1.406408
     8  C    2.538353   1.399502   2.386976   2.772532   2.430009
     9  H    1.094930   2.163290   2.707739   4.080652   4.870805
    10  H    1.094919   2.163224   3.399876   4.573698   4.870710
    11  H    1.098125   2.171684   3.072138   4.323199   4.857190
    12  H    2.739339   2.151254   1.088102   2.140262   3.407280
    13  H    4.690375   3.420097   2.152610   1.088247   2.159846
    14  H    6.281171   4.792543   4.001751   2.622764   2.058887
    15  H    6.281190   4.792550   4.479326   3.311729   2.058890
    16  H    4.690412   3.420095   3.860706   3.398940   2.159837
    17  H    2.739378   2.151237   3.377918   3.860560   3.407289
                    6          7          8          9         10
     6  N    0.000000
     7  C    2.430607   0.000000
     8  C    3.699743   1.391174   0.000000
     9  H    6.230081   4.573363   3.399375   0.000000
    10  H    6.230004   4.080094   2.706954   1.771169   0.000000
    11  H    6.222922   4.324148   3.073452   1.763943   1.763942
    12  H    4.568232   3.860553   3.377919   2.504657   3.723053
    13  H    2.666050   3.398938   3.860709   4.771938   5.512896
    14  H    1.005069   3.311725   4.479330   6.665700   6.887266
    15  H    1.005077   2.622775   4.001772   6.887261   6.665322
    16  H    2.666055   1.088249   2.152621   5.512355   4.771142
    17  H    4.568255   2.140282   1.088103   3.722164   2.503225
                   11         12         13         14         15
    11  H    0.000000
    12  H    3.177138   0.000000
    13  H    5.145574   2.460638   0.000000
    14  H    6.712942   4.700824   2.441692   0.000000
    15  H    6.713376   5.419173   3.641902   1.696828   0.000000
    16  H    5.146999   4.948750   4.303065   3.641903   2.441705
    17  H    3.179406   4.284236   4.948755   5.419187   4.700857
                   16         17
    16  H    0.000000
    17  H    2.460666   0.000000
 Stoichiometry    C7H9N
 Framework group  C1[X(C7H9N)]
 Deg. of freedom    45
 Full point group                 C1      NOp   1
 Largest Abelian subgroup         C1      NOp   1
 Largest concise Abelian subgroup C1      NOp   1
                         Standard orientation:                         
 ---------------------------------------------------------------------
 Center     Atomic      Atomic             Coordinates (Angstroms)
 Number     Number       Type             X           Y           Z
 ---------------------------------------------------------------------
      1          6           0       -2.910834   -0.000014    0.021950
      2          6           0       -1.401727    0.000019   -0.012334
      3          6           0       -0.670833   -1.193478   -0.011779
      4          6           0        0.720271   -1.204780   -0.005738
      5          6           0        1.445878    0.000002   -0.003532
      6          7           0        2.831002   -0.000015   -0.040318
      7          6           0        0.720287    1.204782   -0.005741
      8          6           0       -0.670828    1.193498   -0.011782
      9          1           0       -3.320506   -0.884767   -0.476300
     10          1           0       -3.320392    0.886400   -0.473409
     11          1           0       -3.295575   -0.001674    1.050468
     12          1           0       -1.203796   -2.142108   -0.015932
     13          1           0        1.256823   -2.151534   -0.012883
     14          1           0        3.310040   -0.848433    0.206406
     15          1           0        3.310059    0.848395    0.206428
     16          1           0        1.256852    2.151531   -0.012888
     17          1           0       -1.203794    2.142128   -0.015923
 ---------------------------------------------------------------------
 Rotational constants (GHZ):           5.4744309           1.4490338           1.1545713
 Standard basis: 6-31G(d,p) (6D, 7F)
 There are   165 symmetry adapted cartesian basis functions of A   symmetry.
 There are   165 symmetry adapted basis functions of A   symmetry.
   165 basis functions,   287 primitive gaussians,   165 cartesian basis functions
    29 alpha electrons       29 beta electrons
       nuclear repulsion energy       342.0850003553 Hartrees.
 NAtoms=   17 NActive=   17 NUniq=   17 SFac= 1.00D+00 NAtFMM=   60 NAOKFM=F Big=F
 Integral buffers will be    131072 words long.
 Raffenetti 2 integral format.
 Two-electron integral symmetry is turned on.
 Nuclear repulsion after empirical dispersion term =      342.0569385559 Hartrees.
 One-electron integrals computed using PRISM.
 NBasis=   165 RedAO= T EigKep=  4.15D-04  NBF=   165
 NBsUse=   165 1.00D-06 EigRej= -1.00D+00 NBFU=   165
 Initial guess from the checkpoint file:  "an2_conf-1.chk"
 B after Tr=    -0.000000   -0.000000    0.000000
         Rot=    1.000000    0.000001   -0.000024   -0.000001 Ang=   0.00 deg.
 ExpMin= 1.61D-01 ExpMax= 4.17D+03 ExpMxC= 6.27D+02 IAcc=3 IRadAn=         5 AccDes= 0.00D+00
 Harris functional with IExCor=  402 and IRadAn=       5 diagonalized for initial guess.
 HarFok:  IExCor=  402 AccDes= 0.00D+00 IRadAn=         5 IDoV= 1 UseB2=F ITyADJ=14
 ICtDFT=  3500011 ScaDFX=  1.000000  1.000000  1.000000  1.000000
 FoFCou: FMM=F IPFlag=           0 FMFlag=      100000 FMFlg1=           0
         NFxFlg=           0 DoJE=T BraDBF=F KetDBF=T FulRan=T
         wScrn=  0.000000 ICntrl=       500 IOpCl=  0 I1Cent=   200000004 NGrid=           0
         NMat0=    1 NMatS0=      1 NMatT0=    0 NMatD0=    1 NMtDS0=    0 NMtDT0=    0
 Petite list used in FoFCou.
 Requested convergence on RMS density matrix=1.00D-08 within 128 cycles.
 Requested convergence on MAX density matrix=1.00D-06.
 Requested convergence on             energy=1.00D-06.
 No special actions if energy rises.
 Integral accuracy reduced to 1.0D-05 until final iterations.
 Initial convergence to 1.0D-05 achieved.  Increase integral accuracy.
 SCF Done:  E(RB3LYP) =  -326.963726754     A.U. after   10 cycles
            NFock= 10  Conv=0.85D-08     -V/T= 2.0099
 Calling FoFJK, ICntrl=      2127 FMM=F ISym2X=0 I1Cent= 0 IOpClX= 0 NMat=1 NMatS=1 NMatT=0.
 ***** Axes restored to original set *****
 -------------------------------------------------------------------
 Center     Atomic                   Forces (Hartrees/Bohr)
 Number     Number              X              Y              Z
 -------------------------------------------------------------------
      1        6           0.000203653    0.000042538   -0.000128802
      2        6           0.000793193   -0.000096998    0.000525001
      3        6          -0.000745912   -0.001098890   -0.000386095
      4        6           0.001411072    0.000643876   -0.000024271
      5        6          -0.003676222   -0.000515206    0.001581196
      6        7           0.000100653    0.001311778   -0.005459771
      7        6           0.001457832   -0.000459216   -0.000286816
      8        6          -0.000833616    0.001096088    0.000138171
      9        1          -0.000018288    0.000424906    0.000100797
     10        1           0.000010853   -0.000424179   -0.000104819
     11        1           0.000317478    0.000055563   -0.000186877
     12        1           0.000351846    0.000309474    0.000096923
     13        1          -0.000497567    0.000536159    0.000201151
     14        1           0.000648482   -0.001650338    0.001744571
     15        1           0.000554994    0.000723920    0.002307768
     16        1          -0.000455469   -0.000604590   -0.000070572
     17        1           0.000377017   -0.000294886   -0.000047556
 -------------------------------------------------------------------
 Cartesian Forces:  Max     0.005459771 RMS     0.001187580

 GradGradGradGradGradGradGradGradGradGradGradGradGradGradGradGradGradGrad
 Berny optimization.
 Using GEDIIS/GDIIS optimizer.
 FormGI is forming the generalized inverse of G from B-inverse, IUseBI=4.
 Internal  Forces:  Max     0.001828343 RMS     0.000583061
 Search for a local minimum.
 Step number   3 out of a maximum of   88
 All quantities printed in internal units (Hartrees-Bohrs-Radians)
 Mixed Optimization -- En-DIIS/RFO-DIIS
 Update second derivatives using D2CorX and points    1    2    3
 DE= -6.01D-04 DEPred=-3.83D-04 R= 1.57D+00
 TightC=F SS=  1.41D+00  RLast= 1.64D-01 DXNew= 8.4853D-01 4.9302D-01
 Trust test= 1.57D+00 RLast= 1.64D-01 DXMaxT set to 5.05D-01
 ITU=  1  1  0
 Use linear search instead of GDIIS.
     Eigenvalues ---    0.00537   0.00889   0.01505   0.01855   0.02124
     Eigenvalues ---    0.02153   0.02153   0.02161   0.02175   0.02195
     Eigenvalues ---    0.02197   0.02227   0.07001   0.07098   0.15961
     Eigenvalues ---    0.15999   0.15999   0.16000   0.16000   0.16000
     Eigenvalues ---    0.16000   0.16178   0.16777   0.22000   0.23041
     Eigenvalues ---    0.24984   0.24989   0.27262   0.31225   0.34735
     Eigenvalues ---    0.34749   0.34907   0.35991   0.36045   0.36131
     Eigenvalues ---    0.37248   0.42168   0.43432   0.45798   0.46293
     Eigenvalues ---    0.46356   0.47006   0.47145   0.51494   0.58981
 RFO step:  Lambda=-3.23392220D-04 EMin= 5.36630844D-03
 Quartic linear search produced a step of  0.62474.
 Iteration  1 RMS(Cart)=  0.01996158 RMS(Int)=  0.00210766
 Iteration  2 RMS(Cart)=  0.00131410 RMS(Int)=  0.00169443
 Iteration  3 RMS(Cart)=  0.00000599 RMS(Int)=  0.00169442
 Iteration  4 RMS(Cart)=  0.00000006 RMS(Int)=  0.00169442
 Variable       Old X    -DE/DX   Delta X   Delta X   Delta X     New X
                                 (Linear)    (Quad)   (Total)
    R1        2.85253  -0.00052  -0.00932  -0.00054  -0.00986   2.84268
    R2        2.06912  -0.00035   0.00080  -0.00065   0.00015   2.06927
    R3        2.06910  -0.00035   0.00081  -0.00065   0.00017   2.06926
    R4        2.07516  -0.00029   0.00203   0.00007   0.00210   2.07725
    R5        2.64470   0.00007   0.00153   0.00056   0.00208   2.64678
    R6        2.64468   0.00007   0.00151   0.00055   0.00206   2.64674
    R7        2.62892  -0.00023  -0.00526   0.00097  -0.00428   2.62463
    R8        2.05621  -0.00045   0.00247  -0.00066   0.00181   2.05803
    R9        2.65774  -0.00131   0.00316  -0.00119   0.00197   2.65971
   R10        2.05649  -0.00075   0.00173  -0.00116   0.00056   2.05705
   R11        2.61843   0.00135  -0.00628   0.00636   0.00008   2.61851
   R12        2.65773  -0.00131   0.00313  -0.00120   0.00193   2.65966
   R13        1.89930   0.00183   0.00126   0.00450   0.00576   1.90506
   R14        1.89932   0.00182   0.00127   0.00449   0.00576   1.90508
   R15        2.62894  -0.00023  -0.00524   0.00098  -0.00426   2.62467
   R16        2.05649  -0.00075   0.00174  -0.00117   0.00057   2.05706
   R17        2.05622  -0.00045   0.00248  -0.00067   0.00181   2.05803
    A1        1.94308   0.00020   0.00118   0.00180   0.00296   1.94604
    A2        1.94300   0.00020   0.00113   0.00183   0.00294   1.94593
    A3        1.95147  -0.00035   0.00126  -0.00007   0.00119   1.95266
    A4        1.88425  -0.00029   0.00562  -0.00252   0.00307   1.88732
    A5        1.86910   0.00012  -0.00468  -0.00066  -0.00534   1.86376
    A6        1.86911   0.00012  -0.00473  -0.00064  -0.00537   1.86374
    A7        2.12009  -0.00031   0.00372   0.00010   0.00380   2.12389
    A8        2.12014  -0.00031   0.00371   0.00009   0.00379   2.12394
    A9        2.04261   0.00062  -0.00755  -0.00006  -0.00762   2.03499
   A10        2.12840  -0.00069   0.00486  -0.00065   0.00421   2.13262
   A11        2.08023   0.00051  -0.00087   0.00036  -0.00051   2.07971
   A12        2.07456   0.00017  -0.00400   0.00030  -0.00370   2.07086
   A13        2.10476  -0.00007   0.00169   0.00092   0.00261   2.10737
   A14        2.09447  -0.00009  -0.00014  -0.00029  -0.00043   2.09403
   A15        2.08391   0.00017  -0.00156  -0.00062  -0.00218   2.08172
   A16        2.11261  -0.00045   0.00269   0.00011   0.00276   2.11537
   A17        2.05742   0.00090  -0.00555  -0.00047  -0.00604   2.05138
   A18        2.11263  -0.00045   0.00271   0.00011   0.00278   2.11541
   A19        2.06003  -0.00074  -0.00828  -0.01966  -0.03487   2.02516
   A20        2.06002  -0.00074  -0.00828  -0.01965  -0.03487   2.02515
   A21        2.00989  -0.00007  -0.02554  -0.02197  -0.05711   1.95278
   A22        2.10477  -0.00007   0.00170   0.00091   0.00262   2.10738
   A23        2.08390   0.00017  -0.00156  -0.00062  -0.00218   2.08173
   A24        2.09447  -0.00009  -0.00015  -0.00029  -0.00045   2.09402
   A25        2.12840  -0.00069   0.00485  -0.00065   0.00421   2.13261
   A26        2.08021   0.00051  -0.00086   0.00036  -0.00050   2.07971
   A27        2.07457   0.00017  -0.00399   0.00029  -0.00371   2.07086
    D1       -0.53510  -0.00000   0.00105   0.00238   0.00342  -0.53168
    D2        2.63524  -0.00009   0.00762  -0.00306   0.00459   2.63983
    D3       -2.63852   0.00009  -0.00764   0.00311  -0.00456  -2.64308
    D4        0.53182   0.00001  -0.00107  -0.00233  -0.00339   0.52843
    D5        1.55480   0.00004  -0.00324   0.00272  -0.00054   1.55426
    D6       -1.55805  -0.00005   0.00333  -0.00272   0.00063  -1.55741
    D7       -3.10985  -0.00006   0.00485  -0.00251   0.00232  -3.10753
    D8        0.03147  -0.00006   0.00667  -0.00403   0.00262   0.03409
    D9        0.00423   0.00001  -0.00134   0.00270   0.00137   0.00560
   D10       -3.13764   0.00001   0.00049   0.00118   0.00168  -3.13597
   D11        3.10985   0.00006  -0.00485   0.00251  -0.00232   3.10752
   D12       -0.03145   0.00006  -0.00666   0.00402  -0.00262  -0.03407
   D13       -0.00423  -0.00001   0.00133  -0.00270  -0.00138  -0.00560
   D14        3.13766  -0.00001  -0.00048  -0.00119  -0.00167   3.13599
   D15       -0.00299   0.00000   0.00007  -0.00051  -0.00045  -0.00344
   D16       -3.13374  -0.00001   0.00090  -0.00082   0.00007  -3.13368
   D17        3.13888   0.00000  -0.00176   0.00101  -0.00076   3.13813
   D18        0.00813  -0.00001  -0.00093   0.00069  -0.00024   0.00789
   D19       -3.10554   0.00008   0.00651   0.00659   0.01308  -3.09246
   D20        0.00151  -0.00002   0.00119  -0.00175  -0.00055   0.00096
   D21        0.02528   0.00009   0.00569   0.00691   0.01258   0.03786
   D22        3.13233  -0.00000   0.00037  -0.00144  -0.00105   3.13128
   D23       -0.31449  -0.00140  -0.04956  -0.06138  -0.10800  -0.42249
   D24       -2.86272   0.00133   0.04395   0.05274   0.09367  -2.76905
   D25        2.86274  -0.00133  -0.04396  -0.05276  -0.09370   2.76904
   D26        0.31452   0.00140   0.04955   0.06136   0.10797   0.42249
   D27       -0.00151   0.00002  -0.00120   0.00175   0.00054  -0.00097
   D28       -3.13233   0.00000  -0.00036   0.00144   0.00106  -3.13127
   D29        3.10554  -0.00008  -0.00651  -0.00659  -0.01309   3.09245
   D30       -0.02529  -0.00009  -0.00568  -0.00691  -0.01257  -0.03785
   D31        0.00299  -0.00000  -0.00006   0.00051   0.00046   0.00345
   D32       -3.13890  -0.00000   0.00175  -0.00100   0.00076  -3.13814
   D33        3.13374   0.00001  -0.00090   0.00082  -0.00007   3.13367
   D34       -0.00814   0.00001   0.00090  -0.00068   0.00022  -0.00792
         Item               Value     Threshold  Converged?
 Maximum Force            0.001828     0.000450     NO 
 RMS     Force            0.000583     0.000300     NO 
 Maximum Displacement     0.092471     0.001800     NO 
 RMS     Displacement     0.020223     0.001200     NO 
 Predicted change in Energy=-3.263513D-04
 GradGradGradGradGradGradGradGradGradGradGradGradGradGradGradGradGradGrad

                          Input orientation:                          
 ---------------------------------------------------------------------
 Center     Atomic      Atomic             Coordinates (Angstroms)
 Number     Number       Type             X           Y           Z
 ---------------------------------------------------------------------
      1          6           0       -2.720238   -0.101799   -0.006811
      2          6           0       -1.217810   -0.036184   -0.042366
      3          6           0       -0.438287   -1.166621   -0.318373
      4          6           0        0.950035   -1.126874   -0.314826
      5          6           0        1.634833    0.070122   -0.033417
      6          7           0        3.018065    0.134681   -0.083789
      7          6           0        0.861100    1.212942    0.242550
      8          6           0       -0.526369    1.150178    0.233516
      9          1           0       -3.104957   -0.864435   -0.691955
     10          1           0       -3.170322    0.858738   -0.278533
     11          1           0       -3.095559   -0.356262    0.994539
     12          1           0       -0.933091   -2.110232   -0.543806
     13          1           0        1.520506   -2.025759   -0.541760
     14          1           0        3.506768   -0.737210    0.047627
     15          1           0        3.445060    0.886626    0.434446
     16          1           0        1.361542    2.156135    0.454414
     17          1           0       -1.091477    2.055952    0.448644
 ---------------------------------------------------------------------
                    Distance matrix (angstroms):
                    1          2          3          4          5
     1  C    0.000000
     2  C    1.504280   0.000000
     3  C    2.537364   1.400616   0.000000
     4  C    3.823160   2.442006   1.388896   0.000000
     5  C    4.358543   2.854637   2.430753   1.407458   0.000000
     6  N    5.743689   4.239522   3.700646   2.433443   1.385654
     7  C    3.823180   2.442000   2.768639   2.406930   1.407429
     8  C    2.537373   1.400592   2.383254   2.768648   2.430754
     9  H    1.095010   2.160854   2.709614   4.080939   4.875723
    10  H    1.095007   2.160778   3.401130   4.573983   4.875603
    11  H    1.099236   2.168770   3.072705   4.321471   4.859537
    12  H    2.741543   2.152715   1.089060   2.136724   3.407150
    13  H    4.687398   3.421430   2.150556   1.088546   2.159677
    14  H    6.259578   4.777152   3.985199   2.611531   2.040220
    15  H    6.259599   4.777163   4.456786   3.292527   2.040219
    16  H    4.687421   3.421419   3.857109   3.396941   2.159656
    17  H    2.741567   2.152693   3.376381   3.857595   3.407149
                    6          7          8          9         10
     6  N    0.000000
     7  C    2.433442   0.000000
     8  C    3.700665   1.388917   0.000000
     9  H    6.233738   4.573664   3.400630   0.000000
    10  H    6.233644   4.080362   2.708804   1.773279   0.000000
    11  H    6.227376   4.322388   3.073964   1.761417   1.761400
    12  H    4.567590   3.857585   3.376377   2.508178   3.726977
    13  H    2.668319   3.396932   3.857114   4.771388   5.513029
    14  H    1.008115   3.292514   4.456791   6.654178   6.872916
    15  H    1.008123   2.611542   3.985232   6.872970   6.653750
    16  H    2.668333   1.088550   2.150570   5.512497   4.770560
    17  H    4.567614   2.136750   1.089061   3.726088   2.506732
                   11         12         13         14         15
    11  H    0.000000
    12  H    3.181067   0.000000
    13  H    5.143490   2.455051   0.000000
    14  H    6.680755   4.684798   2.439872   0.000000
    15  H    6.681180   5.395028   3.624758   1.670413   0.000000
    16  H    5.144864   4.946076   4.301845   3.624764   2.439897
    17  H    3.183257   4.285689   4.946082   5.395038   4.684836
                   16         17
    16  H    0.000000
    17  H    2.455071   0.000000
 Stoichiometry    C7H9N
 Framework group  C1[X(C7H9N)]
 Deg. of freedom    45
 Full point group                 C1      NOp   1
 Largest Abelian subgroup         C1      NOp   1
 Largest concise Abelian subgroup C1      NOp   1
                         Standard orientation:                         
 ---------------------------------------------------------------------
 Center     Atomic      Atomic             Coordinates (Angstroms)
 Number     Number       Type             X           Y           Z
 ---------------------------------------------------------------------
      1          6           0       -2.909160   -0.000014    0.024500
[...]
      3 vectors produced by pass  4 Test12= 2.64D-13 3.33D-08 XBig12= 6.46D-08 7.70D-05.
      3 vectors produced by pass  5 Test12= 2.64D-13 3.33D-08 XBig12= 6.32D-10 7.96D-06.
      3 vectors produced by pass  6 Test12= 2.64D-13 3.33D-08 XBig12= 7.01D-12 5.90D-07.
      2 vectors produced by pass  7 Test12= 2.64D-13 3.33D-08 XBig12= 8.75D-14 8.04D-08.
 InvSVY:  IOpt=1 It=  1 EMax= 4.44D-16
 Solved reduced A of dimension    23 with     3 vectors.
 Calculating GIAO nuclear magnetic shielding tensors.
 SCF GIAO Magnetic shielding tensor (ppm):
      1  C    Isotropic =   164.3501   Anisotropy =    39.9629
   XX=   190.9889   YX=    -0.0278   ZX=     5.2710
   XY=    -0.0015   YY=   159.4275   ZY=    -0.0009
   XZ=    -4.4942   YZ=    -0.0014   ZZ=   142.6339
   Eigenvalues:   142.6307   159.4275   190.9921
      2  C    Isotropic =    36.4877   Anisotropy =   211.8310
   XX=   -79.8746   YX=     0.0017   ZX=     2.5306
   XY=     0.0018   YY=    11.6318   ZY=     0.0001
   XZ=    -4.1636   YZ=    -0.0005   ZZ=   177.7057
   Eigenvalues:   -79.8772    11.6318   177.7083
      3  C    Isotropic =    33.4012   Anisotropy =   193.9724
   XX=    -3.4052   YX=   -48.5172   ZX=     1.3325
   XY=   -54.6463   YY=   -58.9054   ZY=    -0.8713
   XZ=     8.5261   YZ=    -2.8348   ZZ=   162.5142
   Eigenvalues:   -89.7313    27.2188   162.7162
      4  C    Isotropic =    52.6352   Anisotropy =   166.0290
   XX=    22.0559   YX=    41.2744   ZX=     1.3256
   XY=    44.1931   YY=   -27.4070   ZY=    -1.2432
   XZ=     4.6990   YZ=    -0.1771   ZZ=   163.2568
   Eigenvalues:   -52.0707    46.6551   163.3212
      5  C    Isotropic =    17.4978   Anisotropy =   203.9935
   XX=   -92.7301   YX=    -0.0101   ZX=    -2.4356
   XY=    -0.0049   YY=    -8.2279   ZY=     0.0001
   XZ=    -3.9989   YZ=     0.0003   ZZ=   153.4515
   Eigenvalues:   -92.7721    -8.2279   153.4935
      6  N    Isotropic =   189.9325   Anisotropy =    98.3821
   XX=   253.4994   YX=    -0.0056   ZX=    10.2373
   XY=     0.0004   YY=   156.3008   ZY=     0.0004
   XZ=   -38.0271   YZ=    -0.0006   ZZ=   159.9973
   Eigenvalues:   156.3008   157.9761   255.5206
      7  C    Isotropic =    52.6402   Anisotropy =   166.0193
   XX=    22.0526   YX=   -41.2694   ZX=     1.3251
   XY=   -44.1973   YY=   -27.3872   ZY=     1.2428
   XZ=     4.6994   YZ=     0.1745   ZZ=   163.2553
   Eigenvalues:   -52.0563    46.6573   163.3198
      8  C    Isotropic =    33.4023   Anisotropy =   193.9167
   XX=    -3.3732   YX=    48.5381   ZX=     1.3325
   XY=    54.6372   YY=   -58.8981   ZY=     0.8705
   XZ=     8.5261   YZ=     2.8337   ZZ=   162.4780
   Eigenvalues:   -89.7227    27.2494   162.6800
      9  H    Isotropic =    29.6912   Anisotropy =     7.6432
   XX=    31.3927   YX=     3.2623   ZX=     1.9274
   XY=     0.9880   YY=    31.4647   ZY=     2.3139
   XZ=     2.2373   YZ=     2.6998   ZZ=    26.2161
   Eigenvalues:    24.9704    29.3165    34.7866
     10  H    Isotropic =    29.6932   Anisotropy =     7.6402
   XX=    31.3944   YX=    -3.2686   ZX=     1.9174
   XY=    -0.9888   YY=    31.4813   ZY=    -2.3055
   XZ=     2.2242   YZ=    -2.6887   ZZ=    26.2038
   Eigenvalues:    24.9712    29.3217    34.7866
     11  H    Isotropic =    29.4568   Anisotropy =     8.5293
   XX=    30.8594   YX=     0.0052   ZX=    -3.5739
   XY=     0.0020   YY=    26.7737   ZY=    -0.0083
   XZ=    -5.1145   YZ=    -0.0110   ZZ=    30.7374
   Eigenvalues:    26.4537    26.7737    35.1430
     12  H    Isotropic =    24.1399   Anisotropy =     7.6654
   XX=    27.5985   YX=    -3.6676   ZX=     0.0774
   XY=    -2.5557   YY=    23.3832   ZY=     0.0544
   XZ=    -0.0101   YZ=     0.4601   ZZ=    21.4381
   Eigenvalues:    21.3004    21.8692    29.2502
     13  H    Isotropic =    24.6782   Anisotropy =     6.9990
   XX=    27.9625   YX=     3.0598   ZX=     0.1150
   XY=     2.2325   YY=    24.2717   ZY=    -0.0218
   XZ=     0.1270   YZ=    -0.0765   ZZ=    21.8004
   Eigenvalues:    21.7905    22.9000    29.3442
     14  H    Isotropic =    28.7756   Anisotropy =    10.7525
   XX=    31.0535   YX=    -5.7736   ZX=     2.4870
   XY=    -0.8088   YY=    32.1407   ZY=    -1.9090
   XZ=     3.6422   YZ=    -2.2840   ZZ=    23.1326
   Eigenvalues:    21.9885    28.3944    35.9439
     15  H    Isotropic =    28.7756   Anisotropy =    10.7520
   XX=    31.0535   YX=     5.7734   ZX=     2.4867
   XY=     0.8088   YY=    32.1407   ZY=     1.9087
   XZ=     3.6419   YZ=     2.2835   ZZ=    23.1324
   Eigenvalues:    21.9886    28.3946    35.9435
     16  H    Isotropic =    24.6786   Anisotropy =     6.9988
   XX=    27.9630   YX=    -3.0595   ZX=     0.1150
   XY=    -2.2325   YY=    24.2722   ZY=     0.0218
   XZ=     0.1269   YZ=     0.0766   ZZ=    21.8007
   Eigenvalues:    21.7908    22.9006    29.3445
     17  H    Isotropic =    24.1405   Anisotropy =     7.6629
   XX=    27.5981   YX=     3.6657   ZX=     0.0774
   XY=     2.5551   YY=    23.3842   ZY=    -0.0544
   XZ=    -0.0100   YZ=    -0.4601   ZZ=    21.4392
   Eigenvalues:    21.3016    21.8708    29.2491
 End of Minotr F.D. properties file   721 does not exist.
 End of Minotr F.D. properties file   722 does not exist.
 End of Minotr F.D. properties file   788 does not exist.

 **********************************************************************

            Population analysis using the SCF Density.

 **********************************************************************

 Orbital symmetries:
       Occupied  (A) (A) (A) (A) (A) (A) (A) (A) (A) (A) (A) (A)
                 (A) (A) (A) (A) (A) (A) (A) (A) (A) (A) (A) (A)
                 (A) (A) (A) (A) (A)
       Virtual   (A) (A) (A) (A) (A) (A) (A) (A) (A) (A) (A) (A)
                 (A) (A) (A) (A) (A) (A) (A) (A) (A) (A) (A) (A)
                 (A) (A) (A) (A) (A) (A) (A) (A) (A) (A) (A) (A)
                 (A) (A) (A) (A) (A) (A) (A) (A) (A) (A) (A) (A)
                 (A) (A) (A) (A) (A) (A) (A) (A) (A) (A) (A) (A)
                 (A) (A) (A) (A) (A) (A) (A) (A) (A) (A) (A) (A)
                 (A) (A) (A) (A) (A) (A) (A) (A) (A) (A) (A) (A)
                 (A) (A) (A) (A) (A) (A) (A) (A) (A) (A) (A) (A)
                 (A) (A) (A) (A) (A) (A) (A) (A) (A) (A) (A) (A)
                 (A) (A) (A) (A) (A) (A) (A) (A) (A) (A) (A) (A)
                 (A) (A) (A) (A) (A) (A) (A) (A) (A) (A) (A) (A)
                 (A) (A) (A) (A) (A) (A) (A) (A) (A) (A) (A) (A)
                 (A) (A) (A) (A) (A) (A) (A) (A) (A) (A) (A) (A)
                 (A) (A) (A) (A) (A) (A) (A) (A) (A) (A) (A) (A)
                 (A) (A) (A) (A) (A) (A) (A) (A) (A) (A) (A) (A)
                 (A) (A) (A) (A) (A) (A) (A) (A) (A) (A) (A) (A)
                 (A) (A) (A) (A) (A) (A) (A) (A) (A) (A) (A) (A)
                 (A) (A) (A) (A) (A) (A) (A) (A) (A) (A) (A) (A)
                 (A) (A) (A) (A) (A) (A) (A) (A) (A) (A) (A) (A)
                 (A) (A) (A) (A) (A) (A) (A) (A) (A) (A) (A) (A)
                 (A) (A) (A) (A) (A) (A) (A) (A) (A) (A) (A) (A)
                 (A) (A) (A) (A) (A) (A) (A) (A) (A) (A) (A) (A)
                 (A) (A) (A) (A) (A) (A) (A) (A) (A)
 The electronic state is 1-A.
 Alpha  occ. eigenvalues --  -14.74918 -10.57710 -10.53589 -10.53440 -10.53420
 Alpha  occ. eigenvalues --  -10.53196 -10.53195 -10.52663  -1.02361  -0.94011
 Alpha  occ. eigenvalues --   -0.84750  -0.83500  -0.75955  -0.69277  -0.65865
 Alpha  occ. eigenvalues --   -0.58814  -0.58051  -0.52849  -0.50259  -0.48771
 Alpha  occ. eigenvalues --   -0.48127  -0.47895  -0.44507  -0.43878  -0.40643
 Alpha  occ. eigenvalues --   -0.38962  -0.36796  -0.30182  -0.25202
 Alpha virt. eigenvalues --    0.02510   0.04262   0.06603   0.08286   0.09824
 Alpha virt. eigenvalues --    0.10642   0.12626   0.13829   0.16136   0.16171
 Alpha virt. eigenvalues --    0.17301   0.17496   0.18623   0.20106   0.22507
 Alpha virt. eigenvalues --    0.23815   0.24836   0.26239   0.26763   0.27811
 Alpha virt. eigenvalues --    0.28488   0.30501   0.30800   0.32028   0.34446
 Alpha virt. eigenvalues --    0.35277   0.35959   0.36843   0.37808   0.38092
 Alpha virt. eigenvalues --    0.39225   0.39826   0.40445   0.43185   0.44377
 Alpha virt. eigenvalues --    0.45014   0.45936   0.47284   0.47517   0.48108
 Alpha virt. eigenvalues --    0.48567   0.48971   0.50731   0.52342   0.52719
 Alpha virt. eigenvalues --    0.53906   0.55241   0.55381   0.57566   0.57740
 Alpha virt. eigenvalues --    0.58988   0.61367   0.65161   0.65930   0.67908
 Alpha virt. eigenvalues --    0.69937   0.70669   0.71135   0.73432   0.76575
 Alpha virt. eigenvalues --    0.77158   0.79276   0.79964   0.80185   0.85342
 Alpha virt. eigenvalues --    0.87799   0.89257   0.90911   0.91598   0.91847
 Alpha virt. eigenvalues --    0.97323   0.97808   1.00639   1.05347   1.05634
 Alpha virt. eigenvalues --    1.07682   1.10080   1.11197   1.13289   1.13374
 Alpha virt. eigenvalues --    1.17880   1.19800   1.22712   1.26039   1.26612
 Alpha virt. eigenvalues --    1.27296   1.28844   1.32130   1.33048   1.33790
 Alpha virt. eigenvalues --    1.36827   1.39707   1.41516   1.42864   1.43117
 Alpha virt. eigenvalues --    1.47640   1.51359   1.52291   1.54899   1.55117
 Alpha virt. eigenvalues --    1.56786   1.57168   1.60008   1.61384   1.62050
 Alpha virt. eigenvalues --    1.62239   1.64456   1.66723   1.67381   1.68257
 Alpha virt. eigenvalues --    1.71121   1.71793   1.73436   1.77240   1.77260
 Alpha virt. eigenvalues --    1.78857   1.82765   1.86837   1.89281   1.89849
 Alpha virt. eigenvalues --    1.91029   1.93918   1.97005   1.99365   2.02458
 Alpha virt. eigenvalues --    2.04165   2.04761   2.06808   2.07006   2.12953
 Alpha virt. eigenvalues --    2.15987   2.18241   2.18954   2.20152   2.22652
 Alpha virt. eigenvalues --    2.24160   2.24639   2.27595   2.31577   2.36103
 Alpha virt. eigenvalues --    2.39244   2.39743   2.41124   2.44307   2.45110
 Alpha virt. eigenvalues --    2.47458   2.50612   2.52917   2.54706   2.56265
 Alpha virt. eigenvalues --    2.56848   2.61160   2.61806   2.64515   2.64521
 Alpha virt. eigenvalues --    2.65763   2.67267   2.67283   2.71860   2.72743
 Alpha virt. eigenvalues --    2.74275   2.77953   2.78949   2.80354   2.81725
 Alpha virt. eigenvalues --    2.83122   2.84566   2.87422   2.88013   2.90005
 Alpha virt. eigenvalues --    2.91979   2.95325   2.95804   2.98177   3.01892
 Alpha virt. eigenvalues --    3.01950   3.02748   3.06288   3.08164   3.08424
 Alpha virt. eigenvalues --    3.11946   3.14615   3.15098   3.15503   3.16122
 Alpha virt. eigenvalues --    3.16546   3.19409   3.22609   3.24037   3.25381
 Alpha virt. eigenvalues --    3.26857   3.26958   3.29377   3.29903   3.31192
 Alpha virt. eigenvalues --    3.33776   3.34169   3.37946   3.40061   3.41399
 Alpha virt. eigenvalues --    3.41780   3.44129   3.45245   3.47257   3.47826
 Alpha virt. eigenvalues --    3.47861   3.50952   3.54136   3.56568   3.61194
 Alpha virt. eigenvalues --    3.66910   3.67037   3.70874   3.74698   3.75604
 Alpha virt. eigenvalues --    3.79759   3.80136   3.84226   3.86241   3.87627
 Alpha virt. eigenvalues --    3.90201   3.99175   4.01318   4.06239   4.07694
 Alpha virt. eigenvalues --    4.10758   4.11105   4.14060   4.14409   4.16648
 Alpha virt. eigenvalues --    4.18839   4.23011   4.24555   4.24958   4.28086
 Alpha virt. eigenvalues --    4.33529   4.38545   4.38561   4.46176   4.49423
 Alpha virt. eigenvalues --    4.52464   4.54717   4.60305   4.62115   4.66547
 Alpha virt. eigenvalues --    4.72907   4.75618   4.75959   4.84344   4.88314
 Alpha virt. eigenvalues --    4.88399   4.93621   4.95153   5.05398   5.08729
 Alpha virt. eigenvalues --    5.15664   5.24848   5.29615   5.30708   5.33284
 Alpha virt. eigenvalues --    5.44535   5.51666   5.52690   5.80582   5.83556
 Alpha virt. eigenvalues --   22.22428  22.50520  22.79471  22.80821  22.81829
 Alpha virt. eigenvalues --   22.98924  23.36741  32.16520
          Condensed to atoms (all electrons):
               1          2          3          4          5          6
     1  C    5.079187   0.285658  -0.077014   0.015250  -0.004017   0.000060
     2  C    0.285658   4.968889   0.483736  -0.010333  -0.071527   0.005848
     3  C   -0.077014   0.483736   5.050501   0.430195  -0.001486  -0.003049
     4  C    0.015250  -0.010333   0.430195   5.084882   0.477501  -0.042314
     5  C   -0.004017  -0.071527  -0.001486   0.477501   4.754816   0.231184
     6  N    0.000060   0.005848  -0.003049  -0.042314   0.231184   6.643934
     7  C    0.015288  -0.010347  -0.101978   0.026169   0.477534  -0.042320
     8  C   -0.076968   0.483958  -0.006789  -0.101924  -0.001512  -0.003048
     9  H    0.430994  -0.055924  -0.013390   0.001226   0.000374   0.000002
    10  H    0.430995  -0.055950   0.011470  -0.001094   0.000373   0.000002
    11  H    0.389651  -0.026715  -0.004356  -0.000575  -0.000255  -0.000012
    12  H   -0.005273  -0.041373   0.408901  -0.035114   0.007232  -0.000226
    13  H   -0.000209   0.001787  -0.004632   0.382902  -0.034897   0.000777
    14  H   -0.000002   0.000020   0.001306  -0.010608  -0.040370   0.379753
    15  H   -0.000002   0.000020  -0.001216   0.003887  -0.040368   0.379755
    16  H   -0.000210   0.001784   0.000968   0.002315  -0.034890   0.000777
    17  H   -0.005304  -0.041361   0.009394  -0.002100   0.007230  -0.000226
               7          8          9         10         11         12
     1  C    0.015288  -0.076968   0.430994   0.430995   0.389651  -0.005273
     2  C   -0.010347   0.483958  -0.055924  -0.055950  -0.026715  -0.041373
     3  C   -0.101978  -0.006789  -0.013390   0.011470  -0.004356   0.408901
     4  C    0.026169  -0.101924   0.001226  -0.001094  -0.000575  -0.035114
     5  C    0.477534  -0.001512   0.000374   0.000373  -0.000255   0.007232
     6  N   -0.042320  -0.003048   0.000002   0.000002  -0.000012  -0.000226
     7  C    5.084943   0.430165  -0.001095   0.001230  -0.000576  -0.002100
     8  C    0.430165   5.050274   0.011445  -0.013389  -0.004343   0.009386
     9  H   -0.001095   0.011445   0.540191  -0.025959  -0.031179   0.000386
    10  H    0.001230  -0.013389  -0.025959   0.540176  -0.031109  -0.000004
    11  H   -0.000576  -0.004343  -0.031179  -0.031109   0.554969   0.000523
    12  H   -0.002100   0.009386   0.000386  -0.000004   0.000523   0.523664
    13  H    0.002318   0.000966  -0.000040   0.000006   0.000022  -0.004876
    14  H    0.003889  -0.001216   0.000001   0.000000  -0.000001  -0.000027
    15  H   -0.010609   0.001307   0.000000   0.000001  -0.000001   0.000025
    16  H    0.382891  -0.004623   0.000006  -0.000040   0.000022   0.000075
    17  H   -0.035099   0.408880  -0.000004   0.000394   0.000522  -0.000297
              13         14         15         16         17
     1  C   -0.000209  -0.000002  -0.000002  -0.000210  -0.005304
     2  C    0.001787   0.000020   0.000020   0.001784  -0.041361
     3  C   -0.004632   0.001306  -0.001216   0.000968   0.009394
     4  C    0.382902  -0.010608   0.003887   0.002315  -0.002100
     5  C   -0.034897  -0.040370  -0.040368  -0.034890   0.007230
     6  N    0.000777   0.379753   0.379755   0.000777  -0.000226
     7  C    0.002318   0.003889  -0.010609   0.382891  -0.035099
     8  C    0.000966  -0.001216   0.001307  -0.004623   0.408880
     9  H   -0.000040   0.000001   0.000000   0.000006  -0.000004
    10  H    0.000006   0.000000   0.000001  -0.000040   0.000394
    11  H    0.000022  -0.000001  -0.000001   0.000022   0.000522
    12  H   -0.004876  -0.000027   0.000025   0.000075  -0.000297
    13  H    0.510901   0.002536  -0.000250  -0.000442   0.000075
    14  H    0.002536   0.458055  -0.031212  -0.000249   0.000025
    15  H   -0.000250  -0.031212   0.458054   0.002536  -0.000027
    16  H   -0.000442  -0.000249   0.002536   0.510899  -0.004873
    17  H    0.000075   0.000025  -0.000027  -0.004873   0.523692
 Mulliken charges:
               1
     1  C   -0.478084
     2  C    0.081830
     3  C   -0.182563
     4  C   -0.220264
     5  C    0.273078
     6  N   -0.550897
     7  C   -0.220303
     8  C   -0.182567
     9  H    0.142966
    10  H    0.142898
    11  H    0.153411
    12  H    0.139099
    13  H    0.143056
    14  H    0.238102
    15  H    0.238101
    16  H    0.143055
    17  H    0.139081
 Sum of Mulliken charges =  -0.00000
 Mulliken charges with hydrogens summed into heavy atoms:
               1
     1  C   -0.038809
     2  C    0.081830
     3  C   -0.043464
     4  C   -0.077208
     5  C    0.273078
     6  N   -0.074693
     7  C   -0.077248
     8  C   -0.043486
 Electronic spatial extent (au):  <R**2>=           1034.2333
 Charge=             -0.0000 electrons
 Dipole moment (field-independent basis, Debye):
    X=              0.8281    Y=             -0.0002    Z=              1.0677  Tot=              1.3512
 Quadrupole moment (field-independent basis, Debye-Ang):
   XX=            -40.6938   YY=            -43.3810   ZZ=            -53.2253
   XY=              0.0003   XZ=              3.8649   YZ=             -0.0001
 Traceless Quadrupole moment (field-independent basis, Debye-Ang):
   XX=              5.0729   YY=              2.3857   ZZ=             -7.4586
   XY=              0.0003   XZ=              3.8649   YZ=             -0.0001
 Octapole moment (field-independent basis, Debye-Ang**2):
  XXX=             25.1081  YYY=              0.0021  ZZZ=              1.5456  XYY=              7.5643
  XXY=             -0.0001  XXZ=             13.8102  XZZ=             -1.0658  YZZ=             -0.0032
  YYZ=             -0.0064  XYZ=             -0.0005
 Hexadecapole moment (field-independent basis, Debye-Ang**3):
 XXXX=           -940.3942 YYYY=           -297.9759 ZZZZ=            -69.1192 XXXY=              0.0009
 XXXZ=             48.9512 YYYX=             -0.0091 YYYZ=              0.0001 ZZZX=              0.8210
 ZZZY=             -0.0004 XXYY=           -193.5778 XXZZ=           -191.1183 YYZZ=            -72.1536
 XXYZ=             -0.0004 YYXZ=              5.0969 ZZXY=              0.0100
 N-N= 3.420715008723D+02 E-N=-1.442816528167D+03  KE= 3.250975035209D+02
 Unable to Open any file for archive entry.
 1\1\GINC-COMPUTE-0-26\SP\RM062X\def2TZVP\C7H9N1\SHEINS\16-Feb-2023\0\\
 # M062X/def2tzvp int=(grid=ultrafine) nmr=giao guess=read geom=check\\
 an2.xyz\\0,1\C,0,-2.717479313,-0.1024685901,-0.003513664\C,0,-1.210336
 6978,-0.0367639451,-0.0387067437\C,0,-0.439003065,-1.1705181372,-0.318
 6259021\C,0,0.951942368,-1.1259301013,-0.3204825439\C,0,1.6275205475,0
 .0716082577,-0.040843749\N,0,3.0241998501,0.1392482124,-0.1020004403\C
 ,0,0.8629830652,1.2147946068,0.2371332595\C,0,-0.5273498804,1.15371738
 97,0.2350609841\H,0,-3.1002861797,-0.8618362932,-0.6922611289\H,0,-3.1
 655550021,0.8568423119,-0.2800714289\H,0,-3.0884437553,-0.356697055,0.
 9976910781\H,0,-0.9362310645,-2.1116944658,-0.5398979407\H,0,1.5235447
 794,-2.0219072864,-0.5492015738\H,0,3.4929051212,-0.7409813955,0.06527
 17221\H,0,3.4312689305,0.881040036,0.4516315816\H,0,1.3647394939,2.156
 2680981,0.4461407265\H,0,-1.0946191981,2.0552783569,0.4527757634\\Vers
 ion=ES64L-G16RevC.01\State=1-A\HF=-326.893704\RMSD=8.947e-10\Dipole=0.
 3301004,-0.0847273,0.4079931\Quadrupole=3.8300509,1.333914,-5.1639649,
 -0.5676415,2.7120225,1.7557662\PG=C01 [X(C7H9N1)]\\@
 The archive entry for this job was punched.


 NATURE GIVES TO EVERY TIME AND SEASON SOME BEAUTY OF ITS OWN.

                                                    --DICKENS
 Job cpu time:       0 days  0 hours 10 minutes 54.6 seconds.
 Elapsed time:       0 days  0 hours  0 minutes 44.8 seconds.
 File lengths (MBytes):  RWF=     56 Int=      0 D2E=      0 Chk=     10 Scr=      1
 Normal termination of Gaussian 16 at Thu Feb 16 10:18:42 2023.
 
 
-----Kestrel cluster job statistics-----
Time info:

real	4m12.750s
user	64m56.483s
sys	0m12.470s
 
Disk space usage:
9.1M	/scratch/144407.kestrel.chem.wisc.edu
