 Entering Gaussian System, Link 0=/share/apps/gaussian/g16/g16
 Initial command:
 /share/apps/gaussian/g16/l1.exe "/scratch/144423.kestrel.chem.wisc.edu/Gau-109000.inp" -scrdir="/scratch/144423.kestrel.chem.wisc.edu/"
 Entering Link 1 = /share/apps/gaussian/g16/l1.exe PID=    109001.
  
 Copyright (c) 1988-2019, Gaussian, Inc.  All Rights Reserved.
  
 This is part of the Gaussian(R) 16 program.  It is based on
 the Gaussian(R) 09 system (copyright 2009, Gaussian, Inc.),
 the Gaussian(R) 03 system (copyright 2003, Gaussian, Inc.),
 the Gaussian(R) 98 system (copyright 1998, Gaussian, Inc.),
 the Gaussian(R) 94 system (copyright 1995, Gaussian, Inc.),
 the Gaussian 92(TM) system (copyright 1992, Gaussian, Inc.),
 the Gaussian 90(TM) system (copyright 1990, Gaussian, Inc.),
 the Gaussian 88(TM) system (copyright 1988, Gaussian, Inc.),
 the Gaussian 86(TM) system (copyright 1986, Carnegie Mellon
 University), and the Gaussian 82(TM) system (copyright 1983,
 Carnegie Mellon University). Gaussian is a federally registered
 trademark of Gaussian, Inc.
  
 This software contains proprietary and confidential information,
 including trade secrets, belonging to Gaussian, Inc.
  
 This software is provided under written license and may be
 used, copied, transmitted, or stored only in accord with that
 written license.
  
 The following legend is applicable only to US Government
 contracts under FAR:
  
                    RESTRICTED RIGHTS LEGEND
  
 Use, reproduction and disclosure by the US Government is
 subject to restrictions as set forth in subparagraphs (a)
 and (c) of the Commercial Computer Software - Restricted
 Rights clause in FAR 52.227-19.
  
 Gaussian, Inc.
 340 Quinnipiac St., Bldg. 40, Wallingford CT 06492
  
  
 ---------------------------------------------------------------
 Warning -- This program may not be used in any manner that
 competes with the business of Gaussian, Inc. or will provide
 assistance to any competitor of Gaussian, Inc.  The licensee
 of this program is prohibited from giving any competitor of
 Gaussian, Inc. access to this program.  By using this program,
 the user acknowledges that Gaussian, Inc. is engaged in the
 business of creating and licensing software in the field of
 computational chemistry and represents and warrants to the
 licensee that it is not a competitor of Gaussian, Inc. and that
 it will not use this program in any manner prohibited above.
 ---------------------------------------------------------------
  

 Cite this work as:
 Gaussian 16, Revision C.01,
 M. J. Frisch, G. W. Trucks, H. B. Schlegel, G. E. Scuseria, 
 M. A. Robb, J. R. Cheeseman, G. Scalmani, V. Barone, 
 G. A. Petersson, H. Nakatsuji, X. Li, M. Caricato, A. V. Marenich, 
 J. Bloino, B. G. Janesko, R. Gomperts, B. Mennucci, H. P. Hratchian, 
 J. V. Ortiz, A. F. Izmaylov, J. L. Sonnenberg, D. Williams-Young, 
 F. Ding, F. Lipparini, F. Egidi, J. Goings, B. Peng, A. Petrone, 
 T. Henderson, D. Ranasinghe, V. G. Zakrzewski, J. Gao, N. Rega, 
 G. Zheng, W. Liang, M. Hada, M. Ehara, K. Toyota, R. Fukuda, 
 J. Hasegawa, M. Ishida, T. Nakajima, Y. Honda, O. Kitao, H. Nakai, 
 T. Vreven, K. Throssell, J. A. Montgomery, Jr., J. E. Peralta, 
 F. Ogliaro, M. J. Bearpark, J. J. Heyd, E. N. Brothers, K. N. Kudin, 
 V. N. Staroverov, T. A. Keith, R. Kobayashi, J. Normand, 
 K. Raghavachari, A. P. Rendell, J. C. Burant, S. S. Iyengar, 
 J. Tomasi, M. Cossi, J. M. Millam, M. Klene, C. Adamo, R. Cammi, 
 J. W. Ochterski, R. L. Martin, K. Morokuma, O. Farkas, 
 J. B. Foresman, and D. J. Fox, Gaussian, Inc., Wallingford CT, 2019.
 
 ******************************************
 Gaussian 16:  ES64L-G16RevC.01  3-Jul-2019
                16-Feb-2023 
 ******************************************
 %nprocs=16
 Will use up to   16 processors via shared memory.
 %mem=16GB
 %chk=an3_conf-1.chk
 ----------------------------------------------------------------------
 # B3LYP/6-31G(d,p) symmetry=loose empiricaldispersion=GD3BJ int=(grid=
 ultrafine) opt freq=noraman
 ----------------------------------------------------------------------
 1/18=20,19=15,26=4,38=1/1,3;
 2/9=110,12=2,17=4,18=3,40=1/2;
 3/5=1,6=6,7=101,11=2,25=1,30=1,71=1,74=-5,75=-5,124=41/1,2,3;
 4//1;
 5/5=2,38=5/2;
 6/7=2,8=2,9=2,10=2,28=1/1;
 7//1,2,3,16;
 1/18=20,19=15,26=4/3(2);
 2/9=110/2;
 99//99;
 2/9=110/2;
 3/5=1,6=6,7=101,11=2,25=1,30=1,71=1,74=-5,75=-5,124=41/1,2,3;
 4/5=5,16=3,69=1/1;
 5/5=2,38=5/2;
 7//1,2,3,16;
 1/18=20,19=15,26=4/3(-5);
 2/9=110/2;
 6/7=2,8=2,9=2,10=2,19=2,28=1/1;
 99/9=1/99;
 -------
 an3.xyz
 -------
 Symbolic Z-matrix:
 Charge =  0 Multiplicity = 1
 C                     3.122     0.3028    0.6079 
 O                     2.2892   -0.0524   -0.4901 
 C                     0.9197   -0.0703   -0.3207 
 C                     0.1663   -0.4333   -1.4359 
 C                    -1.2246   -0.4815   -1.3667 
 C                    -1.8633   -0.1629   -0.1736 
 N                    -3.2496   -0.2055   -0.1035 
 C                    -1.128     0.1997    0.9495 
 C                     0.2634    0.2471    0.8787 
 H                     4.1655    0.2618    0.2955 
 H                     2.9208    1.3189    0.9509 
 H                     3.0009   -0.3892    1.4427 
 H                     0.6716   -0.6795   -2.3572 
 H                    -1.795    -0.7679   -2.2363 
 H                    -3.7564   -0.2823   -0.9718 
 H                    -3.6902    0.2238    0.6952 
 H                    -1.6269    0.4409    1.875 
 H                     0.8146    0.5294    1.7605 
 

 GradGradGradGradGradGradGradGradGradGradGradGradGradGradGradGradGradGrad
 Berny optimization.
 Initialization pass.
                           ----------------------------
                           !    Initial Parameters    !
                           ! (Angstroms and Degrees)  !
 --------------------------                            --------------------------
 ! Name  Definition              Value          Derivative Info.                !
 --------------------------------------------------------------------------------
 ! R1    R(1,2)                  1.4231         estimate D2E/DX2                !
 ! R2    R(1,10)                 1.09           estimate D2E/DX2                !
 ! R3    R(1,11)                 1.0911         estimate D2E/DX2                !
 ! R4    R(1,12)                 1.0911         estimate D2E/DX2                !
 ! R5    R(2,3)                  1.3801         estimate D2E/DX2                !
 ! R6    R(3,4)                  1.3939         estimate D2E/DX2                !
 ! R7    R(3,9)                  1.4036         estimate D2E/DX2                !
 ! R8    R(4,5)                  1.3935         estimate D2E/DX2                !
 ! R9    R(4,13)                 1.0792         estimate D2E/DX2                !
 ! R10   R(5,6)                  1.3903         estimate D2E/DX2                !
 ! R11   R(5,14)                 1.0787         estimate D2E/DX2                !
 ! R12   R(6,7)                  1.3887         estimate D2E/DX2                !
 ! R13   R(6,8)                  1.3905         estimate D2E/DX2                !
 ! R14   R(7,15)                 1.0083         estimate D2E/DX2                !
 ! R15   R(7,16)                 1.0081         estimate D2E/DX2                !
 ! R16   R(8,9)                  1.394          estimate D2E/DX2                !
 ! R17   R(8,17)                 1.0787         estimate D2E/DX2                !
 ! R18   R(9,18)                 1.0775         estimate D2E/DX2                !
 ! A1    A(2,1,10)             109.2504         estimate D2E/DX2                !
 ! A2    A(2,1,11)             111.5338         estimate D2E/DX2                !
 ! A3    A(2,1,12)             111.5349         estimate D2E/DX2                !
 ! A4    A(10,1,11)            107.5562         estimate D2E/DX2                !
 ! A5    A(10,1,12)            107.5586         estimate D2E/DX2                !
 ! A6    A(11,1,12)            109.247          estimate D2E/DX2                !
 ! A7    A(1,2,3)              119.2908         estimate D2E/DX2                !
 ! A8    A(2,3,4)              116.2013         estimate D2E/DX2                !
 ! A9    A(2,3,9)              124.47           estimate D2E/DX2                !
 ! A10   A(4,3,9)              119.3287         estimate D2E/DX2                !
 ! A11   A(3,4,5)              120.582          estimate D2E/DX2                !
 ! A12   A(3,4,13)             119.2955         estimate D2E/DX2                !
 ! A13   A(5,4,13)             120.1224         estimate D2E/DX2                !
 ! A14   A(4,5,6)              119.5541         estimate D2E/DX2                !
 ! A15   A(4,5,14)             119.7995         estimate D2E/DX2                !
 ! A16   A(6,5,14)             120.6461         estimate D2E/DX2                !
 ! A17   A(5,6,7)              119.6621         estimate D2E/DX2                !
 ! A18   A(5,6,8)              120.661          estimate D2E/DX2                !
 ! A19   A(7,6,8)              119.6768         estimate D2E/DX2                !
 ! A20   A(6,7,15)             117.4267         estimate D2E/DX2                !
 ! A21   A(6,7,16)             117.5943         estimate D2E/DX2                !
 ! A22   A(15,7,16)            119.6703         estimate D2E/DX2                !
 ! A23   A(6,8,9)              119.7131         estimate D2E/DX2                !
 ! A24   A(6,8,17)             120.4451         estimate D2E/DX2                !
 ! A25   A(9,8,17)             119.8414         estimate D2E/DX2                !
 ! A26   A(3,9,8)              120.1607         estimate D2E/DX2                !
 ! A27   A(3,9,18)             121.2892         estimate D2E/DX2                !
 ! A28   A(8,9,18)             118.55           estimate D2E/DX2                !
 ! D1    D(10,1,2,3)           179.8887         estimate D2E/DX2                !
 ! D2    D(11,1,2,3)           -61.3422         estimate D2E/DX2                !
 ! D3    D(12,1,2,3)            61.1159         estimate D2E/DX2                !
 ! D4    D(1,2,3,4)           -179.7043         estimate D2E/DX2                !
 ! D5    D(1,2,3,9)              0.2567         estimate D2E/DX2                !
 ! D6    D(2,3,4,5)           -179.9983         estimate D2E/DX2                !
 ! D7    D(2,3,4,13)             0.1063         estimate D2E/DX2                !
 ! D8    D(9,3,4,5)              0.0386         estimate D2E/DX2                !
 ! D9    D(9,3,4,13)          -179.8568         estimate D2E/DX2                !
 ! D10   D(2,3,9,8)            179.9854         estimate D2E/DX2                !
 ! D11   D(2,3,9,18)            -0.1097         estimate D2E/DX2                !
 ! D12   D(4,3,9,8)             -0.0547         estimate D2E/DX2                !
 ! D13   D(4,3,9,18)           179.8502         estimate D2E/DX2                !
 ! D14   D(3,4,5,6)              0.0598         estimate D2E/DX2                !
 ! D15   D(3,4,5,14)          -179.7545         estimate D2E/DX2                !
 ! D16   D(13,4,5,6)           179.9543         estimate D2E/DX2                !
 ! D17   D(13,4,5,14)            0.1401         estimate D2E/DX2                !
 ! D18   D(4,5,6,7)            179.7675         estimate D2E/DX2                !
 ! D19   D(4,5,6,8)             -0.1438         estimate D2E/DX2                !
 ! D20   D(14,5,6,7)            -0.4199         estimate D2E/DX2                !
 ! D21   D(14,5,6,8)           179.6688         estimate D2E/DX2                !
 ! D22   D(5,6,7,15)           -12.3292         estimate D2E/DX2                !
 ! D23   D(5,6,7,16)          -166.5534         estimate D2E/DX2                !
 ! D24   D(8,6,7,15)           167.583          estimate D2E/DX2                !
 ! D25   D(8,6,7,16)            13.3588         estimate D2E/DX2                !
 ! D26   D(5,6,8,9)              0.1279         estimate D2E/DX2                !
 ! D27   D(5,6,8,17)          -179.6586         estimate D2E/DX2                !
 ! D28   D(7,6,8,9)           -179.7835         estimate D2E/DX2                !
 ! D29   D(7,6,8,17)             0.4301         estimate D2E/DX2                !
 ! D30   D(6,8,9,3)             -0.0276         estimate D2E/DX2                !
 ! D31   D(6,8,9,18)          -179.9351         estimate D2E/DX2                !
 ! D32   D(17,8,9,3)           179.7601         estimate D2E/DX2                !
 ! D33   D(17,8,9,18)           -0.1473         estimate D2E/DX2                !
 --------------------------------------------------------------------------------
 Trust Radius=3.00D-01 FncErr=1.00D-07 GrdErr=1.00D-06 EigMax=2.50D+02 EigMin=1.00D-04
 Number of steps in this run=     89 maximum allowed number of steps=    108.
 GradGradGradGradGradGradGradGradGradGradGradGradGradGradGradGradGradGrad

                          Input orientation:                          
 ---------------------------------------------------------------------
 Center     Atomic      Atomic             Coordinates (Angstroms)
 Number     Number       Type             X           Y           Z
 ---------------------------------------------------------------------
      1          6           0        3.122000    0.302800    0.607900
      2          8           0        2.289200   -0.052400   -0.490100
      3          6           0        0.919700   -0.070300   -0.320700
      4          6           0        0.166300   -0.433300   -1.435900
      5          6           0       -1.224600   -0.481500   -1.366700
      6          6           0       -1.863300   -0.162900   -0.173600
      7          7           0       -3.249600   -0.205500   -0.103500
      8          6           0       -1.128000    0.199700    0.949500
      9          6           0        0.263400    0.247100    0.878700
     10          1           0        4.165500    0.261800    0.295500
     11          1           0        2.920800    1.318900    0.950900
     12          1           0        3.000900   -0.389200    1.442700
     13          1           0        0.671600   -0.679500   -2.357200
     14          1           0       -1.795000   -0.767900   -2.236300
     15          1           0       -3.756400   -0.282300   -0.971800
     16          1           0       -3.690200    0.223800    0.695200
     17          1           0       -1.626900    0.440900    1.875000
     18          1           0        0.814600    0.529400    1.760500
 ---------------------------------------------------------------------
                    Distance matrix (angstroms):
                    1          2          3          4          5
     1  C    0.000000
     2  O    1.423140   0.000000
     3  C    2.419014   1.380053   0.000000
     4  C    3.668123   2.355064   1.393934   0.000000
     5  C    4.838089   3.646827   2.420996   1.393454   0.000000
     6  C    5.067626   4.166010   2.788423   2.405368   1.390299
     7  N    6.431310   5.554386   4.177142   3.673630   2.402598
     8  C    4.264953   3.716619   2.424744   2.786761   2.416226
     9  C    2.871938   2.463164   1.403579   2.414487   2.790488
    10  H    1.090031   2.058249   3.320423   4.412993   5.689339
    11  H    1.091141   2.087070   2.747953   4.044044   5.079080
    12  H    1.091064   2.087023   2.746392   4.040203   5.075047
    13  H    3.970037   2.548715   2.140096   1.079229   2.148457
    14  H    5.780377   4.499094   3.394962   2.144597   1.078696
    15  H    7.081679   6.069116   4.725969   3.952944   2.570144
    16  H    6.813217   6.102004   4.729664   4.454880   3.290602
    17  H    4.916977   4.601400   3.401117   3.865469   3.394302
    18  H    2.589195   2.752842   2.168428   3.400597   3.867769
                    6          7          8          9         10
     6  C    0.000000
     7  N    1.388725   0.000000
     8  C    1.390503   2.402953   0.000000
     9  C    2.407963   3.675695   1.394006   0.000000
    10  H    6.061918   7.440516   5.334109   3.945469   0.000000
    11  H    5.133015   6.442778   4.200642   2.866312   1.759627
    12  H    5.130700   6.441524   4.199746   2.866510   1.759591
    13  H    3.385366   4.547488   3.865982   3.390614   4.486669
    14  H    2.150679   2.642156   3.395653   3.869168   6.557275
    15  H    2.057962   1.008310   3.291231   4.456838   8.041057
    16  H    2.059591   1.008141   2.574902   3.957925   7.865954
    17  H    2.148772   2.639214   1.078716   2.145555   6.006563
    18  H    3.375081   4.531258   2.130755   1.077537   3.666929
                   11         12         13         14         15
    11  H    0.000000
    12  H    1.779294   0.000000
    13  H    4.471692   4.466447   0.000000
    14  H    6.062322   6.056328   2.471143   0.000000
    15  H    7.130611   7.176513   4.656639   2.383665   0.000000
    16  H    6.705964   6.760573   5.399851   3.628904   1.743390
    17  H    4.722967   4.721492   4.944686   4.288618   3.627955
    18  H    2.390573   2.392641   4.293873   4.946454   5.386869
                   16         17         18
    16  H    0.000000
    17  H    2.386685   0.000000
    18  H    4.639125   2.445785   0.000000
 Stoichiometry    C7H9NO
 Framework group  C1[X(C7H9NO)]
 Deg. of freedom    48
 Full point group                 C1      NOp   1
 Largest Abelian subgroup         C1      NOp   1
 Largest concise Abelian subgroup C1      NOp   1
                         Standard orientation:                         
 ---------------------------------------------------------------------
 Center     Atomic      Atomic             Coordinates (Angstroms)
 Number     Number       Type             X           Y           Z
 ---------------------------------------------------------------------
      1          6           0        3.223003   -0.484778    0.007616
      2          8           0        2.278180    0.579472    0.010240
      3          6           0        0.929865    0.285351    0.000853
      4          6           0        0.061995    1.376150   -0.002372
      5          6           0       -1.318120    1.184033   -0.011706
      6          6           0       -1.830566   -0.108371   -0.016575
      7          7           0       -3.205657   -0.302437   -0.020981
      8          6           0       -0.980047   -1.208422   -0.015226
      9          6           0        0.400376   -1.014504   -0.006229
     10          1           0        4.231155   -0.070344    0.014045
     11          1           0        3.120104   -1.113878    0.893186
     12          1           0        3.127075   -1.103289   -0.886063
     13          1           0        0.469721    2.375393    0.000725
     14          1           0       -1.978104    2.037242   -0.018117
     15          1           0       -3.788269    0.497908    0.170592
     16          1           0       -3.547199   -1.228687    0.183369
     17          1           0       -1.381389   -2.209655   -0.024559
     18          1           0        1.042032   -1.880162   -0.006407
 ---------------------------------------------------------------------
 Rotational constants (GHZ):           4.8534103           0.9903498           0.8270173
 Standard basis: 6-31G(d,p) (6D, 7F)
 There are   180 symmetry adapted cartesian basis functions of A   symmetry.
 There are   180 symmetry adapted basis functions of A   symmetry.
   180 basis functions,   315 primitive gaussians,   180 cartesian basis functions
    33 alpha electrons       33 beta electrons
       nuclear repulsion energy       424.1869014940 Hartrees.
 NAtoms=   18 NActive=   18 NUniq=   18 SFac= 1.00D+00 NAtFMM=   60 NAOKFM=F Big=F
 Integral buffers will be    131072 words long.
 Raffenetti 2 integral format.
 Two-electron integral symmetry is turned on.
 Nuclear repulsion after empirical dispersion term =      424.1573562228 Hartrees.
 One-electron integrals computed using PRISM.
 NBasis=   180 RedAO= T EigKep=  4.16D-04  NBF=   180
 NBsUse=   180 1.00D-06 EigRej= -1.00D+00 NBFU=   180
 ExpMin= 1.61D-01 ExpMax= 5.48D+03 ExpMxC= 8.25D+02 IAcc=3 IRadAn=         5 AccDes= 0.00D+00
 Harris functional with IExCor=  402 and IRadAn=       5 diagonalized for initial guess.
 HarFok:  IExCor=  402 AccDes= 0.00D+00 IRadAn=         5 IDoV= 1 UseB2=F ITyADJ=14
 ICtDFT=  3500011 ScaDFX=  1.000000  1.000000  1.000000  1.000000
 FoFCou: FMM=F IPFlag=           0 FMFlag=      100000 FMFlg1=           0
         NFxFlg=           0 DoJE=T BraDBF=F KetDBF=T FulRan=T
         wScrn=  0.000000 ICntrl=       500 IOpCl=  0 I1Cent=   200000004 NGrid=           0
         NMat0=    1 NMatS0=      1 NMatT0=    0 NMatD0=    1 NMtDS0=    0 NMtDT0=    0
 Petite list used in FoFCou.
 Requested convergence on RMS density matrix=1.00D-08 within 128 cycles.
 Requested convergence on MAX density matrix=1.00D-06.
 Requested convergence on             energy=1.00D-06.
 No special actions if energy rises.
 Integral accuracy reduced to 1.0D-05 until final iterations.
 Initial convergence to 1.0D-05 achieved.  Increase integral accuracy.
 SCF Done:  E(RB3LYP) =  -402.164397885     A.U. after   13 cycles
            NFock= 13  Conv=0.81D-08     -V/T= 2.0094

 **********************************************************************

            Population analysis using the SCF Density.

 **********************************************************************

 Orbital symmetries:
       Occupied  (A) (A) (A) (A) (A) (A) (A) (A) (A) (A) (A) (A)
                 (A) (A) (A) (A) (A) (A) (A) (A) (A) (A) (A) (A)
                 (A) (A) (A) (A) (A) (A) (A) (A) (A)
       Virtual   (A) (A) (A) (A) (A) (A) (A) (A) (A) (A) (A) (A)
                 (A) (A) (A) (A) (A) (A) (A) (A) (A) (A) (A) (A)
                 (A) (A) (A) (A) (A) (A) (A) (A) (A) (A) (A) (A)
                 (A) (A) (A) (A) (A) (A) (A) (A) (A) (A) (A) (A)
                 (A) (A) (A) (A) (A) (A) (A) (A) (A) (A) (A) (A)
                 (A) (A) (A) (A) (A) (A) (A) (A) (A) (A) (A) (A)
                 (A) (A) (A) (A) (A) (A) (A) (A) (A) (A) (A) (A)
                 (A) (A) (A) (A) (A) (A) (A) (A) (A) (A) (A) (A)
                 (A) (A) (A) (A) (A) (A) (A) (A) (A) (A) (A) (A)
                 (A) (A) (A) (A) (A) (A) (A) (A) (A) (A) (A) (A)
                 (A) (A) (A) (A) (A) (A) (A) (A) (A) (A) (A) (A)
                 (A) (A) (A) (A) (A) (A) (A) (A) (A) (A) (A) (A)
                 (A) (A) (A)
 The electronic state is 1-A.
 Alpha  occ. eigenvalues --  -19.15999 -14.32887 -10.23071 -10.22659 -10.21224
 Alpha  occ. eigenvalues --  -10.17781 -10.17418 -10.17355 -10.17342  -1.04053
 Alpha  occ. eigenvalues --   -0.90736  -0.82396  -0.74045  -0.72767  -0.67667
 Alpha  occ. eigenvalues --   -0.61098  -0.57964  -0.52384  -0.51374  -0.49202
 Alpha  occ. eigenvalues --   -0.45417  -0.45151  -0.43861  -0.41640  -0.39780
 Alpha  occ. eigenvalues --   -0.38016  -0.37493  -0.34916  -0.33211  -0.31243
 Alpha  occ. eigenvalues --   -0.26469  -0.24029  -0.17382
 Alpha virt. eigenvalues --    0.00789   0.04293   0.08299   0.10353   0.11793
 Alpha virt. eigenvalues --    0.12877   0.14450   0.16217   0.17643   0.17812
 Alpha virt. eigenvalues --    0.18572   0.18915   0.21399   0.25558   0.28231
 Alpha virt. eigenvalues --    0.34297   0.34993   0.35950   0.36653   0.48714
 Alpha virt. eigenvalues --    0.51650   0.52910   0.53703   0.55717   0.55785
 Alpha virt. eigenvalues --    0.57573   0.58809   0.60189   0.60895   0.61985
 Alpha virt. eigenvalues --    0.62139   0.63170   0.65893   0.67247   0.68720
 Alpha virt. eigenvalues --    0.70117   0.75264   0.76642   0.79019   0.82308
 Alpha virt. eigenvalues --    0.82750   0.83544   0.85208   0.85548   0.86485
 Alpha virt. eigenvalues --    0.87905   0.89160   0.92976   0.94248   0.95799
 Alpha virt. eigenvalues --    1.00519   1.01106   1.02941   1.04461   1.06873
 Alpha virt. eigenvalues --    1.14940   1.17634   1.19339   1.22704   1.25625
 Alpha virt. eigenvalues --    1.26416   1.29749   1.30460   1.33738   1.40095
 Alpha virt. eigenvalues --    1.41115   1.41403   1.42298   1.46104   1.46885
 Alpha virt. eigenvalues --    1.50168   1.63528   1.71481   1.74643   1.78632
 Alpha virt. eigenvalues --    1.81773   1.85618   1.87558   1.88040   1.89440
 Alpha virt. eigenvalues --    1.90015   1.93814   1.94335   1.95699   1.98380
 Alpha virt. eigenvalues --    1.99078   1.99915   2.03485   2.03926   2.06054
 Alpha virt. eigenvalues --    2.06245   2.10089   2.11725   2.15724   2.18288
 Alpha virt. eigenvalues --    2.25750   2.28628   2.29446   2.34167   2.37795
 Alpha virt. eigenvalues --    2.38493   2.41653   2.42541   2.42903   2.45852
 Alpha virt. eigenvalues --    2.47582   2.51464   2.53434   2.54594   2.56308
 Alpha virt. eigenvalues --    2.59284   2.61307   2.62403   2.64175   2.69524
 Alpha virt. eigenvalues --    2.71045   2.74303   2.75982   2.78544   2.81237
 Alpha virt. eigenvalues --    2.84034   2.86204   2.88252   2.96140   3.03428
 Alpha virt. eigenvalues --    3.06883   3.12114   3.18037   3.21825   3.27561
 Alpha virt. eigenvalues --    3.32779   3.34179   3.42110   3.42884   3.46466
 Alpha virt. eigenvalues --    3.51514   3.62781   3.87150   4.04516   4.10389
 Alpha virt. eigenvalues --    4.15600   4.17081   4.35018   4.44464   4.47323
 Alpha virt. eigenvalues --    4.54352   4.88108
          Condensed to atoms (all electrons):
               1          2          3          4          5          6
     1  C    4.710719   0.260019  -0.040185   0.003702  -0.000101  -0.000016
     2  O    0.260019   8.228787   0.262803  -0.053565   0.003259   0.000131
     3  C   -0.040185   0.262803   4.574947   0.547697  -0.028872  -0.036680
     4  C    0.003702  -0.053565   0.547697   4.882540   0.529049  -0.017319
     5  C   -0.000101   0.003259  -0.028872   0.529049   4.925225   0.541482
     6  C   -0.000016   0.000131  -0.036680  -0.017319   0.541482   4.498786
     7  N   -0.000000  -0.000000   0.000570   0.005383  -0.073147   0.289505
     8  C    0.000396   0.004246  -0.015899  -0.039679  -0.053506   0.549210
     9  C   -0.005708  -0.058936   0.474963  -0.057151  -0.043640  -0.014683
    10  H    0.394634  -0.030389   0.002706  -0.000108   0.000004  -0.000000
    11  H    0.371403  -0.036501  -0.004013   0.000041  -0.000005   0.000001
    12  H    0.371554  -0.036473  -0.003959   0.000053  -0.000001  -0.000006
    13  H   -0.000181  -0.000229  -0.036464   0.352387  -0.038979   0.004365
    14  H    0.000003  -0.000057   0.004482  -0.036028   0.360051  -0.044811
    15  H    0.000000  -0.000000  -0.000004  -0.000066  -0.009617  -0.023230
    16  H    0.000000  -0.000000  -0.000012  -0.000172   0.005781  -0.023068
    17  H   -0.000003  -0.000049   0.003432   0.000530   0.005762  -0.042417
    18  H    0.004635  -0.008155  -0.045146   0.004676   0.000972   0.003790
               7          8          9         10         11         12
     1  C   -0.000000   0.000396  -0.005708   0.394634   0.371403   0.371554
     2  O   -0.000000   0.004246  -0.058936  -0.030389  -0.036501  -0.036473
     3  C    0.000570  -0.015899   0.474963   0.002706  -0.004013  -0.003959
     4  C    0.005383  -0.039679  -0.057151  -0.000108   0.000041   0.000053
     5  C   -0.073147  -0.053506  -0.043640   0.000004  -0.000005  -0.000001
     6  C    0.289505   0.549210  -0.014683  -0.000000   0.000001  -0.000006
     7  N    6.849805  -0.073183   0.005929  -0.000000   0.000000   0.000000
     8  C   -0.073183   4.945554   0.490347   0.000001  -0.000197  -0.000178
     9  C    0.005929   0.490347   5.003929   0.000080   0.004643   0.004594
    10  H   -0.000000   0.000001   0.000080   0.588344  -0.036878  -0.036718
    11  H    0.000000  -0.000197   0.004643  -0.036878   0.647135  -0.052753
    12  H    0.000000  -0.000178   0.004594  -0.036718  -0.052753   0.645969
    13  H   -0.000120   0.000400   0.007435  -0.000032   0.000030   0.000032
    14  H   -0.009843   0.006019   0.000274  -0.000000  -0.000000  -0.000000
    15  H    0.349698   0.005801  -0.000186   0.000000   0.000000  -0.000000
    16  H    0.349878  -0.009847  -0.000054  -0.000000   0.000000  -0.000000
    17  H   -0.009717   0.357307  -0.034109  -0.000000   0.000001   0.000004
    18  H   -0.000138  -0.035773   0.360535  -0.000194   0.001892   0.002005
              13         14         15         16         17         18
     1  C   -0.000181   0.000003   0.000000   0.000000  -0.000003   0.004635
     2  O   -0.000229  -0.000057  -0.000000  -0.000000  -0.000049  -0.008155
     3  C   -0.036464   0.004482  -0.000004  -0.000012   0.003432  -0.045146
     4  C    0.352387  -0.036028  -0.000066  -0.000172   0.000530   0.004676
     5  C   -0.038979   0.360051  -0.009617   0.005781   0.005762   0.000972
     6  C    0.004365  -0.044811  -0.023230  -0.023068  -0.042417   0.003790
     7  N   -0.000120  -0.009843   0.349698   0.349878  -0.009717  -0.000138
     8  C    0.000400   0.006019   0.005801  -0.009847   0.357307  -0.035773
     9  C    0.007435   0.000274  -0.000186  -0.000054  -0.034109   0.360535
    10  H   -0.000032  -0.000000   0.000000  -0.000000  -0.000000  -0.000194
    11  H    0.000030  -0.000000   0.000000   0.000000   0.000001   0.001892
    12  H    0.000032  -0.000000  -0.000000  -0.000000   0.000004   0.002005
    13  H    0.630944  -0.007199  -0.000008   0.000004   0.000016  -0.000182
    14  H   -0.007199   0.650054   0.005907  -0.000059  -0.000203   0.000016
    15  H   -0.000008   0.005907   0.444850  -0.030188  -0.000057   0.000004
    16  H    0.000004  -0.000059  -0.030188   0.445092   0.005836  -0.000008
    17  H    0.000016  -0.000203  -0.000057   0.005836   0.650429  -0.006666
    18  H   -0.000182   0.000016   0.000004  -0.000008  -0.006666   0.639609
 Mulliken charges:
               1
     1  C   -0.070870
     2  O   -0.534891
     3  C    0.339635
     4  C   -0.121969
     5  C   -0.123717
     6  C    0.314961
     7  N   -0.684619
     8  C   -0.131021
     9  C   -0.138260
    10  H    0.118550
    11  H    0.105203
    12  H    0.105879
    13  H    0.087781
    14  H    0.071395
    15  H    0.257096
    16  H    0.256817
    17  H    0.069904
    18  H    0.078127
 Sum of Mulliken charges =  -0.00000
 Mulliken charges with hydrogens summed into heavy atoms:
               1
     1  C    0.258762
     2  O   -0.534891
     3  C    0.339635
     4  C   -0.034188
     5  C   -0.052322
     6  C    0.314961
     7  N   -0.170707
     8  C   -0.061117
     9  C   -0.060133
 Electronic spatial extent (au):  <R**2>=           1370.9815
 Charge=             -0.0000 electrons
 Dipole moment (field-independent basis, Debye):
    X=             -1.0407    Y=             -1.3018    Z=              0.6226  Tot=              1.7792
 Quadrupole moment (field-independent basis, Debye-Ang):
   XX=            -39.6891   YY=            -48.1423   ZZ=            -56.7262
   XY=             -3.2513   XZ=             -2.5147   YZ=             -0.2845
 Traceless Quadrupole moment (field-independent basis, Debye-Ang):
   XX=              8.4968   YY=              0.0436   ZZ=             -8.5403
   XY=             -3.2513   XZ=             -2.5147   YZ=             -0.2845
 Octapole moment (field-independent basis, Debye-Ang**2):
  XXX=            -13.2680  YYY=             -0.0601  ZZZ=              0.6096  XYY=             -9.2382
  XXY=            -10.4370  XXZ=              9.6916  XZZ=              5.9419  YZZ=              0.0312
  YYZ=              0.5343  XYZ=              0.9806
 Hexadecapole moment (field-independent basis, Debye-Ang**3):
 XXXX=          -1100.6514 YYYY=           -321.8091 ZZZZ=            -63.1752 XXXY=            -14.8577
 XXXZ=            -37.2125 YYYX=             13.3950 YYYZ=             -0.6000 ZZZX=             -1.9379
 ZZZY=             -0.2134 XXYY=           -254.0548 XXZZ=           -252.5784 YYZZ=            -73.4916
 XXYZ=             -3.6314 YYXZ=             -2.2276 ZZXY=              0.2475
 N-N= 4.241573562228D+02 E-N=-1.783828598551D+03  KE= 3.984370275404D+02
 Calling FoFJK, ICntrl=      2127 FMM=F ISym2X=0 I1Cent= 0 IOpClX= 0 NMat=1 NMatS=1 NMatT=0.
 ***** Axes restored to original set *****
 -------------------------------------------------------------------
 Center     Atomic                   Forces (Hartrees/Bohr)
 Number     Number              X              Y              Z
 -------------------------------------------------------------------
      1        6          -0.007221996   -0.000857833   -0.001982059
      2        8           0.005533121   -0.000063543   -0.001338902
      3        6           0.006869823    0.003158754    0.009951655
      4        6          -0.005947216   -0.001330784   -0.001340849
      5        6           0.018735945    0.000234147   -0.000602845
      6        6          -0.022319398    0.003547108    0.002486945
      7        7           0.000365733   -0.007118277    0.001605176
      8        6           0.013826746   -0.000768137   -0.003430527
      9        6           0.001396976   -0.001762912   -0.004336530
     10        1          -0.001228833   -0.002057587   -0.006973077
     11        1          -0.002487346    0.003896273    0.002409446
     12        1          -0.002243792   -0.002246770    0.004185477
     13        1           0.003253956   -0.000542744   -0.002670484
     14        1          -0.003240342   -0.000934301   -0.003698093
     15        1          -0.002993621    0.003996979    0.005146814
     16        1          -0.003327805    0.000512521   -0.006076242
     17        1          -0.002740449    0.001298808    0.003962599
     18        1           0.003768501    0.001038298    0.002701496
 -------------------------------------------------------------------
 Cartesian Forces:  Max     0.022319398 RMS     0.005664877

 GradGradGradGradGradGradGradGradGradGradGradGradGradGradGradGradGradGrad
 Berny optimization.
 FormGI is forming the generalized inverse of G from B-inverse, IUseBI=4.
 Internal  Forces:  Max     0.012952045 RMS     0.004137744
 Search for a local minimum.
 Step number   1 out of a maximum of   89
 All quantities printed in internal units (Hartrees-Bohrs-Radians)
 Mixed Optimization -- RFO/linear search
 Second derivative matrix not updated -- first step.
 ITU=  0
     Eigenvalues ---    0.01386   0.01841   0.01956   0.02073   0.02087
     Eigenvalues ---    0.02109   0.02115   0.02172   0.02178   0.02190
     Eigenvalues ---    0.02197   0.02210   0.02636   0.09957   0.10311
     Eigenvalues ---    0.16000   0.16000   0.16000   0.16000   0.16000
     Eigenvalues ---    0.16000   0.16000   0.16000   0.16000   0.22000
     Eigenvalues ---    0.22981   0.24000   0.25000   0.25000   0.25000
     Eigenvalues ---    0.34681   0.34690   0.34809   0.36088   0.36150
     Eigenvalues ---    0.36152   0.36294   0.41991   0.42019   0.42568
     Eigenvalues ---    0.45869   0.46257   0.46285   0.46675   0.46872
     Eigenvalues ---    0.47156   0.47541   0.49093
 RFO step:  Lambda=-5.19022967D-03 EMin= 1.38568524D-02
 Linear search not attempted -- first point.
 Iteration  1 RMS(Cart)=  0.03469159 RMS(Int)=  0.00055304
 Iteration  2 RMS(Cart)=  0.00070547 RMS(Int)=  0.00025687
 Iteration  3 RMS(Cart)=  0.00000031 RMS(Int)=  0.00025687
 Variable       Old X    -DE/DX   Delta X   Delta X   Delta X     New X
                                 (Linear)    (Quad)   (Total)
    R1        2.68934  -0.00985   0.00000  -0.02317  -0.02317   2.66617
    R2        2.05986   0.00090   0.00000   0.00255   0.00255   2.06241
    R3        2.06196   0.00484   0.00000   0.01376   0.01376   2.07572
    R4        2.06181   0.00488   0.00000   0.01385   0.01385   2.07566
    R5        2.60792  -0.00715   0.00000  -0.01442  -0.01442   2.59350
    R6        2.63415   0.00231   0.00000   0.00392   0.00382   2.63798
    R7        2.65238  -0.00527   0.00000  -0.01266  -0.01276   2.63962
    R8        2.63325  -0.00110   0.00000  -0.00226  -0.00226   2.63098
    R9        2.03945   0.00393   0.00000   0.01073   0.01073   2.05018
   R10        2.62728   0.01273   0.00000   0.02770   0.02779   2.65507
   R11        2.03844   0.00494   0.00000   0.01348   0.01348   2.05192
   R12        2.62431   0.00606   0.00000   0.01261   0.01261   2.63692
   R13        2.62767   0.01046   0.00000   0.02288   0.02298   2.65065
   R14        1.90543  -0.00323   0.00000  -0.00691  -0.00691   1.89852
   R15        1.90511  -0.00314   0.00000  -0.00671  -0.00671   1.89840
   R16        2.63429   0.00273   0.00000   0.00572   0.00572   2.64001
   R17        2.03848   0.00496   0.00000   0.01352   0.01352   2.05200
   R18        2.03625   0.00441   0.00000   0.01198   0.01198   2.04823
    A1        1.90678  -0.01039   0.00000  -0.06384  -0.06395   1.84283
    A2        1.94663   0.00107   0.00000   0.00697   0.00688   1.95351
    A3        1.94665   0.00101   0.00000   0.00662   0.00653   1.95318
    A4        1.87721   0.00451   0.00000   0.02637   0.02626   1.90347
    A5        1.87725   0.00454   0.00000   0.02654   0.02643   1.90368
    A6        1.90672  -0.00050   0.00000  -0.00131  -0.00138   1.90534
    A7        2.08202  -0.01295   0.00000  -0.05075  -0.05075   2.03126
    A8        2.02809  -0.00034   0.00000   0.00099   0.00108   2.02918
    A9        2.17241  -0.00085   0.00000  -0.00099  -0.00090   2.17151
   A10        2.08268   0.00120   0.00000  -0.00001  -0.00019   2.08249
   A11        2.10455   0.00050   0.00000  -0.00065  -0.00074   2.10381
   A12        2.08210  -0.00189   0.00000  -0.00960  -0.00956   2.07254
   A13        2.09653   0.00139   0.00000   0.01025   0.01030   2.10683
   A14        2.08661   0.00455   0.00000   0.02168   0.02178   2.10840
   A15        2.09090  -0.00154   0.00000  -0.00639  -0.00645   2.08445
   A16        2.10567  -0.00301   0.00000  -0.01529  -0.01535   2.09032
   A17        2.08850   0.00564   0.00000   0.02061   0.02037   2.10887
   A18        2.10593  -0.01180   0.00000  -0.04326  -0.04315   2.06278
   A19        2.08875   0.00616   0.00000   0.02268   0.02244   2.11119
   A20        2.04948   0.00344   0.00000   0.00912   0.00806   2.05755
   A21        2.05241   0.00312   0.00000   0.00713   0.00608   2.05849
   A22        2.08864  -0.00721   0.00000  -0.05674  -0.05797   2.03067
   A23        2.08939   0.00505   0.00000   0.02338   0.02351   2.11290
   A24        2.10216  -0.00302   0.00000  -0.01471  -0.01478   2.08739
   A25        2.09163  -0.00203   0.00000  -0.00868  -0.00874   2.08289
   A26        2.09720   0.00050   0.00000  -0.00114  -0.00122   2.09599
   A27        2.11690  -0.00205   0.00000  -0.01032  -0.01028   2.10662
   A28        2.06909   0.00155   0.00000   0.01146   0.01150   2.08058
    D1        3.13965  -0.00001   0.00000  -0.00050  -0.00050   3.13915
    D2       -1.07062  -0.00043   0.00000  -0.00454  -0.00450  -1.07512
    D3        1.06667   0.00041   0.00000   0.00353   0.00349   1.07016
    D4       -3.13643  -0.00005   0.00000  -0.00190  -0.00192  -3.13835
    D5        0.00448  -0.00002   0.00000  -0.00069  -0.00067   0.00381
    D6       -3.14156   0.00009   0.00000   0.00350   0.00350  -3.13806
    D7        0.00185   0.00001   0.00000   0.00055   0.00054   0.00240
    D8        0.00067   0.00007   0.00000   0.00235   0.00232   0.00299
    D9       -3.13909  -0.00001   0.00000  -0.00060  -0.00064  -3.13974
   D10        3.14134  -0.00008   0.00000  -0.00297  -0.00297   3.13837
   D11       -0.00191  -0.00002   0.00000  -0.00097  -0.00097  -0.00288
   D12       -0.00095  -0.00005   0.00000  -0.00172  -0.00168  -0.00264
   D13        3.13898   0.00001   0.00000   0.00028   0.00032   3.13930
   D14        0.00104  -0.00005   0.00000  -0.00184  -0.00191  -0.00087
   D15       -3.13731   0.00003   0.00000   0.00113   0.00108  -3.13623
   D16        3.14080   0.00003   0.00000   0.00112   0.00109  -3.14130
   D17        0.00244   0.00011   0.00000   0.00409   0.00408   0.00652
   D18        3.13753   0.00082   0.00000   0.03041   0.03021  -3.11544
   D19       -0.00251   0.00004   0.00000   0.00076   0.00093  -0.00159
   D20       -0.00733   0.00074   0.00000   0.02744   0.02723   0.01990
   D21        3.13581  -0.00004   0.00000  -0.00221  -0.00206   3.13375
   D22       -0.21519  -0.00212   0.00000  -0.07035  -0.07044  -0.28562
   D23       -2.90691   0.00126   0.00000   0.03678   0.03613  -2.87078
   D24        2.92487  -0.00136   0.00000  -0.04105  -0.04039   2.88448
   D25        0.23316   0.00202   0.00000   0.06608   0.06617   0.29933
   D26        0.00223  -0.00002   0.00000  -0.00014  -0.00030   0.00194
   D27       -3.13563   0.00005   0.00000   0.00255   0.00242  -3.13322
   D28       -3.13781  -0.00080   0.00000  -0.02980  -0.02962   3.11575
   D29        0.00751  -0.00073   0.00000  -0.02710  -0.02691  -0.01940
   D30       -0.00048   0.00001   0.00000   0.00058   0.00065   0.00016
   D31       -3.14046  -0.00004   0.00000  -0.00134  -0.00130   3.14142
   D32        3.13741  -0.00006   0.00000  -0.00211  -0.00207   3.13534
   D33       -0.00257  -0.00011   0.00000  -0.00403  -0.00402  -0.00659
         Item               Value     Threshold  Converged?
 Maximum Force            0.012952     0.000450     NO 
 RMS     Force            0.004138     0.000300     NO 
 Maximum Displacement     0.124131     0.001800     NO 
 RMS     Displacement     0.034927     0.001200     NO 
 Predicted change in Energy=-2.678931D-03
 GradGradGradGradGradGradGradGradGradGradGradGradGradGradGradGradGradGrad

                          Input orientation:                          
 ---------------------------------------------------------------------
 Center     Atomic      Atomic             Coordinates (Angstroms)
 Number     Number       Type             X           Y           Z
 ---------------------------------------------------------------------
      1          6           0        3.078379    0.304131    0.620657
      2          8           0        2.306788   -0.057654   -0.503767
      3          6           0        0.945525   -0.073405   -0.329810
      4          6           0        0.184718   -0.435591   -1.442774
      5          6           0       -1.204849   -0.476915   -1.366775
      6          6           0       -1.869840   -0.156864   -0.171204
      7          7           0       -3.260776   -0.228066   -0.085410
      8          6           0       -1.095648    0.202805    0.941780
      9          6           0        0.298722    0.245017    0.866594
     10          1           0        4.117616    0.256619    0.290754
     11          1           0        2.855921    1.325019    0.959532
     12          1           0        2.935213   -0.392860    1.457420
     13          1           0        0.696697   -0.682757   -2.366791
     14          1           0       -1.778694   -0.765936   -2.242099
     15          1           0       -3.783188   -0.265348   -0.942746
     16          1           0       -3.708501    0.227270    0.690097
     17          1           0       -1.585566    0.447009    1.879576
     18          1           0        0.867485    0.527126    1.745066
 ---------------------------------------------------------------------
                    Distance matrix (angstroms):
                    1          2          3          4          5
     1  C    0.000000
     2  O    1.410876   0.000000
     3  C    2.365373   1.372423   0.000000
     4  C    3.630180   2.351116   1.395956   0.000000
     5  C    4.786017   3.640351   2.421203   1.392257   0.000000
     6  C    5.032339   4.191022   2.821064   2.432240   1.405004
     7  N    6.400520   5.585860   4.216233   3.709034   2.435294
     8  C    4.187588   3.705944   2.420666   2.780825   2.409019
     9  C    2.791141   2.449862   1.396828   2.410270   2.787445
    10  H    1.091378   2.002281   3.249027   4.353384   5.622642
    11  H    1.098424   2.086763   2.695850   4.000768   5.014830
    12  H    1.098393   2.086513   2.693529   3.997270   5.012310
    13  H    3.946037   2.540473   2.140682   1.084906   2.158305
    14  H    5.738604   4.496067   3.399679   2.145469   1.085829
    15  H    7.060428   6.109308   4.772133   4.002910   2.621525
    16  H    6.787671   6.139234   4.773948   4.488394   3.315852
    17  H    4.832978   4.591888   3.399800   3.866639   3.396671
    18  H    2.490397   2.733279   2.161443   3.399311   3.871204
                    6          7          8          9         10
     6  C    0.000000
     7  N    1.395397   0.000000
     8  C    1.402665   2.434861   0.000000
     9  C    2.437457   3.714855   1.397034   0.000000
    10  H    6.019469   7.403856   5.254032   3.862081   0.000000
    11  H    5.080095   6.396715   4.107868   2.777464   1.783428
    12  H    5.079040   6.387312   4.107133   2.776157   1.783539
    13  H    3.418228   4.590537   3.865665   3.387318   4.432568
    14  H    2.160529   2.671550   3.397366   3.873197   6.498263
    15  H    2.065901   1.004654   3.315641   4.494016   8.013530
    16  H    2.066415   1.004590   2.625061   4.011148   7.836354
    17  H    2.156657   2.668937   1.085871   2.148832   5.923419
    18  H    3.410701   4.578591   2.145774   1.083877   3.570931
                   11         12         13         14         15
    11  H    0.000000
    12  H    1.790332   0.000000
    13  H    4.444979   4.440674   0.000000
    14  H    6.008510   6.003877   2.479925   0.000000
    15  H    7.087009   7.135402   4.719269   2.440677   0.000000
    16  H    6.661028   6.716568   5.438611   3.648067   1.707170
    17  H    4.619978   4.617471   4.951437   4.300783   3.647258
    18  H    2.282011   2.281362   4.289563   4.956991   5.429651
                   16         17         18
    16  H    0.000000
    17  H    2.443358   0.000000
    18  H    4.705584   2.458042   0.000000
 Stoichiometry    C7H9NO
 Framework group  C1[X(C7H9NO)]
 Deg. of freedom    48
 Full point group                 C1      NOp   1
 Largest Abelian subgroup         C1      NOp   1
 Largest concise Abelian subgroup C1      NOp   1
                         Standard orientation:                         
 ---------------------------------------------------------------------
 Center     Atomic      Atomic             Coordinates (Angstroms)
 Number     Number       Type             X           Y           Z
 ---------------------------------------------------------------------
      1          6           0        3.172814   -0.512237    0.005268
      2          8           0        2.288913    0.587439    0.007184
      3          6           0        0.948565    0.292547   -0.000021
      4          6           0        0.076301    1.382430   -0.002165
      5          6           0       -1.301955    1.185496   -0.005129
      6          6           0       -1.843485   -0.110952   -0.007073
      7          7           0       -3.224312   -0.309123   -0.041380
      8          6           0       -0.958079   -1.198851   -0.007906
      9          6           0        0.425080   -1.002471   -0.004520
     10          1           0        4.175893   -0.082210    0.009174
     11          1           0        3.048259   -1.140185    0.897850
     12          1           0        3.052136   -1.133508   -0.892465
     13          1           0        0.492884    2.384166   -0.000398
     14          1           0       -1.963879    2.046214   -0.011837
     15          1           0       -3.816644    0.469822    0.186032
     16          1           0       -3.575158   -1.220155    0.195536
     17          1           0       -1.351796   -2.210787   -0.017313
     18          1           0        1.081742   -1.864784   -0.005113
 ---------------------------------------------------------------------
 Rotational constants (GHZ):           4.8341129           0.9944392           0.8294066
 Standard basis: 6-31G(d,p) (6D, 7F)
 There are   180 symmetry adapted cartesian basis functions of A   symmetry.
 There are   180 symmetry adapted basis functions of A   symmetry.
   180 basis functions,   315 primitive gaussians,   180 cartesian basis functions
    33 alpha electrons       33 beta electrons
       nuclear repulsion energy       424.2906405831 Hartrees.
 NAtoms=   18 NActive=   18 NUniq=   18 SFac= 1.00D+00 NAtFMM=   60 NAOKFM=F Big=F
 Integral buffers will be    131072 words long.
 Raffenetti 2 integral format.
 Two-electron integral symmetry is turned on.
 Nuclear repulsion after empirical dispersion term =      424.2610212053 Hartrees.
 One-electron integrals computed using PRISM.
 NBasis=   180 RedAO= T EigKep=  4.17D-04  NBF=   180
 NBsUse=   180 1.00D-06 EigRej= -1.00D+00 NBFU=   180
 Initial guess from the checkpoint file:  "an3_conf-1.chk"
 B after Tr=     0.000000   -0.000000   -0.000000
         Rot=    1.000000   -0.000007    0.000032    0.000968 Ang=  -0.11 deg.
 ExpMin= 1.61D-01 ExpMax= 5.48D+03 ExpMxC= 8.25D+02 IAcc=3 IRadAn=         5 AccDes= 0.00D+00
 Harris functional with IExCor=  402 and IRadAn=       5 diagonalized for initial guess.
 HarFok:  IExCor=  402 AccDes= 0.00D+00 IRadAn=         5 IDoV= 1 UseB2=F ITyADJ=14
 ICtDFT=  3500011 ScaDFX=  1.000000  1.000000  1.000000  1.000000
 FoFCou: FMM=F IPFlag=           0 FMFlag=      100000 FMFlg1=           0
         NFxFlg=           0 DoJE=T BraDBF=F KetDBF=T FulRan=T
         wScrn=  0.000000 ICntrl=       500 IOpCl=  0 I1Cent=   200000004 NGrid=           0
         NMat0=    1 NMatS0=      1 NMatT0=    0 NMatD0=    1 NMtDS0=    0 NMtDT0=    0
 Petite list used in FoFCou.
 Requested convergence on RMS density matrix=1.00D-08 within 128 cycles.
 Requested convergence on MAX density matrix=1.00D-06.
 Requested convergence on             energy=1.00D-06.
 No special actions if energy rises.
 Integral accuracy reduced to 1.0D-05 until final iterations.
 Initial convergence to 1.0D-05 achieved.  Increase integral accuracy.
 SCF Done:  E(RB3LYP) =  -402.166909579     A.U. after   12 cycles
            NFock= 12  Conv=0.38D-08     -V/T= 2.0095
 Calling FoFJK, ICntrl=      2127 FMM=F ISym2X=0 I1Cent= 0 IOpClX= 0 NMat=1 NMatS=1 NMatT=0.
 ***** Axes restored to original set *****
 -------------------------------------------------------------------
 Center     Atomic                   Forces (Hartrees/Bohr)
 Number     Number              X              Y              Z
 -------------------------------------------------------------------
      1        6           0.005082539   -0.000214772   -0.001443412
      2        8          -0.001866941   -0.000036835    0.000242453
      3        6           0.000330242    0.000254118    0.000879365
      4        6          -0.004961349   -0.000716149   -0.001291676
      5        6           0.004484969    0.000016655    0.000008508
      6        6          -0.003912206    0.002271108    0.001722109
      7        7           0.006394719   -0.006995049    0.001498052
      8        6           0.001046801   -0.000670535   -0.002230514
      9        6          -0.001568141   -0.000128225    0.000301233
     10        1           0.000563955    0.000381392    0.001228132
     11        1          -0.000209766   -0.000234071    0.000362143
     12        1          -0.000208171    0.000388676    0.000185573
     13        1           0.000073435    0.000087330    0.000132148
     14        1          -0.000590738    0.000062904   -0.000391058
     15        1          -0.001482428    0.002648550   -0.000879757
     16        1          -0.001461799    0.002652496   -0.000511564
     17        1          -0.000323153    0.000311949    0.000411034
     18        1          -0.001391969   -0.000079544   -0.000222767
 -------------------------------------------------------------------
 Cartesian Forces:  Max     0.006995049 RMS     0.002057960

 GradGradGradGradGradGradGradGradGradGradGradGradGradGradGradGradGradGrad
 Berny optimization.
 Using GEDIIS/GDIIS optimizer.
 FormGI is forming the generalized inverse of G from B-inverse, IUseBI=4.
 Internal  Forces:  Max     0.007916543 RMS     0.001467397
 Search for a local minimum.
 Step number   2 out of a maximum of   89
 All quantities printed in internal units (Hartrees-Bohrs-Radians)
 Mixed Optimization -- RFO/linear search
 Update second derivatives using D2CorX and points    1    2
 DE= -2.51D-03 DEPred=-2.68D-03 R= 9.38D-01
 TightC=F SS=  1.41D+00  RLast= 1.89D-01 DXNew= 5.0454D-01 5.6609D-01
 Trust test= 9.38D-01 RLast= 1.89D-01 DXMaxT set to 5.05D-01
 ITU=  1  0
 Use linear search instead of GDIIS.
     Eigenvalues ---    0.01386   0.01841   0.01956   0.02072   0.02077
     Eigenvalues ---    0.02101   0.02116   0.02172   0.02178   0.02188
     Eigenvalues ---    0.02193   0.02197   0.02566   0.09954   0.10640
     Eigenvalues ---    0.15407   0.16000   0.16000   0.16000   0.16000
     Eigenvalues ---    0.16000   0.16000   0.16000   0.16653   0.21942
     Eigenvalues ---    0.22180   0.23446   0.24939   0.24990   0.29219
     Eigenvalues ---    0.34685   0.34722   0.34807   0.35936   0.36105
     Eigenvalues ---    0.36151   0.36456   0.41989   0.42326   0.43796
     Eigenvalues ---    0.45916   0.45940   0.46270   0.46410   0.46931
     Eigenvalues ---    0.47203   0.48411   0.54041
 RFO step:  Lambda=-9.57903130D-04 EMin= 1.38569229D-02
 Quartic linear search produced a step of -0.04086.
 Iteration  1 RMS(Cart)=  0.02256999 RMS(Int)=  0.00071482
 Iteration  2 RMS(Cart)=  0.00057523 RMS(Int)=  0.00051081
 Iteration  3 RMS(Cart)=  0.00000067 RMS(Int)=  0.00051081
 Variable       Old X    -DE/DX   Delta X   Delta X   Delta X     New X
                                 (Linear)    (Quad)   (Total)
    R1        2.66617   0.00321   0.00095   0.00223   0.00317   2.66934
    R2        2.06241   0.00015  -0.00010   0.00096   0.00086   2.06326
    R3        2.07572  -0.00006  -0.00056   0.00282   0.00226   2.07798
    R4        2.07566  -0.00008  -0.00057   0.00280   0.00223   2.07790
    R5        2.59350   0.00326   0.00059   0.00320   0.00379   2.59729
    R6        2.63798   0.00228  -0.00016   0.00565   0.00549   2.64347
    R7        2.63962   0.00100   0.00052  -0.00044   0.00008   2.63971
    R8        2.63098  -0.00323   0.00009  -0.00711  -0.00702   2.62397
    R9        2.05018  -0.00010  -0.00044   0.00208   0.00164   2.05181
   R10        2.65507   0.00033  -0.00114   0.00651   0.00537   2.66044
   R11        2.05192   0.00061  -0.00055   0.00454   0.00399   2.05591
   R12        2.63692  -0.00335  -0.00052  -0.00396  -0.00447   2.63244
   R13        2.65065  -0.00171  -0.00094   0.00138   0.00044   2.65109
   R14        1.89852   0.00142   0.00028   0.00143   0.00171   1.90023
   R15        1.89840   0.00146   0.00027   0.00154   0.00182   1.90022
   R16        2.64001  -0.00095  -0.00023  -0.00066  -0.00089   2.63912
   R17        2.05200   0.00057  -0.00055   0.00444   0.00389   2.05589
   R18        2.04823  -0.00093  -0.00049   0.00016  -0.00032   2.04791
    A1        1.84283   0.00238   0.00261   0.00179   0.00440   1.84723
    A2        1.95351  -0.00032  -0.00028  -0.00132  -0.00161   1.95190
    A3        1.95318  -0.00027  -0.00027  -0.00109  -0.00137   1.95182
    A4        1.90347  -0.00048  -0.00107   0.00448   0.00341   1.90687
    A5        1.90368  -0.00050  -0.00108   0.00445   0.00336   1.90704
    A6        1.90534  -0.00074   0.00006  -0.00753  -0.00749   1.89786
    A7        2.03126   0.00792   0.00207   0.01903   0.02111   2.05237
    A8        2.02918  -0.00172  -0.00004  -0.00657  -0.00661   2.02256
    A9        2.17151   0.00354   0.00004   0.01299   0.01302   2.18454
   A10        2.08249  -0.00182   0.00001  -0.00642  -0.00641   2.07608
   A11        2.10381   0.00075   0.00003   0.00318   0.00321   2.10702
   A12        2.07254  -0.00052   0.00039  -0.00460  -0.00420   2.06834
   A13        2.10683  -0.00024  -0.00042   0.00142   0.00100   2.10783
   A14        2.10840   0.00053  -0.00089   0.00631   0.00542   2.11382
   A15        2.08445   0.00005   0.00026  -0.00033  -0.00007   2.08438
   A16        2.09032  -0.00058   0.00063  -0.00598  -0.00535   2.08497
   A17        2.10887  -0.00003  -0.00083   0.00470   0.00386   2.11273
   A18        2.06278  -0.00049   0.00176  -0.01224  -0.01049   2.05229
   A19        2.11119   0.00052  -0.00092   0.00725   0.00631   2.11751
   A20        2.05755  -0.00004  -0.00033  -0.01377  -0.01634   2.04121
   A21        2.05849  -0.00008  -0.00025  -0.01440  -0.01689   2.04160
   A22        2.03067  -0.00162   0.00237  -0.04017  -0.04066   1.99002
   A23        2.11290   0.00081  -0.00096   0.00815   0.00719   2.12009
   A24        2.08739  -0.00047   0.00060  -0.00511  -0.00451   2.08288
   A25        2.08289  -0.00034   0.00036  -0.00303  -0.00268   2.08021
   A26        2.09599   0.00022   0.00005   0.00103   0.00109   2.09707
   A27        2.10662   0.00097   0.00042   0.00354   0.00395   2.11057
   A28        2.08058  -0.00120  -0.00047  -0.00457  -0.00504   2.07554
    D1        3.13915   0.00001   0.00002   0.00042   0.00044   3.13960
    D2       -1.07512   0.00071   0.00018   0.00620   0.00637  -1.06875
    D3        1.07016  -0.00069  -0.00014  -0.00543  -0.00556   1.06460
    D4       -3.13835  -0.00000   0.00008  -0.00041  -0.00034  -3.13869
    D5        0.00381   0.00003   0.00003   0.00115   0.00119   0.00500
    D6       -3.13806  -0.00002  -0.00014   0.00013  -0.00002  -3.13809
    D7        0.00240  -0.00003  -0.00002  -0.00116  -0.00119   0.00121
    D8        0.00299  -0.00004  -0.00009  -0.00135  -0.00144   0.00155
    D9       -3.13974  -0.00006   0.00003  -0.00263  -0.00261   3.14084
   D10        3.13837   0.00001   0.00012  -0.00037  -0.00026   3.13812
   D11       -0.00288   0.00003   0.00004   0.00119   0.00123  -0.00165
   D12       -0.00264   0.00004   0.00007   0.00124   0.00132  -0.00132
   D13        3.13930   0.00007  -0.00001   0.00280   0.00280  -3.14109
   D14       -0.00087  -0.00002   0.00008  -0.00094  -0.00088  -0.00175
   D15       -3.13623  -0.00003  -0.00004  -0.00100  -0.00106  -3.13728
   D16       -3.14130   0.00000  -0.00004   0.00037   0.00032  -3.14099
   D17        0.00652  -0.00002  -0.00017   0.00031   0.00014   0.00666
   D18       -3.11544   0.00019  -0.00123   0.01514   0.01390  -3.10154
   D19       -0.00159   0.00008  -0.00004   0.00327   0.00324   0.00165
   D20        0.01990   0.00021  -0.00111   0.01522   0.01409   0.03399
   D21        3.13375   0.00010   0.00008   0.00335   0.00343   3.13719
   D22       -0.28562  -0.00199   0.00288  -0.07899  -0.07534  -0.36097
   D23       -2.87078   0.00175  -0.00148   0.06057   0.05828  -2.81250
   D24        2.88448  -0.00185   0.00165  -0.06648  -0.06402   2.82047
   D25        0.29933   0.00189  -0.00270   0.07309   0.06961   0.36894
   D26        0.00194  -0.00008   0.00001  -0.00338  -0.00337  -0.00144
   D27       -3.13322  -0.00009  -0.00010  -0.00331  -0.00340  -3.13662
   D28        3.11575  -0.00021   0.00121  -0.01532  -0.01410   3.10165
   D29       -0.01940  -0.00022   0.00110  -0.01524  -0.01413  -0.03354
   D30        0.00016   0.00003  -0.00003   0.00116   0.00114   0.00131
   D31        3.14142   0.00000   0.00005  -0.00037  -0.00031   3.14111
   D32        3.13534   0.00004   0.00008   0.00108   0.00117   3.13650
   D33       -0.00659   0.00001   0.00016  -0.00046  -0.00029  -0.00688
         Item               Value     Threshold  Converged?
 Maximum Force            0.007917     0.000450     NO 
 RMS     Force            0.001467     0.000300     NO 
 Maximum Displacement     0.075014     0.001800     NO 
 RMS     Displacement     0.022553     0.001200     NO 
 Predicted change in Energy=-4.676333D-04
 GradGradGradGradGradGradGradGradGradGradGradGradGradGradGradGradGradGrad

                          Input orientation:                          
 ---------------------------------------------------------------------
 Center     Atomic      Atomic             Coordinates (Angstroms)
 Number     Number       Type             X           Y           Z
 ---------------------------------------------------------------------
      1          6           0        3.105611    0.304892    0.610080
      2          8           0        2.302928   -0.053690   -0.495557
      3          6           0        0.940608   -0.070680   -0.314328
      4          6           0        0.180479   -0.434083   -1.431002
      5          6           0       -1.205538   -0.480293   -1.361157
      6          6           0       -1.884716   -0.166113   -0.168665
      7          7           0       -3.272230   -0.258567   -0.086288
      8          6           0       -1.110609    0.196646    0.943667
      9          6           0        0.283558    0.244559    0.877377
     10          1           0        4.137841    0.253827    0.257957
     11          1           0        2.890988    1.325945    0.957282
     12          1           0        2.974909   -0.389498    1.452578
     13          1           0        0.698555   -0.676973   -2.353773
     14          1           0       -1.775732   -0.769611   -2.241377
     15          1           0       -3.782512   -0.239554   -0.952543
     16          1           0       -3.719005    0.241530    0.662996
     17          1           0       -1.605875    0.440623    1.881099
     18          1           0        0.840741    0.530640    1.761754
 ---------------------------------------------------------------------
                    Distance matrix (angstroms):
                    1          2          3          4          5
     1  C    0.000000
     2  O    1.412556   0.000000
     3  C    2.383867   1.374427   0.000000
     4  C    3.642595   2.350435   1.398863   0.000000
     5  C    4.805028   3.638762   2.422721   1.388545   0.000000
     6  C    5.072638   4.201887   2.830685   2.435228   1.407845
     7  N    6.440440   5.593913   4.223187   3.709483   2.438374
     8  C    4.230781   3.712986   2.421054   2.775568   2.404053
     9  C    2.835326   2.460032   1.396872   2.408276   2.784574
    10  H    1.091832   2.007301   3.264218   4.357352   5.631356
    11  H    1.099619   2.088049   2.715057   4.018515   5.041744
    12  H    1.099575   2.087955   2.713297   4.015702   5.039988
    13  H    3.942385   2.532876   2.141382   1.085773   2.156279
    14  H    5.754378   4.493984   3.403017   2.143839   1.087940
    15  H    7.084099   6.105404   4.769035   3.996506   2.620251
    16  H    6.825116   6.139469   4.771229   4.477417   3.306923
    17  H    4.881805   4.601259   3.400869   3.863443   3.394198
    18  H    2.550873   2.752251   2.163718   3.400048   3.868050
                    6          7          8          9         10
     6  C    0.000000
     7  N    1.393029   0.000000
     8  C    1.402896   2.437341   0.000000
     9  C    2.442185   3.718254   1.396564   0.000000
    10  H    6.052235   7.435739   5.293364   3.903751   0.000000
    11  H    5.128483   6.448641   4.157917   2.823911   1.786936
    12  H    5.127795   6.435215   4.158606   2.824226   1.787009
    13  H    3.421836   4.591697   3.861268   3.385524   4.417715
    14  H    2.161532   2.673028   3.394193   3.872446   6.501111
    15  H    2.054626   1.005558   3.305291   4.485075   8.027499
    16  H    2.054860   1.005551   2.623837   4.008301   7.867290
    17  H    2.155786   2.671370   1.087931   2.148454   5.971580
    18  H    3.411758   4.577623   2.142098   1.083705   3.634406
                   11         12         13         14         15
    11  H    0.000000
    12  H    1.787486   0.000000
    13  H    4.447643   4.444405   0.000000
    14  H    6.033328   6.029791   2.478570   0.000000
    15  H    7.115744   7.174247   4.715373   2.443199   0.000000
    16  H    6.704817   6.769794   5.427649   3.637870   1.686843
    17  H    4.675362   4.675073   4.949097   4.299806   3.637295
    18  H    2.341623   2.344550   4.291399   4.955970   5.416186
                   16         17         18
    16  H    0.000000
    17  H    2.447189   0.000000
    18  H    4.699163   2.451178   0.000000
 Stoichiometry    C7H9NO
 Framework group  C1[X(C7H9NO)]
 Deg. of freedom    48
 Full point group                 C1      NOp   1
 Largest Abelian subgroup         C1      NOp   1
 Largest concise Abelian subgroup C1      NOp   1
                         Standard orientation:                         
 ---------------------------------------------------------------------
 Center     Atomic      Atomic             Coordinates (Angstroms)
 Number     Number       Type             X           Y           Z
 ---------------------------------------------------------------------
      1          6           0        3.202484   -0.497235    0.004278
      2          8           0        2.289576    0.580684    0.006429
      3          6           0        0.948627    0.279253   -0.000162
      4          6           0        0.076796    1.373203   -0.001428
      5          6           0       -1.298801    1.184034   -0.003723
      6          6           0       -1.855275   -0.109162   -0.006949
      7          7           0       -3.234573   -0.297726   -0.057034
      8          6           0       -0.969943   -1.197419   -0.005704
      9          6           0        0.414164   -1.011325   -0.003135
     10          1           0        4.196610   -0.045797    0.008250
     11          1           0        3.088629   -1.131412    0.895355
     12          1           0        3.092441   -1.124481   -0.892113
     13          1           0        0.499980    2.373108    0.001620
     14          1           0       -1.957411    2.049955   -0.008756
     15          1           0       -3.810941    0.475764    0.226975
     16          1           0       -3.582987   -1.195599    0.232041
     17          1           0       -1.369183   -2.209422   -0.012838
     18          1           0        1.059950   -1.881599   -0.001795
 ---------------------------------------------------------------------
 Rotational constants (GHZ):           4.8667718           0.9856169           0.8243252
 Standard basis: 6-31G(d,p) (6D, 7F)
 There are   180 symmetry adapted cartesian basis functions of A   symmetry.
 There are   180 symmetry adapted basis functions of A   symmetry.
   180 basis functions,   315 primitive gaussians,   180 cartesian basis functions
    33 alpha electrons       33 beta electrons
       nuclear repulsion energy       423.6312947275 Hartrees.
 NAtoms=   18 NActive=   18 NUniq=   18 SFac= 1.00D+00 NAtFMM=   60 NAOKFM=F Big=F
 Integral buffers will be    131072 words long.
 Raffenetti 2 integral format.
 Two-electron integral symmetry is turned on.
 Nuclear repulsion after empirical dispersion term =      423.6017534213 Hartrees.
 One-electron integrals computed using PRISM.
 NBasis=   180 RedAO= T EigKep=  4.15D-04  NBF=   180
 NBsUse=   180 1.00D-06 EigRej= -1.00D+00 NBFU=   180
 Initial guess from the checkpoint file:  "an3_conf-1.chk"
 B after Tr=     0.000000    0.000000   -0.000000
         Rot=    1.000000    0.000046   -0.000020    0.000425 Ang=   0.05 deg.
 ExpMin= 1.61D-01 ExpMax= 5.48D+03 ExpMxC= 8.25D+02 IAcc=3 IRadAn=         5 AccDes= 0.00D+00
 Harris functional with IExCor=  402 and IRadAn=       5 diagonalized for initial guess.
 HarFok:  IExCor=  402 AccDes= 0.00D+00 IRadAn=         5 IDoV= 1 UseB2=F ITyADJ=14
 ICtDFT=  3500011 ScaDFX=  1.000000  1.000000  1.000000  1.000000
 FoFCou: FMM=F IPFlag=           0 FMFlag=      100000 FMFlg1=           0
         NFxFlg=           0 DoJE=T BraDBF=F KetDBF=T FulRan=T
         wScrn=  0.000000 ICntrl=       500 IOpCl=  0 I1Cent=   200000004 NGrid=           0
         NMat0=    1 NMatS0=      1 NMatT0=    0 NMatD0=    1 NMtDS0=    0 NMtDT0=    0
 Petite list used in FoFCou.
 Requested convergence on RMS density matrix=1.00D-08 within 128 cycles.
 Requested convergence on MAX density matrix=1.00D-06.
 Requested convergence on             energy=1.00D-06.
 No special actions if energy rises.
 Integral accuracy reduced to 1.0D-05 until final iterations.
 Initial convergence to 1.0D-05 achieved.  Increase integral accuracy.
 SCF Done:  E(RB3LYP) =  -402.167572508     A.U. after   11 cycles
            NFock= 11  Conv=0.46D-08     -V/T= 2.0096
 Calling FoFJK, ICntrl=      2127 FMM=F ISym2X=0 I1Cent= 0 IOpClX= 0 NMat=1 NMatS=1 NMatT=0.
 ***** Axes restored to original set *****
 -------------------------------------------------------------------
 Center     Atomic                   Forces (Hartrees/Bohr)
 Number     Number              X              Y              Z
 -------------------------------------------------------------------
      1        6           0.000458300    0.000128136    0.000424664
      2        8          -0.002131018   -0.000224308   -0.000297303
      3        6           0.000561907    0.000006100   -0.000054254
      4        6          -0.000823480   -0.000237028   -0.000753110
      5        6          -0.000901876   -0.000282317   -0.000191427
      6        6           0.004169571    0.001905162    0.000321454
      7        7           0.001202944   -0.006026199    0.001604213
      8        6          -0.002142462   -0.000317649   -0.000526772
      9        6           0.000833668    0.000004453   -0.000035042
     10        1          -0.000125435    0.000284634    0.001004846
     11        1           0.000203373   -0.000578723   -0.000166846
     12        1           0.000144966    0.000425693   -0.000461903
     13        1          -0.000370198    0.000164302    0.000522387
     14        1           0.000283833    0.000237680    0.000498019
     15        1          -0.000814473    0.001902872   -0.002109242
     16        1          -0.000727035    0.002658370    0.000835596
     17        1           0.000417716   -0.000030101   -0.000492818
     18        1          -0.000240301   -0.000021077   -0.000122463
 -------------------------------------------------------------------
 Cartesian Forces:  Max     0.006026199 RMS     0.001326524

 GradGradGradGradGradGradGradGradGradGradGradGradGradGradGradGradGradGrad
 Berny optimization.
 Using GEDIIS/GDIIS optimizer.
 FormGI is forming the generalized inverse of G from B-inverse, IUseBI=4.
 Internal  Forces:  Max     0.002267971 RMS     0.000780675
 Search for a local minimum.
 Step number   3 out of a maximum of   89
 All quantities printed in internal units (Hartrees-Bohrs-Radians)
 Mixed Optimization -- En-DIIS/RFO-DIIS
 Update second derivatives using D2CorX and points    1    2    3
 DE= -6.63D-04 DEPred=-4.68D-04 R= 1.42D+00
 TightC=F SS=  1.41D+00  RLast= 1.50D-01 DXNew= 8.4853D-01 4.5038D-01
 Trust test= 1.42D+00 RLast= 1.50D-01 DXMaxT set to 5.05D-01
 ITU=  1  1  0
 Use linear search instead of GDIIS.
     Eigenvalues ---    0.01039   0.01386   0.01843   0.01956   0.02072
     Eigenvalues ---    0.02092   0.02116   0.02127   0.02172   0.02179
     Eigenvalues ---    0.02191   0.02197   0.02250   0.09967   0.10607
     Eigenvalues ---    0.15973   0.16000   0.16000   0.16000   0.16000
     Eigenvalues ---    0.16000   0.16000   0.16144   0.17177   0.22002
     Eigenvalues ---    0.23148   0.24664   0.24965   0.25647   0.33930
     Eigenvalues ---    0.34685   0.34784   0.35141   0.36097   0.36151
     Eigenvalues ---    0.36437   0.37439   0.41963   0.42427   0.43783
     Eigenvalues ---    0.45355   0.45973   0.46271   0.46692   0.47072
     Eigenvalues ---    0.48117   0.50226   0.60519
 RFO step:  Lambda=-6.06823626D-04 EMin= 1.03937094D-02
 Quartic linear search produced a step of  0.49461.
 Iteration  1 RMS(Cart)=  0.02116267 RMS(Int)=  0.00241168
 Iteration  2 RMS(Cart)=  0.00161285 RMS(Int)=  0.00186863
 Iteration  3 RMS(Cart)=  0.00000862 RMS(Int)=  0.00186862
 Iteration  4 RMS(Cart)=  0.00000011 RMS(Int)=  0.00186862
 Variable       Old X    -DE/DX   Delta X   Delta X   Delta X     New X
                                 (Linear)    (Quad)   (Total)
    R1        2.66934   0.00108   0.00157   0.00081   0.00238   2.67173
    R2        2.06326  -0.00046   0.00042  -0.00130  -0.00087   2.06239
    R3        2.07798  -0.00063   0.00112   0.00005   0.00116   2.07914
    R4        2.07790  -0.00064   0.00111   0.00001   0.00112   2.07901
    R5        2.59729  -0.00150   0.00187  -0.00580  -0.00393   2.59336
    R6        2.64347   0.00041   0.00272   0.00334   0.00605   2.64952
    R7        2.63971  -0.00055   0.00004  -0.00357  -0.00353   2.63617
    R8        2.62397  -0.00103  -0.00347  -0.00511  -0.00858   2.61539
    R9        2.05181  -0.00066   0.00081  -0.00058   0.00023   2.05205
   R10        2.66044  -0.00117   0.00266   0.00185   0.00451   2.66496
   R11        2.05591  -0.00061   0.00197   0.00056   0.00254   2.05845
   R12        2.63244   0.00045  -0.00221   0.00232   0.00011   2.63255
   R13        2.65109  -0.00218   0.00022  -0.00319  -0.00297   2.64812
   R14        1.90023   0.00227   0.00085   0.00638   0.00723   1.90746
   R15        1.90022   0.00227   0.00090   0.00644   0.00734   1.90755
   R16        2.63912  -0.00046  -0.00044  -0.00077  -0.00121   2.63791
   R17        2.05589  -0.00062   0.00193   0.00052   0.00245   2.05834
   R18        2.04791  -0.00023  -0.00016   0.00089   0.00073   2.04863
    A1        1.84723   0.00146   0.00218   0.00479   0.00696   1.85418
    A2        1.95190  -0.00015  -0.00080  -0.00105  -0.00187   1.95004
    A3        1.95182  -0.00016  -0.00068  -0.00113  -0.00182   1.94999
    A4        1.90687  -0.00049   0.00168   0.00114   0.00282   1.90969
    A5        1.90704  -0.00049   0.00166   0.00124   0.00289   1.90993
    A6        1.89786  -0.00016  -0.00370  -0.00461  -0.00834   1.88951
    A7        2.05237  -0.00154   0.01044  -0.01206  -0.00162   2.05074
    A8        2.02256   0.00098  -0.00327   0.00386   0.00059   2.02315
    A9        2.18454  -0.00136   0.00644  -0.00554   0.00090   2.18544
   A10        2.07608   0.00038  -0.00317   0.00168  -0.00150   2.07458
   A11        2.10702  -0.00048   0.00159  -0.00171  -0.00013   2.10689
   A12        2.06834   0.00030  -0.00208  -0.00069  -0.00277   2.06557
   A13        2.10783   0.00017   0.00049   0.00240   0.00290   2.11072
   A14        2.11382  -0.00058   0.00268   0.00084   0.00353   2.11734
   A15        2.08438   0.00033  -0.00003   0.00124   0.00121   2.08559
   A16        2.08497   0.00025  -0.00265  -0.00208  -0.00473   2.08024
   A17        2.11273  -0.00094   0.00191  -0.00118   0.00068   2.11341
   A18        2.05229   0.00155  -0.00519  -0.00074  -0.00594   2.04635
   A19        2.11751  -0.00061   0.00312   0.00164   0.00472   2.12223
   A20        2.04121  -0.00104  -0.00808  -0.03036  -0.04548   1.99573
   A21        2.04160  -0.00097  -0.00835  -0.03012  -0.04550   1.99610
   A22        1.99002  -0.00006  -0.02011  -0.04164  -0.07266   1.91736
   A23        2.12009  -0.00054   0.00356   0.00150   0.00507   2.12515
   A24        2.08288   0.00043  -0.00223   0.00003  -0.00221   2.08067
   A25        2.08021   0.00011  -0.00133  -0.00152  -0.00285   2.07735
   A26        2.09707  -0.00033   0.00054  -0.00157  -0.00103   2.09604
   A27        2.11057   0.00031   0.00196   0.00137   0.00333   2.11390
   A28        2.07554   0.00002  -0.00249   0.00020  -0.00230   2.07324
    D1        3.13960  -0.00000   0.00022  -0.00061  -0.00039   3.13921
    D2       -1.06875   0.00021   0.00315   0.00314   0.00628  -1.06246
    D3        1.06460  -0.00022  -0.00275  -0.00443  -0.00717   1.05743
    D4       -3.13869   0.00000  -0.00017  -0.00020  -0.00038  -3.13907
    D5        0.00500   0.00000   0.00059   0.00035   0.00095   0.00595
    D6       -3.13809  -0.00003  -0.00001  -0.00156  -0.00157  -3.13966
    D7        0.00121  -0.00002  -0.00059  -0.00180  -0.00240  -0.00119
    D8        0.00155  -0.00003  -0.00071  -0.00209  -0.00280  -0.00126
    D9        3.14084  -0.00003  -0.00129  -0.00233  -0.00363   3.13721
   D10        3.13812   0.00002  -0.00013   0.00088   0.00075   3.13887
   D11       -0.00165   0.00003   0.00061   0.00191   0.00252   0.00087
   D12       -0.00132   0.00002   0.00065   0.00145   0.00211   0.00079
   D13       -3.14109   0.00003   0.00139   0.00248   0.00388  -3.13721
   D14       -0.00175   0.00002  -0.00043   0.00066   0.00020  -0.00155
   D15       -3.13728  -0.00001  -0.00052  -0.00048  -0.00103  -3.13831
   D16       -3.14099   0.00001   0.00016   0.00092   0.00106  -3.13993
   D17        0.00666  -0.00001   0.00007  -0.00022  -0.00017   0.00650
   D18       -3.10154   0.00005   0.00687   0.00946   0.01629  -3.08525
   D19        0.00165   0.00001   0.00160   0.00138   0.00300   0.00465
   D20        0.03399   0.00008   0.00697   0.01061   0.01753   0.05153
   D21        3.13719   0.00003   0.00170   0.00254   0.00424   3.14143
   D22       -0.36097  -0.00153  -0.03727  -0.08900  -0.12250  -0.48347
   D23       -2.81250   0.00143   0.02883   0.07181   0.09680  -2.71570
   D24        2.82047  -0.00153  -0.03166  -0.08057  -0.10839   2.71208
   D25        0.36894   0.00143   0.03443   0.08024   0.11091   0.47985
   D26       -0.00144  -0.00002  -0.00167  -0.00202  -0.00370  -0.00514
   D27       -3.13662  -0.00003  -0.00168  -0.00271  -0.00440  -3.14102
   D28        3.10165  -0.00007  -0.00698  -0.01018  -0.01716   3.08449
   D29       -0.03354  -0.00008  -0.00699  -0.01087  -0.01786  -0.05139
   D30        0.00131   0.00000   0.00057   0.00062   0.00120   0.00251
   D31        3.14111  -0.00000  -0.00015  -0.00038  -0.00052   3.14059
   D32        3.13650   0.00002   0.00058   0.00132   0.00190   3.13840
   D33       -0.00688   0.00001  -0.00014   0.00032   0.00018  -0.00670
         Item               Value     Threshold  Converged?
 Maximum Force            0.002268     0.000450     NO 
 RMS     Force            0.000781     0.000300     NO 
 Maximum Displacement     0.107764     0.001800     NO 
 RMS     Displacement     0.021617     0.001200     NO 
 Predicted change in Energy=-3.803309D-04
 GradGradGradGradGradGradGradGradGradGradGradGradGradGradGradGradGradGrad

                          Input orientation:                          
 ---------------------------------------------------------------------
 Center     Atomic      Atomic             Coordinates (Angstroms)
 Number     Number       Type             X           Y           Z
 ---------------------------------------------------------------------
      1          6           0        3.101922    0.310388    0.607027
      2          8           0        2.298900   -0.050492   -0.499227
      3          6           0        0.939204   -0.073091   -0.314691
      4          6           0        0.175098   -0.438314   -1.432070
      5          6           0       -1.205868   -0.491411   -1.357388
      6          6           0       -1.887612   -0.183732   -0.161847
      7          7           0       -3.272719   -0.302832   -0.072497
      8          6           0       -1.109409    0.183107    0.944293
      9          6           0        0.283784    0.238358    0.876718
     10          1           0        4.135987    0.266108    0.260848
     11          1           0        2.877185    1.328419    0.958629
     12          1           0        2.968375   -0.383032    1.450651
     13          1           0        0.693674   -0.675012   -2.356313
     14          1           0       -1.779801   -0.780632   -2.236870
     15          1           0       -3.758149   -0.182528   -0.949275
     16          1           0       -3.695854    0.278225    0.636225
     17          1           0       -1.602984    0.426891    1.884169
     18          1           0        0.838268    0.529178    1.761718
 ---------------------------------------------------------------------
                    Distance matrix (angstroms):
                    1          2          3          4          5
     1  C    0.000000
     2  O    1.413816   0.000000
     3  C    2.382009   1.372347   0.000000
     4  C    3.644827   2.351836   1.402064   0.000000
     5  C    4.801964   3.635140   2.421476   1.384003   0.000000
[...]
   XY=   -30.6119   YY=   -45.3560   ZY=    -0.6518
   XZ=    -0.5430   YZ=    -0.6074   ZZ=   163.7486
   Eigenvalues:   -57.8132    33.5161   163.7533
      5  C    Isotropic =    50.2106   Anisotropy =   170.0307
   XX=     6.9898   YX=    43.7673   ZX=    -1.9208
   XY=    48.0450   YY=   -19.8271   ZY=     0.4211
   XZ=    -5.5677   YZ=    -0.1926   ZZ=   163.4692
   Eigenvalues:   -54.2681    41.3355   163.5644
      6  C    Isotropic =    22.9029   Anisotropy =   195.3125
   XX=   -84.0509   YX=   -16.1864   ZX=     1.1903
   XY=   -13.5636   YY=    -0.3510   ZY=     0.0650
   XZ=    -0.4071   YZ=    -0.1656   ZZ=   153.1106
   Eigenvalues:   -86.6164     2.2139   153.1112
      7  N    Isotropic =   192.9458   Anisotropy =    97.4943
   XX=   253.7503   YX=    12.3735   ZX=   -10.4696
   XY=    13.5232   YY=   165.0147   ZY=    -1.5309
   XZ=    40.4096   YZ=     6.0082   ZZ=   160.0724
   Eigenvalues:   157.7298   163.1656   257.9420
      8  C    Isotropic =    52.7973   Anisotropy =   164.5698
   XX=    28.4725   YX=   -33.9315   ZX=    -1.4928
   XY=   -38.8816   YY=   -32.4933   ZY=    -1.0174
   XZ=    -5.7295   YZ=    -0.3737   ZZ=   162.4128
   Eigenvalues:   -49.5155    45.3969   162.5105
      9  C    Isotropic =    58.6183   Anisotropy =   184.3149
   XX=    10.1128   YX=    50.3132   ZX=    -0.8919
   XY=    29.3860   YY=   -15.7476   ZY=    -0.0142
   XZ=    -0.9792   YZ=     0.4313   ZZ=   181.4898
   Eigenvalues:   -44.7146    39.0746   181.4949
     10  H    Isotropic =    28.0103   Anisotropy =     8.2465
   XX=    33.3795   YX=     0.1098   ZX=    -0.0097
   XY=    -1.9494   YY=    26.9207   ZY=     0.0008
   XZ=     0.0225   YZ=     0.0081   ZZ=    23.7307
   Eigenvalues:    23.7306    26.7923    33.5079
     11  H    Isotropic =    28.4235   Anisotropy =     7.9643
   XX=    28.1249   YX=    -3.4226   ZX=     2.3125
   XY=    -1.3464   YY=    29.5769   ZY=    -3.3065
   XZ=     2.4032   YZ=    -2.7518   ZZ=    27.5687
   Eigenvalues:    25.1744    26.3631    33.7330
     12  H    Isotropic =    28.4154   Anisotropy =     7.9719
   XX=    28.1085   YX=    -3.4128   ZX=    -2.4023
   XY=    -1.3443   YY=    29.5213   ZY=     3.3036
   XZ=    -2.4080   YZ=     2.7313   ZZ=    27.6163
   Eigenvalues:    25.1737    26.3424    33.7299
     13  H    Isotropic =    24.3708   Anisotropy =     6.8428
   XX=    28.0146   YX=    -2.4555   ZX=    -0.0633
   XY=    -1.9237   YY=    23.7100   ZY=    -0.0296
   XZ=    -0.0015   YZ=     0.0035   ZZ=    21.3879
   Eigenvalues:    21.3874    22.7924    28.9327
     14  H    Isotropic =    24.6347   Anisotropy =     6.8151
   XX=    27.1872   YX=     3.3352   ZX=    -0.0525
   XY=     2.4113   YY=    25.0310   ZY=     0.0123
   XZ=    -0.1106   YZ=     0.1100   ZZ=    21.6859
   Eigenvalues:    21.6789    23.0471    29.1781
     15  H    Isotropic =    28.9442   Anisotropy =    11.0550
   XX=    32.1751   YX=    -5.7754   ZX=    -2.9050
   XY=    -0.9525   YY=    31.3377   ZY=     1.7995
   XZ=    -4.1648   YZ=     1.9143   ZZ=    23.3198
   Eigenvalues:    22.0307    28.4876    36.3142
     16  H    Isotropic =    28.9090   Anisotropy =    10.8682
   XX=    30.3652   YX=     5.4688   ZX=    -2.1736
   XY=     0.5436   YY=    33.2254   ZY=    -2.3545
   XZ=    -3.3865   YZ=    -2.7540   ZZ=    23.1364
   Eigenvalues:    21.9765    28.5961    36.1545
     17  H    Isotropic =    24.6637   Anisotropy =     7.2085
   XX=    28.8482   YX=    -2.3527   ZX=    -0.0488
   XY=    -1.4410   YY=    23.6764   ZY=    -0.0264
   XZ=    -0.0109   YZ=    -0.1941   ZZ=    21.4665
   Eigenvalues:    21.4583    23.0635    29.4694
     18  H    Isotropic =    24.6973   Anisotropy =     8.3214
   XX=    27.9600   YX=     3.9518   ZX=    -0.0583
   XY=     3.0300   YY=    24.9114   ZY=     0.0097
   XZ=    -0.0213   YZ=     0.0341   ZZ=    21.2205
   Eigenvalues:    21.2193    22.6277    30.2449
 End of Minotr F.D. properties file   721 does not exist.
 End of Minotr F.D. properties file   722 does not exist.
 End of Minotr F.D. properties file   788 does not exist.

 **********************************************************************

            Population analysis using the SCF Density.

 **********************************************************************

 Orbital symmetries:
       Occupied  (A) (A) (A) (A) (A) (A) (A) (A) (A) (A) (A) (A)
                 (A) (A) (A) (A) (A) (A) (A) (A) (A) (A) (A) (A)
                 (A) (A) (A) (A) (A) (A) (A) (A) (A)
       Virtual   (A) (A) (A) (A) (A) (A) (A) (A) (A) (A) (A) (A)
                 (A) (A) (A) (A) (A) (A) (A) (A) (A) (A) (A) (A)
                 (A) (A) (A) (A) (A) (A) (A) (A) (A) (A) (A) (A)
                 (A) (A) (A) (A) (A) (A) (A) (A) (A) (A) (A) (A)
                 (A) (A) (A) (A) (A) (A) (A) (A) (A) (A) (A) (A)
                 (A) (A) (A) (A) (A) (A) (A) (A) (A) (A) (A) (A)
                 (A) (A) (A) (A) (A) (A) (A) (A) (A) (A) (A) (A)
                 (A) (A) (A) (A) (A) (A) (A) (A) (A) (A) (A) (A)
                 (A) (A) (A) (A) (A) (A) (A) (A) (A) (A) (A) (A)
                 (A) (A) (A) (A) (A) (A) (A) (A) (A) (A) (A) (A)
                 (A) (A) (A) (A) (A) (A) (A) (A) (A) (A) (A) (A)
                 (A) (A) (A) (A) (A) (A) (A) (A) (A) (A) (A) (A)
                 (A) (A) (A) (A) (A) (A) (A) (A) (A) (A) (A) (A)
                 (A) (A) (A) (A) (A) (A) (A) (A) (A) (A) (A) (A)
                 (A) (A) (A) (A) (A) (A) (A) (A) (A) (A) (A) (A)
                 (A) (A) (A) (A) (A) (A) (A) (A) (A) (A) (A) (A)
                 (A) (A) (A) (A) (A) (A) (A) (A) (A) (A) (A) (A)
                 (A) (A) (A) (A) (A) (A) (A) (A) (A) (A) (A) (A)
                 (A) (A) (A) (A) (A) (A) (A) (A) (A) (A) (A) (A)
                 (A) (A) (A) (A) (A) (A) (A) (A) (A) (A) (A) (A)
                 (A) (A) (A) (A) (A) (A) (A) (A) (A) (A) (A) (A)
                 (A) (A) (A) (A) (A) (A) (A) (A) (A) (A) (A) (A)
                 (A) (A) (A) (A) (A) (A) (A) (A) (A) (A) (A) (A)
                 (A) (A) (A) (A) (A) (A) (A) (A) (A) (A) (A) (A)
                 (A) (A) (A) (A) (A) (A) (A) (A) (A) (A) (A) (A)
 The electronic state is 1-A.
 Alpha  occ. eigenvalues --  -19.64752 -14.74723 -10.59042 -10.58602 -10.57452
 Alpha  occ. eigenvalues --  -10.53861 -10.53700 -10.53640 -10.53495  -1.18022
 Alpha  occ. eigenvalues --   -1.02141  -0.93617  -0.84403  -0.83011  -0.77421
 Alpha  occ. eigenvalues --   -0.69875  -0.66761  -0.60765  -0.58657  -0.57051
 Alpha  occ. eigenvalues --   -0.54274  -0.52858  -0.51307  -0.48604  -0.46887
 Alpha  occ. eigenvalues --   -0.46165  -0.44701  -0.42104  -0.41198  -0.38691
 Alpha  occ. eigenvalues --   -0.34984  -0.30587  -0.24275
 Alpha virt. eigenvalues --    0.02215   0.05135   0.06713   0.07785   0.09944
 Alpha virt. eigenvalues --    0.10244   0.12007   0.13578   0.14471   0.15309
 Alpha virt. eigenvalues --    0.15461   0.17080   0.17808   0.20213   0.21685
 Alpha virt. eigenvalues --    0.23541   0.24017   0.25744   0.25981   0.26398
 Alpha virt. eigenvalues --    0.26949   0.29141   0.30161   0.31214   0.32117
 Alpha virt. eigenvalues --    0.33422   0.33883   0.36215   0.36641   0.37580
 Alpha virt. eigenvalues --    0.38353   0.39983   0.41221   0.41544   0.42175
 Alpha virt. eigenvalues --    0.43257   0.44041   0.45515   0.46000   0.46087
 Alpha virt. eigenvalues --    0.47347   0.48152   0.49071   0.49859   0.50361
 Alpha virt. eigenvalues --    0.50959   0.51207   0.52770   0.53972   0.54728
 Alpha virt. eigenvalues --    0.56474   0.58210   0.59931   0.61742   0.64177
 Alpha virt. eigenvalues --    0.65082   0.67682   0.68353   0.69240   0.69539
 Alpha virt. eigenvalues --    0.70647   0.72848   0.73940   0.76289   0.76969
 Alpha virt. eigenvalues --    0.77404   0.79874   0.81166   0.83607   0.87102
 Alpha virt. eigenvalues --    0.88445   0.88926   0.90710   0.91639   0.92566
 Alpha virt. eigenvalues --    0.94379   1.00426   1.01147   1.01435   1.05696
 Alpha virt. eigenvalues --    1.08444   1.08881   1.10063   1.13040   1.13603
 Alpha virt. eigenvalues --    1.15329   1.20402   1.21931   1.23283   1.24007
 Alpha virt. eigenvalues --    1.26987   1.28347   1.30470   1.32101   1.33077
 Alpha virt. eigenvalues --    1.37211   1.38601   1.41658   1.42468   1.45865
 Alpha virt. eigenvalues --    1.46634   1.50104   1.50595   1.51429   1.53969
 Alpha virt. eigenvalues --    1.54619   1.55685   1.56863   1.58217   1.58976
 Alpha virt. eigenvalues --    1.60732   1.61195   1.61685   1.64666   1.65687
 Alpha virt. eigenvalues --    1.70997   1.71927   1.72436   1.73246   1.74360
 Alpha virt. eigenvalues --    1.77821   1.79022   1.80554   1.83539   1.84137
 Alpha virt. eigenvalues --    1.85740   1.89846   1.90893   1.93472   1.95315
 Alpha virt. eigenvalues --    1.96858   1.97110   2.00260   2.00517   2.05669
 Alpha virt. eigenvalues --    2.07335   2.09462   2.09833   2.11462   2.14203
 Alpha virt. eigenvalues --    2.17479   2.18673   2.20825   2.22058   2.27773
 Alpha virt. eigenvalues --    2.27913   2.30297   2.31058   2.32756   2.34804
 Alpha virt. eigenvalues --    2.35840   2.41325   2.42489   2.44916   2.47572
 Alpha virt. eigenvalues --    2.48470   2.50713   2.52091   2.54522   2.55649
 Alpha virt. eigenvalues --    2.55991   2.57980   2.61541   2.63162   2.64327
 Alpha virt. eigenvalues --    2.65585   2.67152   2.69677   2.70858   2.72202
 Alpha virt. eigenvalues --    2.72792   2.73427   2.76529   2.77661   2.80139
 Alpha virt. eigenvalues --    2.80956   2.82941   2.83366   2.85600   2.86858
 Alpha virt. eigenvalues --    2.88004   2.89701   2.92466   2.93976   2.95265
 Alpha virt. eigenvalues --    2.96837   2.97554   3.02545   3.04880   3.06002
 Alpha virt. eigenvalues --    3.08180   3.11602   3.13394   3.14694   3.15739
 Alpha virt. eigenvalues --    3.16919   3.17546   3.18530   3.19374   3.21684
 Alpha virt. eigenvalues --    3.23643   3.24374   3.25387   3.26086   3.29596
 Alpha virt. eigenvalues --    3.31199   3.32146   3.33856   3.35381   3.36563
 Alpha virt. eigenvalues --    3.36975   3.39389   3.40279   3.41722   3.42925
 Alpha virt. eigenvalues --    3.45707   3.46481   3.48545   3.48962   3.51919
 Alpha virt. eigenvalues --    3.52396   3.52949   3.55135   3.58163   3.59289
 Alpha virt. eigenvalues --    3.62498   3.67041   3.73467   3.75532   3.77506
 Alpha virt. eigenvalues --    3.80305   3.85038   3.87951   3.93649   3.98149
 Alpha virt. eigenvalues --    3.99682   4.01105   4.03111   4.10109   4.11798
 Alpha virt. eigenvalues --    4.12921   4.13899   4.15982   4.16638   4.19525
 Alpha virt. eigenvalues --    4.20036   4.21715   4.23792   4.25197   4.35741
 Alpha virt. eigenvalues --    4.36056   4.39792   4.43569   4.47812   4.52710
 Alpha virt. eigenvalues --    4.54823   4.56924   4.59872   4.66420   4.72429
 Alpha virt. eigenvalues --    4.72948   4.74695   4.82509   4.85595   4.87561
 Alpha virt. eigenvalues --    4.91548   4.93405   4.95839   5.07158   5.12857
 Alpha virt. eigenvalues --    5.18573   5.24421   5.26775   5.31145   5.37191
 Alpha virt. eigenvalues --    5.38473   5.48669   5.50633   5.56427   5.75055
 Alpha virt. eigenvalues --    5.78451   5.81889   5.88718   5.97896   6.30031
 Alpha virt. eigenvalues --    6.47109   6.64342   6.77320   6.84917   7.15370
 Alpha virt. eigenvalues --    7.37454  22.27748  22.47806  22.77771  22.78636
 Alpha virt. eigenvalues --   22.81255  22.98666  23.36154  32.16326  44.36025
          Condensed to atoms (all electrons):
               1          2          3          4          5          6
     1  C    4.908361   0.237920  -0.095913   0.008331  -0.002619   0.002209
     2  O    0.237920   7.955781   0.355551  -0.071233   0.006559  -0.002744
     3  C   -0.095913   0.355551   4.855332   0.455794   0.019164  -0.100194
     4  C    0.008331  -0.071233   0.455794   5.017914   0.436601   0.002899
     5  C   -0.002619   0.006559   0.019164   0.436601   5.064076   0.459126
     6  C    0.002209  -0.002744  -0.100194   0.002899   0.459126   4.798481
     7  N   -0.000006  -0.000008   0.002217   0.001288  -0.045951   0.228497
     8  C   -0.008701   0.014286   0.102619  -0.142840   0.069732   0.429396
     9  C    0.008661  -0.092399   0.255260   0.094766  -0.151927   0.060749
    10  H    0.401962  -0.031265   0.007292  -0.000739   0.000136  -0.000056
    11  H    0.413769  -0.041909  -0.014090   0.001218  -0.000290   0.000391
    12  H    0.416088  -0.042290  -0.011284   0.001094  -0.000156  -0.000185
    13  H    0.000128   0.008237  -0.048110   0.411711  -0.041527   0.010183
    14  H    0.000017  -0.000105   0.005144  -0.011971   0.388908  -0.038723
    15  H   -0.000000  -0.000001  -0.000242   0.001717  -0.011974  -0.040138
    16  H    0.000001  -0.000001   0.000114  -0.001320   0.003799  -0.041585
    17  H   -0.000013  -0.000076  -0.000423   0.001492   0.001612  -0.027329
    18  H    0.007913  -0.006242  -0.042582   0.002480  -0.000029   0.004447
               7          8          9         10         11         12
     1  C   -0.000006  -0.008701   0.008661   0.401962   0.413769   0.416088
     2  O   -0.000008   0.014286  -0.092399  -0.031265  -0.041909  -0.042290
     3  C    0.002217   0.102619   0.255260   0.007292  -0.014090  -0.011284
     4  C    0.001288  -0.142840   0.094766  -0.000739   0.001218   0.001094
     5  C   -0.045951   0.069732  -0.151927   0.000136  -0.000290  -0.000156
     6  C    0.228497   0.429396   0.060749  -0.000056   0.000391  -0.000185
     7  N    6.656613  -0.050804   0.002178  -0.000000   0.000006  -0.000002
     8  C   -0.050804   5.261764   0.209488   0.000299  -0.001064  -0.001182
     9  C    0.002178   0.209488   5.422094  -0.001627   0.008884   0.006278
    10  H   -0.000000   0.000299  -0.001627   0.513932  -0.020793  -0.020084
    11  H    0.000006  -0.001064   0.008884  -0.020793   0.572625  -0.063203
    12  H   -0.000002  -0.001182   0.006278  -0.020084  -0.063203   0.569211
    13  H   -0.000123  -0.005911   0.016436  -0.000204   0.000113   0.000118
    14  H   -0.000108   0.007363  -0.002916   0.000000  -0.000003   0.000000
    15  H    0.379282   0.002953  -0.001331  -0.000000   0.000000  -0.000000
    16  H    0.378836  -0.010694   0.001354  -0.000000   0.000001  -0.000001
    17  H    0.000449   0.365471   0.010015   0.000003  -0.000055   0.000009
    18  H   -0.000166  -0.018790   0.408181  -0.000264  -0.001122  -0.001469
              13         14         15         16         17         18
     1  C    0.000128   0.000017  -0.000000   0.000001  -0.000013   0.007913
     2  O    0.008237  -0.000105  -0.000001  -0.000001  -0.000076  -0.006242
     3  C   -0.048110   0.005144  -0.000242   0.000114  -0.000423  -0.042582
     4  C    0.411711  -0.011971   0.001717  -0.001320   0.001492   0.002480
     5  C   -0.041527   0.388908  -0.011974   0.003799   0.001612  -0.000029
     6  C    0.010183  -0.038723  -0.040138  -0.041585  -0.027329   0.004447
     7  N   -0.000123  -0.000108   0.379282   0.378836   0.000449  -0.000166
     8  C   -0.005911   0.007363   0.002953  -0.010694   0.365471  -0.018790
     9  C    0.016436  -0.002916  -0.001331   0.001354   0.010015   0.408181
    10  H   -0.000204   0.000000  -0.000000  -0.000000   0.000003  -0.000264
    11  H    0.000113  -0.000003   0.000000   0.000001  -0.000055  -0.001122
    12  H    0.000118   0.000000  -0.000000  -0.000001   0.000009  -0.001469
    13  H    0.505506  -0.006205  -0.000015   0.000019   0.000060  -0.000171
    14  H   -0.006205   0.510250   0.002085  -0.000268  -0.000430   0.000045
    15  H   -0.000015   0.002085   0.462172  -0.030977  -0.000266   0.000026
    16  H    0.000019  -0.000268  -0.030977   0.462036   0.002421  -0.000037
    17  H    0.000060  -0.000430  -0.000266   0.002421   0.506506  -0.003698
    18  H   -0.000171   0.000045   0.000026  -0.000037  -0.003698   0.495990
 Mulliken charges:
               1
     1  C   -0.298106
     2  O   -0.290062
     3  C    0.254350
     4  C   -0.209202
     5  C   -0.195241
     6  C    0.254576
     7  N   -0.552198
     8  C   -0.223387
     9  C   -0.254144
    10  H    0.151408
    11  H    0.145521
    12  H    0.147059
    13  H    0.149756
    14  H    0.146919
    15  H    0.236708
    16  H    0.236301
    17  H    0.144252
    18  H    0.155489
 Sum of Mulliken charges =  -0.00000
 Mulliken charges with hydrogens summed into heavy atoms:
               1
     1  C    0.145883
     2  O   -0.290062
     3  C    0.254350
     4  C   -0.059446
     5  C   -0.048322
     6  C    0.254576
     7  N   -0.079189
     8  C   -0.079135
     9  C   -0.098655
 Electronic spatial extent (au):  <R**2>=           1375.1971
 Charge=             -0.0000 electrons
 Dipole moment (field-independent basis, Debye):
    X=             -0.5302    Y=             -1.2157    Z=              1.0747  Tot=              1.7071
 Quadrupole moment (field-independent basis, Debye-Ang):
   XX=            -43.1782   YY=            -48.7015   ZZ=            -58.4031
   XY=             -3.4250   XZ=             -4.5158   YZ=             -0.4355
 Traceless Quadrupole moment (field-independent basis, Debye-Ang):
   XX=              6.9161   YY=              1.3928   ZZ=             -8.3089
   XY=             -3.4250   XZ=             -4.5158   YZ=             -0.4355
 Octapole moment (field-independent basis, Debye-Ang**2):
  XXX=             -2.2763  YYY=              0.5215  ZZZ=              0.8228  XYY=             -8.0690
  XXY=             -8.9087  XXZ=             17.6661  XZZ=              6.4139  YZZ=             -0.0790
  YYZ=              0.8286  XYZ=              1.5639
 Hexadecapole moment (field-independent basis, Debye-Ang**3):
 XXXX=          -1186.9869 YYYY=           -324.5695 ZZZZ=            -73.3642 XXXY=            -14.6235
 XXXZ=            -69.2890 YYYX=             11.7860 YYYZ=             -1.0144 ZZZX=             -3.6390
 ZZZY=             -0.3411 XXYY=           -262.7613 XXZZ=           -259.9224 YYZZ=            -77.6201
 XXYZ=             -5.6923 YYXZ=             -3.6613 ZZXY=             -0.1107
 N-N= 4.238167591280D+02 E-N=-1.784111851138D+03  KE= 3.999950048001D+02
 Unable to Open any file for archive entry.
 1\1\GINC-COMPUTE-0-28\SP\RM062X\def2TZVP\C7H9N1O1\SHEINS\16-Feb-2023\0
 \\# M062X/def2tzvp int=(grid=ultrafine) nmr=giao guess=read geom=check
 \\an3.xyz\\0,1\C,0,3.0960933139,0.3129732468,0.6097538047\O,0,2.297263
 8372,-0.0481421914,-0.5002287064\C,0,0.9376373548,-0.0737036755,-0.318
 4121824\C,0,0.1765184116,-0.4400978662,-1.4348915342\C,0,-1.2077439202
 ,-0.4955021967,-1.3582514191\C,0,-1.8784929951,-0.1845952572,-0.162774
 7592\N,0,-3.2756385344,-0.3021983524,-0.0726214847\C,0,-1.1093042599,0
 .1808332464,0.9465077113\C,0,0.2848301317,0.2370974236,0.8762844277\H,
 0,4.1311999529,0.2700725513,0.2676118157\H,0,2.8737933559,1.3309619324
 ,0.9573994517\H,0,2.9649379031,-0.3831791906,1.4491282447\H,0,0.693242
 0713,-0.6775882749,-2.3586616639\H,0,-1.7820238722,-0.7876382431,-2.23
 35797528\H,0,-3.7533151607,-0.1685999114,-0.9545183377\H,0,-3.68847070
 41,0.2803259259,0.6442831517\H,0,-1.6028258554,0.42185595,1.884461722\
 H,0,0.8422989695,0.5267248829,1.758609511\\Version=ES64L-G16RevC.01\St
 ate=1-A\HF=-402.1069425\RMSD=3.254e-09\Dipole=-0.2751244,0.5207735,0.3
 227473\Quadrupole=4.9147027,-5.7809567,0.866254,-1.8979124,3.5681804,2
 .2806583\PG=C01 [X(C7H9N1O1)]\\@
 The archive entry for this job was punched.


 Until you make peace with who you are,
 you'll never be content with what you have.
                           -- Doris Mortman
 Job cpu time:       0 days  0 hours 13 minutes 47.2 seconds.
 Elapsed time:       0 days  0 hours  0 minutes 56.4 seconds.
 File lengths (MBytes):  RWF=     67 Int=      0 D2E=      0 Chk=     11 Scr=      1
 Normal termination of Gaussian 16 at Thu Feb 16 10:33:28 2023.
 
 
-----Kestrel cluster job statistics-----
Time info:

real	5m6.095s
user	78m55.862s
sys	0m13.252s
 
Disk space usage:
11M	/scratch/144423.kestrel.chem.wisc.edu
