 Entering Gaussian System, Link 0=/share/apps/gaussian/g16/g16
 Initial command:
 /share/apps/gaussian/g16/l1.exe "/scratch/362944.kestrel.chem.wisc.edu/Gau-256482.inp" -scrdir="/scratch/362944.kestrel.chem.wisc.edu/"
 Entering Link 1 = /share/apps/gaussian/g16/l1.exe PID=    256483.
  
 Copyright (c) 1988-2019, Gaussian, Inc.  All Rights Reserved.
  
 This is part of the Gaussian(R) 16 program.  It is based on
 the Gaussian(R) 09 system (copyright 2009, Gaussian, Inc.),
 the Gaussian(R) 03 system (copyright 2003, Gaussian, Inc.),
 the Gaussian(R) 98 system (copyright 1998, Gaussian, Inc.),
 the Gaussian(R) 94 system (copyright 1995, Gaussian, Inc.),
 the Gaussian 92(TM) system (copyright 1992, Gaussian, Inc.),
 the Gaussian 90(TM) system (copyright 1990, Gaussian, Inc.),
 the Gaussian 88(TM) system (copyright 1988, Gaussian, Inc.),
 the Gaussian 86(TM) system (copyright 1986, Carnegie Mellon
 University), and the Gaussian 82(TM) system (copyright 1983,
 Carnegie Mellon University). Gaussian is a federally registered
 trademark of Gaussian, Inc.
  
 This software contains proprietary and confidential information,
 including trade secrets, belonging to Gaussian, Inc.
  
 This software is provided under written license and may be
 used, copied, transmitted, or stored only in accord with that
 written license.
  
 The following legend is applicable only to US Government
 contracts under FAR:
  
                    RESTRICTED RIGHTS LEGEND
  
 Use, reproduction and disclosure by the US Government is
 subject to restrictions as set forth in subparagraphs (a)
 and (c) of the Commercial Computer Software - Restricted
 Rights clause in FAR 52.227-19.
  
 Gaussian, Inc.
 340 Quinnipiac St., Bldg. 40, Wallingford CT 06492
  
  
 ---------------------------------------------------------------
 Warning -- This program may not be used in any manner that
 competes with the business of Gaussian, Inc. or will provide
 assistance to any competitor of Gaussian, Inc.  The licensee
 of this program is prohibited from giving any competitor of
 Gaussian, Inc. access to this program.  By using this program,
 the user acknowledges that Gaussian, Inc. is engaged in the
 business of creating and licensing software in the field of
 computational chemistry and represents and warrants to the
 licensee that it is not a competitor of Gaussian, Inc. and that
 it will not use this program in any manner prohibited above.
 ---------------------------------------------------------------
  

 Cite this work as:
 Gaussian 16, Revision C.01,
 M. J. Frisch, G. W. Trucks, H. B. Schlegel, G. E. Scuseria, 
 M. A. Robb, J. R. Cheeseman, G. Scalmani, V. Barone, 
 G. A. Petersson, H. Nakatsuji, X. Li, M. Caricato, A. V. Marenich, 
 J. Bloino, B. G. Janesko, R. Gomperts, B. Mennucci, H. P. Hratchian, 
 J. V. Ortiz, A. F. Izmaylov, J. L. Sonnenberg, D. Williams-Young, 
 F. Ding, F. Lipparini, F. Egidi, J. Goings, B. Peng, A. Petrone, 
 T. Henderson, D. Ranasinghe, V. G. Zakrzewski, J. Gao, N. Rega, 
 G. Zheng, W. Liang, M. Hada, M. Ehara, K. Toyota, R. Fukuda, 
 J. Hasegawa, M. Ishida, T. Nakajima, Y. Honda, O. Kitao, H. Nakai, 
 T. Vreven, K. Throssell, J. A. Montgomery, Jr., J. E. Peralta, 
 F. Ogliaro, M. J. Bearpark, J. J. Heyd, E. N. Brothers, K. N. Kudin, 
 V. N. Staroverov, T. A. Keith, R. Kobayashi, J. Normand, 
 K. Raghavachari, A. P. Rendell, J. C. Burant, S. S. Iyengar, 
 J. Tomasi, M. Cossi, J. M. Millam, M. Klene, C. Adamo, R. Cammi, 
 J. W. Ochterski, R. L. Martin, K. Morokuma, O. Farkas, 
 J. B. Foresman, and D. J. Fox, Gaussian, Inc., Wallingford CT, 2019.
 
 ******************************************
 Gaussian 16:  ES64L-G16RevC.01  3-Jul-2019
                14-Aug-2024 
 ******************************************
 %nprocs=16
 Will use up to   16 processors via shared memory.
 %mem=16GB
 %chk=pyrd10_conf-10.chk
 ----------------------------------------------------------------------
 # B3LYP/6-31G(d,p) symmetry=loose empiricaldispersion=GD3BJ int=(grid=
 ultrafine) opt freq=noraman
 ----------------------------------------------------------------------
 1/18=20,19=15,26=4,38=1/1,3;
 2/9=110,12=2,17=4,18=3,40=1/2;
 3/5=1,6=6,7=101,11=2,25=1,30=1,71=1,74=-5,75=-5,124=41/1,2,3;
 4//1;
 5/5=2,38=5/2;
 6/7=2,8=2,9=2,10=2,28=1/1;
 7//1,2,3,16;
 1/18=20,19=15,26=4/3(2);
 2/9=110/2;
 99//99;
 2/9=110/2;
 3/5=1,6=6,7=101,11=2,25=1,30=1,71=1,74=-5,75=-5,124=41/1,2,3;
 4/5=5,16=3,69=1/1;
 5/5=2,38=5/2;
 7//1,2,3,16;
 1/18=20,19=15,26=4/3(-5);
 2/9=110/2;
 6/7=2,8=2,9=2,10=2,19=2,28=1/1;
 99/9=1/99;
 ----------
 pyrd10.xyz
 ----------
 Symbolic Z-matrix:
 Charge =  0 Multiplicity = 1
 Br                    5.5838   -1.8398   -0.7895 
 C                     4.4641   -1.0871    0.6725 
 C                     3.0483   -1.6724    0.5735 
 C                     2.1034   -1.143     1.6732 
 C                     0.6711   -1.6758    1.6484 
 C                    -0.2357   -1.2346    2.6197 
 N                    -1.5265   -1.6494    2.6801 
 C                    -1.9507   -2.5373    1.7472 
 C                    -1.1191   -3.0323    0.742 
 C                     0.2062   -2.5946    0.6948 
 H                     4.944    -1.3384    1.6196 
 H                     4.465    -0.0014    0.5644 
 H                     2.6381   -1.4357   -0.4099 
 H                     3.1125   -2.7602    0.6354 
 H                     2.0519   -0.0544    1.6101 
 H                     2.5253   -1.3756    2.6528 
 H                     0.0647   -0.5276    3.3795 
 H                    -2.9827   -2.8503    1.8192 
 H                    -1.4917   -3.7392    0.0151 
 H                     0.8514   -2.9763   -0.0821 
 

 GradGradGradGradGradGradGradGradGradGradGradGradGradGradGradGradGradGrad
 Berny optimization.
 Initialization pass.
                           ----------------------------
                           !    Initial Parameters    !
                           ! (Angstroms and Degrees)  !
 --------------------------                            --------------------------
 ! Name  Definition              Value          Derivative Info.                !
 --------------------------------------------------------------------------------
 ! R1    R(1,2)                  1.9894         estimate D2E/DX2                !
 ! R2    R(2,3)                  1.5352         estimate D2E/DX2                !
 ! R3    R(2,11)                 1.0911         estimate D2E/DX2                !
 ! R4    R(2,12)                 1.0911         estimate D2E/DX2                !
 ! R5    R(3,4)                  1.5435         estimate D2E/DX2                !
 ! R6    R(3,13)                 1.0915         estimate D2E/DX2                !
 ! R7    R(3,14)                 1.0914         estimate D2E/DX2                !
 ! R8    R(4,5)                  1.5284         estimate D2E/DX2                !
 ! R9    R(4,15)                 1.0916         estimate D2E/DX2                !
 ! R10   R(4,16)                 1.0917         estimate D2E/DX2                !
 ! R11   R(5,6)                  1.4001         estimate D2E/DX2                !
 ! R12   R(5,10)                 1.4035         estimate D2E/DX2                !
 ! R13   R(6,7)                  1.3572         estimate D2E/DX2                !
 ! R14   R(6,17)                 1.0805         estimate D2E/DX2                !
 ! R15   R(7,8)                  1.356          estimate D2E/DX2                !
 ! R16   R(8,9)                  1.3954         estimate D2E/DX2                !
 ! R17   R(8,18)                 1.0808         estimate D2E/DX2                !
 ! R18   R(9,10)                 1.3965         estimate D2E/DX2                !
 ! R19   R(9,19)                 1.0802         estimate D2E/DX2                !
 ! R20   R(10,20)                1.0796         estimate D2E/DX2                !
 ! A1    A(1,2,3)              109.112          estimate D2E/DX2                !
 ! A2    A(1,2,11)             107.6509         estimate D2E/DX2                !
 ! A3    A(1,2,12)             107.6509         estimate D2E/DX2                !
 ! A4    A(3,2,11)             111.9498         estimate D2E/DX2                !
 ! A5    A(3,2,12)             111.9469         estimate D2E/DX2                !
 ! A6    A(11,2,12)            108.3505         estimate D2E/DX2                !
 ! A7    A(2,3,4)              112.8209         estimate D2E/DX2                !
 ! A8    A(2,3,13)             108.7843         estimate D2E/DX2                !
 ! A9    A(2,3,14)             108.7883         estimate D2E/DX2                !
 ! A10   A(4,3,13)             109.7224         estimate D2E/DX2                !
 ! A11   A(4,3,14)             109.7209         estimate D2E/DX2                !
 ! A12   A(13,3,14)            106.8182         estimate D2E/DX2                !
 ! A13   A(3,4,5)              116.2674         estimate D2E/DX2                !
 ! A14   A(3,4,15)             109.2521         estimate D2E/DX2                !
 ! A15   A(3,4,16)             109.2481         estimate D2E/DX2                !
 ! A16   A(5,4,15)             107.6067         estimate D2E/DX2                !
 ! A17   A(5,4,16)             107.6056         estimate D2E/DX2                !
 ! A18   A(15,4,16)            106.4142         estimate D2E/DX2                !
 ! A19   A(4,5,6)              119.0669         estimate D2E/DX2                !
 ! A20   A(4,5,10)             123.3446         estimate D2E/DX2                !
 ! A21   A(6,5,10)             117.5885         estimate D2E/DX2                !
 ! A22   A(5,6,7)              123.4048         estimate D2E/DX2                !
 ! A23   A(5,6,17)             120.9284         estimate D2E/DX2                !
 ! A24   A(7,6,17)             115.6668         estimate D2E/DX2                !
 ! A25   A(6,7,8)              117.8439         estimate D2E/DX2                !
 ! A26   A(7,8,9)              122.7843         estimate D2E/DX2                !
 ! A27   A(7,8,18)             116.2641         estimate D2E/DX2                !
 ! A28   A(9,8,18)             120.9516         estimate D2E/DX2                !
 ! A29   A(8,9,10)             118.6039         estimate D2E/DX2                !
 ! A30   A(8,9,19)             120.7526         estimate D2E/DX2                !
 ! A31   A(10,9,19)            120.6435         estimate D2E/DX2                !
 ! A32   A(5,10,9)             119.7746         estimate D2E/DX2                !
 ! A33   A(5,10,20)            121.4967         estimate D2E/DX2                !
 ! A34   A(9,10,20)            118.7286         estimate D2E/DX2                !
 ! D1    D(1,2,3,4)           -179.9998         estimate D2E/DX2                !
 ! D2    D(1,2,3,13)           -58.0052         estimate D2E/DX2                !
 ! D3    D(1,2,3,14)            58.0046         estimate D2E/DX2                !
 ! D4    D(11,2,3,4)            60.9462         estimate D2E/DX2                !
 ! D5    D(11,2,3,13)         -177.0592         estimate D2E/DX2                !
 ! D6    D(11,2,3,14)          -61.0494         estimate D2E/DX2                !
 ! D7    D(12,2,3,4)           -60.9476         estimate D2E/DX2                !
 ! D8    D(12,2,3,13)           61.047          estimate D2E/DX2                !
 ! D9    D(12,2,3,14)          177.0568         estimate D2E/DX2                !
 ! D10   D(2,3,4,5)           -179.9953         estimate D2E/DX2                !
 ! D11   D(2,3,4,15)            58.0221         estimate D2E/DX2                !
 ! D12   D(2,3,4,16)           -58.0175         estimate D2E/DX2                !
 ! D13   D(13,3,4,5)            58.54           estimate D2E/DX2                !
 ! D14   D(13,3,4,15)          -63.4426         estimate D2E/DX2                !
 ! D15   D(13,3,4,16)         -179.4822         estimate D2E/DX2                !
 ! D16   D(14,3,4,5)           -58.5264         estimate D2E/DX2                !
 ! D17   D(14,3,4,15)          179.491          estimate D2E/DX2                !
 ! D18   D(14,3,4,16)           63.4514         estimate D2E/DX2                !
 ! D19   D(3,4,5,6)            179.982          estimate D2E/DX2                !
 ! D20   D(3,4,5,10)            -0.0166         estimate D2E/DX2                !
 ! D21   D(15,4,5,6)           -57.1719         estimate D2E/DX2                !
 ! D22   D(15,4,5,10)          122.8295         estimate D2E/DX2                !
 ! D23   D(16,4,5,6)            57.1421         estimate D2E/DX2                !
 ! D24   D(16,4,5,10)         -122.8565         estimate D2E/DX2                !
 ! D25   D(4,5,6,7)            179.9965         estimate D2E/DX2                !
 ! D26   D(4,5,6,17)             0.0022         estimate D2E/DX2                !
 ! D27   D(10,5,6,7)            -0.0049         estimate D2E/DX2                !
 ! D28   D(10,5,6,17)         -179.9991         estimate D2E/DX2                !
 ! D29   D(4,5,10,9)           179.9987         estimate D2E/DX2                !
 ! D30   D(4,5,10,20)            0.0031         estimate D2E/DX2                !
 ! D31   D(6,5,10,9)             0.0001         estimate D2E/DX2                !
 ! D32   D(6,5,10,20)         -179.9955         estimate D2E/DX2                !
 ! D33   D(5,6,7,8)              0.0053         estimate D2E/DX2                !
 ! D34   D(17,6,7,8)           179.9998         estimate D2E/DX2                !
 ! D35   D(6,7,8,9)             -0.001          estimate D2E/DX2                !
 ! D36   D(6,7,8,18)           179.9969         estimate D2E/DX2                !
 ! D37   D(7,8,9,10)            -0.0035         estimate D2E/DX2                !
 ! D38   D(7,8,9,19)          -179.9995         estimate D2E/DX2                !
 ! D39   D(18,8,9,10)          179.9987         estimate D2E/DX2                !
 ! D40   D(18,8,9,19)            0.0027         estimate D2E/DX2                !
 ! D41   D(8,9,10,5)             0.0038         estimate D2E/DX2                !
 ! D42   D(8,9,10,20)          179.9996         estimate D2E/DX2                !
 ! D43   D(19,9,10,5)          179.9999         estimate D2E/DX2                !
 ! D44   D(19,9,10,20)          -0.0044         estimate D2E/DX2                !
 --------------------------------------------------------------------------------
 Trust Radius=3.00D-01 FncErr=1.00D-07 GrdErr=1.00D-06 EigMax=2.50D+02 EigMin=1.00D-04
 Number of steps in this run=    108 maximum allowed number of steps=    120.
 GradGradGradGradGradGradGradGradGradGradGradGradGradGradGradGradGradGrad

                          Input orientation:                          
 ---------------------------------------------------------------------
 Center     Atomic      Atomic             Coordinates (Angstroms)
 Number     Number       Type             X           Y           Z
 ---------------------------------------------------------------------
      1         35           0        5.583800   -1.839800   -0.789500
      2          6           0        4.464100   -1.087100    0.672500
      3          6           0        3.048300   -1.672400    0.573500
      4          6           0        2.103400   -1.143000    1.673200
      5          6           0        0.671100   -1.675800    1.648400
      6          6           0       -0.235700   -1.234600    2.619700
      7          7           0       -1.526500   -1.649400    2.680100
      8          6           0       -1.950700   -2.537300    1.747200
      9          6           0       -1.119100   -3.032300    0.742000
     10          6           0        0.206200   -2.594600    0.694800
     11          1           0        4.944000   -1.338400    1.619600
     12          1           0        4.465000   -0.001400    0.564400
     13          1           0        2.638100   -1.435700   -0.409900
     14          1           0        3.112500   -2.760200    0.635400
     15          1           0        2.051900   -0.054400    1.610100
     16          1           0        2.525300   -1.375600    2.652800
     17          1           0        0.064700   -0.527600    3.379500
     18          1           0       -2.982700   -2.850300    1.819200
     19          1           0       -1.491700   -3.739200    0.015100
     20          1           0        0.851400   -2.976300   -0.082100
 ---------------------------------------------------------------------
                    Distance matrix (angstroms):
                    1          2          3          4          5
     1  Br   0.000000
     2  C    1.989404   0.000000
     3  C    2.883496   1.535209   0.000000
     4  C    4.320140   2.564650   1.543516   0.000000
     5  C    5.486791   3.960530   2.608927   1.528389   0.000000
     6  C    6.771668   5.089348   3.894003   2.525003   1.400131
     7  N    7.913959   6.343022   5.036575   3.800850   2.427869
     8  C    7.980604   6.663912   5.207267   4.287805   2.761481
     9  C    6.978282   5.912762   4.386906   3.849817   2.422080
    10  C    5.629516   4.516942   2.990435   2.581429   1.403452
    11  H    2.542540   1.091079   2.190790   2.847817   4.286297
    12  H    2.542533   1.091069   2.190745   2.847779   4.286298
    13  H    2.997422   2.151136   1.091497   2.170457   2.857155
    14  H    2.997466   2.151154   1.091450   2.170403   2.857014
    15  H    4.628180   2.786444   2.164550   1.091643   2.130027
    16  H    4.628103   2.786353   2.164511   1.091659   2.130023
    17  H    7.040092   5.195730   4.252772   2.728823   2.163976
    18  H    9.011734   7.738128   6.269942   5.366992   3.841728
    19  H    7.370061   6.552661   5.019469   4.734374   3.406317
    20  H    4.918095   4.146094   2.637487   2.830119   2.172197
                    6          7          8          9         10
     6  C    0.000000
     7  N    1.357156   0.000000
     8  C    2.323684   1.355955   0.000000
     9  C    2.745520   2.415496   1.395353   0.000000
    10  C    2.397940   2.799476   2.400635   1.396506   0.000000
    11  H    5.276388   6.564202   6.999324   6.356151   4.987990
    12  H    5.276516   6.564310   6.999358   6.356105   4.987892
    13  H    4.180627   5.190150   5.188804   4.241763   2.911623
    14  H    4.180352   5.189894   5.188620   4.241679   2.911620
    15  H    2.765010   4.061265   4.712154   4.435846   3.270627
    16  H    2.764796   4.061132   4.712137   4.435929   3.270772
    17  H    1.080456   2.068698   3.281026   3.825090   3.391183
    18  H    3.285924   2.074567   1.080822   2.160206   3.390979
    19  H    3.825506   3.386842   2.157641   1.080242   2.157537
    20  H    3.393380   3.878765   3.375029   2.136620   1.079607
                   11         12         13         14         15
    11  H    0.000000
    12  H    1.769310   0.000000
    13  H    3.073355   2.518738   0.000000
    14  H    2.518840   3.073317   1.752714   0.000000
    15  H    3.164331   2.630466   2.516351   3.065333   0.000000
    16  H    2.630398   3.164218   3.065366   2.516312   1.748399
    17  H    5.249973   5.250173   4.669752   4.669440   2.702528
    18  H    8.072066   8.072112   6.209941   6.209747   5.762636
    19  H    7.053828   7.053733   4.747840   4.747828   5.355266
    20  H    4.725238   4.725050   2.381848   2.382032   3.583607
                   16         17         18         19         20
    16  H    0.000000
    17  H    2.702175   0.000000
    18  H    5.762612   4.137163   0.000000
    19  H    5.355404   4.904686   2.503598   0.000000
    20  H    3.583833   4.312505   4.281488   2.466086   0.000000
 Stoichiometry    C8H10BrN
 Framework group  C1[X(C8H10BrN)]
 Deg. of freedom    54
 Full point group                 C1      NOp   1
 Largest Abelian subgroup         C1      NOp   1
 Largest concise Abelian subgroup C1      NOp   1
                         Standard orientation:                         
 ---------------------------------------------------------------------
 Center     Atomic      Atomic             Coordinates (Angstroms)
 Number     Number       Type             X           Y           Z
 ---------------------------------------------------------------------
      1         35           0       -3.443611   -0.314124   -0.000080
      2          6           0       -1.924461    0.970365    0.000110
      3          6           0       -0.604031    0.187210    0.000085
      4          6           0        0.636628    1.105473    0.000233
      5          6           0        1.995686    0.406235    0.000107
      6          6           0        3.160433    1.183237   -0.000152
      7          7           0        4.410736    0.655397   -0.000210
      8          6           0        4.527876   -0.695489   -0.000117
      9          6           0        3.424439   -1.549560    0.000055
     10          6           0        2.145279   -0.989222    0.000210
     11          1           0       -2.024501    1.601205   -0.884473
     12          1           0       -2.024536    1.600980    0.884836
     13          1           0       -0.581075   -0.463092    0.876411
     14          1           0       -0.580939   -0.462922   -0.876303
     15          1           0        0.601205    1.758221    0.874504
     16          1           0        0.601173    1.758436   -0.873896
     17          1           0        3.108053    2.262422   -0.000227
     18          1           0        5.534812   -1.088243   -0.000219
     19          1           0        3.555855   -2.621778    0.000133
     20          1           0        1.290095   -1.648170    0.000335
 ---------------------------------------------------------------------
 Rotational constants (GHZ):           3.6780257           0.2614276           0.2451839
 Standard basis: 6-31G(d,p) (6D, 7F)
 There are   215 symmetry adapted cartesian basis functions of A   symmetry.
 There are   215 symmetry adapted basis functions of A   symmetry.
   215 basis functions,   405 primitive gaussians,   215 cartesian basis functions
    50 alpha electrons       50 beta electrons
       nuclear repulsion energy       669.8097745542 Hartrees.
 NAtoms=   20 NActive=   20 NUniq=   20 SFac= 1.00D+00 NAtFMM=   60 NAOKFM=F Big=F
 Integral buffers will be    131072 words long.
 Raffenetti 2 integral format.
 Two-electron integral symmetry is turned on.
 Nuclear repulsion after empirical dispersion term =      669.7731458446 Hartrees.
 One-electron integrals computed using PRISM.
 NBasis=   215 RedAO= T EigKep=  7.49D-04  NBF=   215
 NBsUse=   215 1.00D-06 EigRej= -1.00D+00 NBFU=   215
 ExpMin= 1.43D-01 ExpMax= 5.74D+05 ExpMxC= 5.74D+03 IAcc=3 IRadAn=         5 AccDes= 0.00D+00
 Harris functional with IExCor=  402 and IRadAn=       5 diagonalized for initial guess.
 HarFok:  IExCor=  402 AccDes= 0.00D+00 IRadAn=         5 IDoV= 1 UseB2=F ITyADJ=14
 ICtDFT=  3500011 ScaDFX=  1.000000  1.000000  1.000000  1.000000
 FoFCou: FMM=F IPFlag=           0 FMFlag=      100000 FMFlg1=           0
         NFxFlg=           0 DoJE=T BraDBF=F KetDBF=T FulRan=T
         wScrn=  0.000000 ICntrl=       500 IOpCl=  0 I1Cent=   200000004 NGrid=           0
         NMat0=    1 NMatS0=      1 NMatT0=    0 NMatD0=    1 NMtDS0=    0 NMtDT0=    0
 Petite list used in FoFCou.
 Requested convergence on RMS density matrix=1.00D-08 within 128 cycles.
 Requested convergence on MAX density matrix=1.00D-06.
 Requested convergence on             energy=1.00D-06.
 No special actions if energy rises.
 Integral accuracy reduced to 1.0D-05 until final iterations.
 Initial convergence to 1.0D-05 achieved.  Increase integral accuracy.
 SCF Done:  E(RB3LYP) =  -2937.38174765     A.U. after   14 cycles
            NFock= 14  Conv=0.37D-08     -V/T= 2.0066

 **********************************************************************

            Population analysis using the SCF Density.

 **********************************************************************

 Orbital symmetries:
       Occupied  (A) (A) (A) (A) (A) (A) (A) (A) (A) (A) (A) (A)
                 (A) (A) (A) (A) (A) (A) (A) (A) (A) (A) (A) (A)
                 (A) (A) (A) (A) (A) (A) (A) (A) (A) (A) (A) (A)
                 (A) (A) (A) (A) (A) (A) (A) (A) (A) (A) (A) (A)
                 (A) (A)
       Virtual   (A) (A) (A) (A) (A) (A) (A) (A) (A) (A) (A) (A)
                 (A) (A) (A) (A) (A) (A) (A) (A) (A) (A) (A) (A)
                 (A) (A) (A) (A) (A) (A) (A) (A) (A) (A) (A) (A)
                 (A) (A) (A) (A) (A) (A) (A) (A) (A) (A) (A) (A)
                 (A) (A) (A) (A) (A) (A) (A) (A) (A) (A) (A) (A)
                 (A) (A) (A) (A) (A) (A) (A) (A) (A) (A) (A) (A)
                 (A) (A) (A) (A) (A) (A) (A) (A) (A) (A) (A) (A)
                 (A) (A) (A) (A) (A) (A) (A) (A) (A) (A) (A) (A)
                 (A) (A) (A) (A) (A) (A) (A) (A) (A) (A) (A) (A)
                 (A) (A) (A) (A) (A) (A) (A) (A) (A) (A) (A) (A)
                 (A) (A) (A) (A) (A) (A) (A) (A) (A) (A) (A) (A)
                 (A) (A) (A) (A) (A) (A) (A) (A) (A) (A) (A) (A)
                 (A) (A) (A) (A) (A) (A) (A) (A) (A) (A) (A) (A)
                 (A) (A) (A) (A) (A) (A) (A) (A) (A)
 The electronic state is 1-A.
 Alpha  occ. eigenvalues -- -482.89939 -61.86187 -56.38263 -56.37885 -56.37878
 Alpha  occ. eigenvalues --  -14.33253 -10.25167 -10.22366 -10.22255 -10.21296
 Alpha  occ. eigenvalues --  -10.20924 -10.20907 -10.20831 -10.20129  -8.57334
 Alpha  occ. eigenvalues --   -6.52721  -6.51447  -6.51436  -2.64283  -2.63929
 Alpha  occ. eigenvalues --   -2.63920  -2.62904  -2.62904  -0.93128  -0.83601
 Alpha  occ. eigenvalues --   -0.80629  -0.77861  -0.74348  -0.67992  -0.63799
 Alpha  occ. eigenvalues --   -0.61831  -0.59388  -0.52338  -0.49549  -0.48439
 Alpha  occ. eigenvalues --   -0.46545  -0.43498  -0.43312  -0.41972  -0.40461
 Alpha  occ. eigenvalues --   -0.38800  -0.38758  -0.36143  -0.35531  -0.35394
 Alpha  occ. eigenvalues --   -0.28316  -0.27628  -0.27581  -0.25635  -0.25232
 Alpha virt. eigenvalues --   -0.02622  -0.01381  -0.00738   0.08519   0.09898
 Alpha virt. eigenvalues --    0.11048   0.12153   0.13106   0.13984   0.15563
 Alpha virt. eigenvalues --    0.16402   0.16920   0.17631   0.19309   0.20053
 Alpha virt. eigenvalues --    0.21859   0.23932   0.25202   0.28241   0.30948
 Alpha virt. eigenvalues --    0.32987   0.35283   0.40972   0.42988   0.43590
 Alpha virt. eigenvalues --    0.46039   0.47110   0.47518   0.47578   0.50677
 Alpha virt. eigenvalues --    0.51202   0.51241   0.52960   0.54286   0.55046
 Alpha virt. eigenvalues --    0.57126   0.58165   0.58752   0.59165   0.61180
 Alpha virt. eigenvalues --    0.61326   0.62920   0.64786   0.66075   0.66541
 Alpha virt. eigenvalues --    0.68738   0.69290   0.75909   0.75932   0.76895
 Alpha virt. eigenvalues --    0.79212   0.80848   0.81535   0.83313   0.83677
 Alpha virt. eigenvalues --    0.86801   0.87284   0.87494   0.87887   0.89713
 Alpha virt. eigenvalues --    0.91417   0.92613   0.94907   0.95771   0.99306
 Alpha virt. eigenvalues --    1.01730   1.03821   1.06885   1.10315   1.14451
 Alpha virt. eigenvalues --    1.16651   1.19164   1.24912   1.26208   1.31875
 Alpha virt. eigenvalues --    1.35002   1.35515   1.40161   1.43062   1.43093
 Alpha virt. eigenvalues --    1.45627   1.47027   1.47953   1.56517   1.60627
 Alpha virt. eigenvalues --    1.66083   1.67864   1.70367   1.71969   1.74583
 Alpha virt. eigenvalues --    1.78902   1.79906   1.81798   1.85600   1.86159
 Alpha virt. eigenvalues --    1.89860   1.93401   1.95810   1.96596   1.99083
 Alpha virt. eigenvalues --    2.01156   2.04488   2.05101   2.08410   2.08926
 Alpha virt. eigenvalues --    2.10909   2.12184   2.15008   2.18801   2.20602
 Alpha virt. eigenvalues --    2.23596   2.29227   2.30101   2.30553   2.33230
 Alpha virt. eigenvalues --    2.34219   2.37807   2.38938   2.41037   2.41479
 Alpha virt. eigenvalues --    2.45681   2.49717   2.51273   2.52765   2.53669
 Alpha virt. eigenvalues --    2.55530   2.60438   2.62118   2.64008   2.66781
 Alpha virt. eigenvalues --    2.67433   2.67950   2.71296   2.75070   2.78319
 Alpha virt. eigenvalues --    2.80904   2.83065   2.84353   2.87537   2.91937
 Alpha virt. eigenvalues --    2.98607   3.04098   3.17078   3.20308   3.23255
 Alpha virt. eigenvalues --    3.25411   3.30622   3.33200   3.37556   3.39713
 Alpha virt. eigenvalues --    3.45860   3.47211   3.54481   3.78655   4.08632
 Alpha virt. eigenvalues --    4.13895   4.18029   4.26073   4.31376   4.38494
 Alpha virt. eigenvalues --    4.47752   4.62200   4.77181   8.62037  72.89458
          Condensed to atoms (all electrons):
               1          2          3          4          5          6
     1  Br  35.011740   0.253531  -0.050179   0.004439  -0.000122   0.000001
     2  C    0.253531   4.976071   0.339349  -0.031814   0.002857  -0.000070
     3  C   -0.050179   0.339349   4.961059   0.327596  -0.026559   0.002334
     4  C    0.004439  -0.031814   0.327596   5.072849   0.324891  -0.045649
     5  C   -0.000122   0.002857  -0.026559   0.324891   4.834717   0.472748
     6  C    0.000001  -0.000070   0.002334  -0.045649   0.472748   4.820314
     7  N   -0.000000   0.000000  -0.000100   0.005293  -0.012839   0.440377
     8  C   -0.000000   0.000000  -0.000000   0.000304  -0.033331  -0.072584
     9  C   -0.000000  -0.000004  -0.000040   0.008309  -0.022325  -0.041355
    10  C    0.000001   0.000313  -0.003058  -0.066941   0.548746  -0.034948
    11  H   -0.036521   0.378457  -0.035019  -0.002268  -0.000013   0.000000
    12  H   -0.036521   0.378457  -0.035021  -0.002268  -0.000013   0.000000
    13  H    0.001179  -0.039289   0.388510  -0.035874  -0.002764   0.000100
    14  H    0.001178  -0.039285   0.388518  -0.035882  -0.002760   0.000100
    15  H   -0.000025  -0.003575  -0.036259   0.372166  -0.031753  -0.004202
    16  H   -0.000025  -0.003576  -0.036264   0.372171  -0.031761  -0.004204
    17  H   -0.000000  -0.000001   0.000007  -0.003226  -0.072329   0.390751
    18  H   -0.000000  -0.000000  -0.000000   0.000017   0.000790   0.004476
    19  H   -0.000000   0.000000   0.000003  -0.000125   0.004950   0.000539
    20  H    0.000018  -0.000098   0.005124  -0.013155  -0.045254   0.005444
               7          8          9         10         11         12
     1  Br  -0.000000  -0.000000  -0.000000   0.000001  -0.036521  -0.036521
     2  C    0.000000   0.000000  -0.000004   0.000313   0.378457   0.378457
     3  C   -0.000100  -0.000000  -0.000040  -0.003058  -0.035019  -0.035021
     4  C    0.005293   0.000304   0.008309  -0.066941  -0.002268  -0.002268
     5  C   -0.012839  -0.033331  -0.022325   0.548746  -0.000013  -0.000013
     6  C    0.440377  -0.072584  -0.041355  -0.034948   0.000000   0.000000
     7  N    6.725738   0.457836  -0.024066  -0.055153  -0.000000  -0.000000
     8  C    0.457836   4.724247   0.505850  -0.038831  -0.000000  -0.000000
     9  C   -0.024066   0.505850   4.916797   0.507886   0.000000   0.000000
    10  C   -0.055153  -0.038831   0.507886   4.878600  -0.000000  -0.000000
    11  H   -0.000000  -0.000000   0.000000  -0.000000   0.582611  -0.038634
    12  H   -0.000000  -0.000000   0.000000  -0.000000  -0.038634   0.582613
    13  H   -0.000001  -0.000006  -0.000019   0.000965   0.005425  -0.006031
    14  H   -0.000001  -0.000006  -0.000020   0.000965  -0.006029   0.005425
    15  H   -0.000002   0.000033  -0.000179   0.001614  -0.000518   0.004373
    16  H   -0.000001   0.000033  -0.000179   0.001617   0.004374  -0.000518
    17  H   -0.049375   0.004876   0.000311   0.004026   0.000001   0.000001
    18  H   -0.050144   0.388160  -0.061466   0.003354   0.000000   0.000000
    19  H    0.004853  -0.035709   0.358602  -0.038755   0.000000   0.000000
    20  H   -0.000239   0.004873  -0.046351   0.375788   0.000004   0.000005
              13         14         15         16         17         18
     1  Br   0.001179   0.001178  -0.000025  -0.000025  -0.000000  -0.000000
     2  C   -0.039289  -0.039285  -0.003575  -0.003576  -0.000001  -0.000000
     3  C    0.388510   0.388518  -0.036259  -0.036264   0.000007  -0.000000
     4  C   -0.035874  -0.035882   0.372166   0.372171  -0.003226   0.000017
     5  C   -0.002764  -0.002760  -0.031753  -0.031761  -0.072329   0.000790
     6  C    0.000100   0.000100  -0.004202  -0.004204   0.390751   0.004476
     7  N   -0.000001  -0.000001  -0.000002  -0.000001  -0.049375  -0.050144
     8  C   -0.000006  -0.000006   0.000033   0.000033   0.004876   0.388160
     9  C   -0.000019  -0.000020  -0.000179  -0.000179   0.000311  -0.061466
    10  C    0.000965   0.000965   0.001614   0.001617   0.004026   0.003354
    11  H    0.005425  -0.006029  -0.000518   0.004374   0.000001   0.000000
    12  H   -0.006031   0.005425   0.004373  -0.000518   0.000001   0.000000
    13  H    0.600769  -0.040028  -0.006238   0.005663   0.000004  -0.000000
    14  H   -0.040028   0.600749   0.005663  -0.006237   0.000004  -0.000000
    15  H   -0.006238   0.005663   0.613436  -0.037435   0.002460  -0.000000
    16  H    0.005663  -0.006237  -0.037435   0.613451   0.002463  -0.000000
    17  H    0.000004   0.000004   0.002460   0.002463   0.623402  -0.000197
    18  H   -0.000000  -0.000000  -0.000000  -0.000000  -0.000197   0.615813
    19  H    0.000002   0.000002   0.000003   0.000003   0.000027  -0.002275
    20  H    0.001841   0.001840   0.000191   0.000191  -0.000166  -0.000191
              19         20
     1  Br  -0.000000   0.000018
     2  C    0.000000  -0.000098
     3  C    0.000003   0.005124
     4  C   -0.000125  -0.013155
     5  C    0.004950  -0.045254
     6  C    0.000539   0.005444
     7  N    0.004853  -0.000239
     8  C   -0.035709   0.004873
     9  C    0.358602  -0.046351
    10  C   -0.038755   0.375788
    11  H    0.000000   0.000004
    12  H    0.000000   0.000005
    13  H    0.000002   0.001841
    14  H    0.000002   0.001840
    15  H    0.000003   0.000191
    16  H    0.000003   0.000191
    17  H    0.000027  -0.000166
    18  H   -0.002275  -0.000191
    19  H    0.620978  -0.006550
    20  H   -0.006550   0.618342
 Mulliken charges:
               1
     1  Br  -0.148694
     2  C   -0.211323
     3  C   -0.190003
     4  C   -0.250832
     5  C    0.092124
     6  C    0.065826
     7  N   -0.442176
     8  C    0.094254
     9  C   -0.101751
    10  C   -0.086186
    11  H    0.148130
    12  H    0.148132
    13  H    0.125793
    14  H    0.125804
    15  H    0.120246
    16  H    0.120235
    17  H    0.096962
    18  H    0.101663
    19  H    0.093454
    20  H    0.098342
 Sum of Mulliken charges =  -0.00000
 Mulliken charges with hydrogens summed into heavy atoms:
               1
     1  Br  -0.148694
     2  C    0.084939
     3  C    0.061594
     4  C   -0.010350
     5  C    0.092124
     6  C    0.162788
     7  N   -0.442176
     8  C    0.195917
     9  C   -0.008298
    10  C    0.012156
 Electronic spatial extent (au):  <R**2>=           3854.4015
 Charge=             -0.0000 electrons
 Dipole moment (field-independent basis, Debye):
    X=             -0.3079    Y=              0.0267    Z=              0.0005  Tot=              0.3090
 Quadrupole moment (field-independent basis, Debye-Ang):
   XX=            -90.2974   YY=            -66.0475   ZZ=            -73.1423
   XY=             -8.8173   XZ=              0.0006   YZ=              0.0002
 Traceless Quadrupole moment (field-independent basis, Debye-Ang):
   XX=            -13.8016   YY=             10.4483   ZZ=              3.3534
   XY=             -8.8173   XZ=              0.0006   YZ=              0.0002
 Octapole moment (field-independent basis, Debye-Ang**2):
  XXX=           -138.9949  YYY=             -9.6258  ZZZ=             -0.0018  XYY=            -31.5595
  XXY=            -42.9180  XXZ=              0.0030  XZZ=            -41.9148  YZZ=              0.1244
  YYZ=             -0.0004  XYZ=              0.0005
 Hexadecapole moment (field-independent basis, Debye-Ang**3):
 XXXX=          -4310.9423 YYYY=           -419.3674 ZZZZ=            -95.7950 XXXY=           -159.4111
 XXXZ=              0.0273 YYYX=             20.2535 YYYZ=             -0.0027 ZZZX=              0.0068
 ZZZY=              0.0030 XXYY=           -703.4326 XXZZ=           -707.9018 YYZZ=            -91.2460
 XXYZ=              0.0118 YYXZ=              0.0048 ZZXY=             12.6911
 N-N= 6.697731458446D+02 E-N=-8.319980821447D+03  KE= 2.917996455430D+03
 Calling FoFJK, ICntrl=      2127 FMM=F ISym2X=0 I1Cent= 0 IOpClX= 0 NMat=1 NMatS=1 NMatT=0.
 ***** Axes restored to original set *****
 -------------------------------------------------------------------
 Center     Atomic                   Forces (Hartrees/Bohr)
 Number     Number              X              Y              Z
 -------------------------------------------------------------------
      1       35          -0.001341997    0.003902228    0.005553793
      2        6          -0.010725908   -0.002714581    0.001436173
      3        6          -0.000719885    0.003138499    0.004257469
      4        6          -0.001954577   -0.004038109   -0.004207744
      5        6           0.007889137   -0.001910068   -0.005997020
      6        6          -0.023169560   -0.015581277   -0.009248000
      7        7           0.009266901   -0.002376395   -0.007212534
      8        6           0.014498678    0.011582238    0.008102168
      9        6           0.002028183    0.005093329    0.005524262
     10        6          -0.004413357    0.002844535    0.005620839
     11        1           0.002352714   -0.002539524   -0.002320535
     12        1           0.001721233   -0.000761100   -0.003718450
     13        1          -0.000344589    0.000473144   -0.002182516
     14        1           0.000609908   -0.002205268   -0.000090551
     15        1           0.001285765    0.004139431    0.000404282
     16        1           0.002653693    0.000307399    0.003425623
     17        1           0.002074687    0.003544913    0.003555092
     18        1          -0.004187817   -0.000781697    0.000908823
     19        1          -0.001538424   -0.002241957   -0.002140688
     20        1           0.004015216    0.000124260   -0.001670486
 -------------------------------------------------------------------
 Cartesian Forces:  Max     0.023169560 RMS     0.005832723

 GradGradGradGradGradGradGradGradGradGradGradGradGradGradGradGradGradGrad
 Berny optimization.
 FormGI is forming the generalized inverse of G from B-inverse, IUseBI=4.
 Internal  Forces:  Max     0.018881654 RMS     0.003739472
 Search for a local minimum.
 Step number   1 out of a maximum of  108
 All quantities printed in internal units (Hartrees-Bohrs-Radians)
 Mixed Optimization -- RFO/linear search
 Second derivative matrix not updated -- first step.
 ITU=  0
     Eigenvalues ---    0.00230   0.00300   0.00390   0.01366   0.02072
     Eigenvalues ---    0.02090   0.02139   0.02143   0.02143   0.02189
     Eigenvalues ---    0.02234   0.03447   0.03596   0.04762   0.05194
     Eigenvalues ---    0.05572   0.05655   0.08307   0.09896   0.12194
     Eigenvalues ---    0.13181   0.14497   0.16000   0.16000   0.16000
     Eigenvalues ---    0.16000   0.16000   0.16000   0.21921   0.22000
     Eigenvalues ---    0.22007   0.22250   0.23190   0.23451   0.25000
     Eigenvalues ---    0.28210   0.28948   0.29573   0.34622   0.34623
     Eigenvalues ---    0.34640   0.34646   0.34688   0.34689   0.35895
     Eigenvalues ---    0.35939   0.35965   0.36042   0.42039   0.43294
     Eigenvalues ---    0.45713   0.46115   0.51832   0.52995
 RFO step:  Lambda=-4.21632227D-03 EMin= 2.30000000D-03
 Linear search not attempted -- first point.
 Iteration  1 RMS(Cart)=  0.02543719 RMS(Int)=  0.00022191
 Iteration  2 RMS(Cart)=  0.00025428 RMS(Int)=  0.00007378
 Iteration  3 RMS(Cart)=  0.00000005 RMS(Int)=  0.00007378
 Variable       Old X    -DE/DX   Delta X   Delta X   Delta X     New X
                                 (Linear)    (Quad)   (Total)
    R1        3.75943  -0.00631   0.00000  -0.04232  -0.04232   3.71711
    R2        2.90112  -0.00812   0.00000  -0.02764  -0.02764   2.87349
    R3        2.06184  -0.00039   0.00000  -0.00112  -0.00112   2.06072
    R4        2.06182  -0.00039   0.00000  -0.00110  -0.00110   2.06072
    R5        2.91682  -0.00702   0.00000  -0.02452  -0.02452   2.89230
    R6        2.06263   0.00220   0.00000   0.00627   0.00627   2.06890
    R7        2.06254   0.00223   0.00000   0.00636   0.00636   2.06890
    R8        2.88824  -0.00612   0.00000  -0.02040  -0.02040   2.86783
    R9        2.06291   0.00404   0.00000   0.01154   0.01154   2.07444
   R10        2.06294   0.00403   0.00000   0.01151   0.01151   2.07445
   R11        2.64586  -0.00049   0.00000  -0.00139  -0.00135   2.64451
   R12        2.65214  -0.00871   0.00000  -0.01783  -0.01781   2.63433
   R13        2.56465  -0.01888   0.00000  -0.03633  -0.03632   2.52834
   R14        2.04177   0.00540   0.00000   0.01484   0.01484   2.05661
   R15        2.56238  -0.01666   0.00000  -0.03184  -0.03186   2.53052
   R16        2.63684  -0.00228   0.00000  -0.00468  -0.00471   2.63213
   R17        2.04246   0.00429   0.00000   0.01180   0.01180   2.05426
   R18        2.63901  -0.00346   0.00000  -0.00587  -0.00588   2.63313
   R19        2.04136   0.00344   0.00000   0.00945   0.00945   2.05081
   R20        2.04016   0.00356   0.00000   0.00976   0.00976   2.04992
    A1        1.90436   0.00595   0.00000   0.01922   0.01924   1.92360
    A2        1.87886  -0.00446   0.00000  -0.03337  -0.03335   1.84551
    A3        1.87886  -0.00446   0.00000  -0.03337  -0.03335   1.84551
    A4        1.95389   0.00086   0.00000   0.01134   0.01110   1.96500
    A5        1.95384   0.00087   0.00000   0.01138   0.01114   1.96498
    A6        1.89107   0.00076   0.00000   0.02104   0.02062   1.91169
    A7        1.96910  -0.00601   0.00000  -0.02951  -0.02952   1.93958
    A8        1.89864   0.00152   0.00000   0.00305   0.00308   1.90172
    A9        1.89871   0.00151   0.00000   0.00301   0.00304   1.90175
   A10        1.91502   0.00208   0.00000   0.01028   0.01018   1.92520
   A11        1.91499   0.00208   0.00000   0.01029   0.01019   1.92518
   A12        1.86433  -0.00093   0.00000   0.00458   0.00447   1.86880
   A13        2.02925  -0.00606   0.00000  -0.02649  -0.02644   2.00281
   A14        1.90681   0.00111   0.00000   0.00128   0.00137   1.90818
   A15        1.90674   0.00111   0.00000   0.00134   0.00143   1.90817
   A16        1.87809   0.00275   0.00000   0.01625   0.01617   1.89426
   A17        1.87807   0.00275   0.00000   0.01626   0.01619   1.89426
   A18        1.85728  -0.00133   0.00000  -0.00715  -0.00728   1.85000
   A19        2.07811   0.00157   0.00000   0.00527   0.00525   2.08335
   A20        2.15277   0.00147   0.00000   0.00486   0.00483   2.15760
   A21        2.05231  -0.00304   0.00000  -0.01013  -0.01008   2.04223
   A22        2.15382   0.00680   0.00000   0.02643   0.02647   2.18029
   A23        2.11060  -0.00404   0.00000  -0.01708  -0.01711   2.09349
   A24        2.01877  -0.00277   0.00000  -0.00934  -0.00936   2.00940
   A25        2.05676  -0.00268   0.00000  -0.01869  -0.01870   2.03806
   A26        2.14299   0.00288   0.00000   0.01048   0.01043   2.15342
   A27        2.02919  -0.00224   0.00000  -0.01009  -0.01007   2.01912
   A28        2.11100  -0.00064   0.00000  -0.00039  -0.00036   2.11064
   A29        2.07003  -0.00016   0.00000   0.00294   0.00290   2.07292
   A30        2.10753  -0.00032   0.00000  -0.00391  -0.00389   2.10364
   A31        2.10563   0.00048   0.00000   0.00097   0.00099   2.10662
   A32        2.09046  -0.00380   0.00000  -0.01103  -0.01102   2.07944
   A33        2.12052  -0.00066   0.00000  -0.01004  -0.01005   2.11047
   A34        2.07221   0.00445   0.00000   0.02107   0.02106   2.09327
    D1       -3.14159  -0.00000   0.00000  -0.00001  -0.00001   3.14159
    D2       -1.01238  -0.00027   0.00000  -0.00437  -0.00434  -1.01672
    D3        1.01237   0.00027   0.00000   0.00437   0.00434   1.01672
    D4        1.06371   0.00112   0.00000   0.02191   0.02202   1.08574
    D5       -3.09027   0.00085   0.00000   0.01755   0.01769  -3.07258
    D6       -1.06551   0.00139   0.00000   0.02629   0.02638  -1.03914
    D7       -1.06374  -0.00112   0.00000  -0.02190  -0.02201  -1.08575
    D8        1.06547  -0.00139   0.00000  -0.02626  -0.02635   1.03912
    D9        3.09022  -0.00085   0.00000  -0.01753  -0.01766   3.07256
   D10       -3.14151   0.00000   0.00000  -0.00002  -0.00002  -3.14153
   D11        1.01268  -0.00018   0.00000  -0.00354  -0.00356   1.00911
   D12       -1.01260   0.00018   0.00000   0.00356   0.00359  -1.00901
   D13        1.02172   0.00065   0.00000   0.00876   0.00881   1.03053
   D14       -1.10728   0.00047   0.00000   0.00524   0.00527  -1.10201
   D15       -3.13256   0.00083   0.00000   0.01234   0.01242  -3.12014
   D16       -1.02148  -0.00065   0.00000  -0.00884  -0.00890  -1.03038
   D17        3.13271  -0.00083   0.00000  -0.01236  -0.01244   3.12027
   D18        1.10744  -0.00048   0.00000  -0.00526  -0.00529   1.10215
   D19        3.14128   0.00000   0.00000   0.00004   0.00004   3.14132
   D20       -0.00029   0.00000   0.00000  -0.00000  -0.00000  -0.00029
   D21       -0.99784  -0.00058   0.00000  -0.00385  -0.00396  -1.00180
   D22        2.14378  -0.00058   0.00000  -0.00390  -0.00401   2.13977
   D23        0.99732   0.00058   0.00000   0.00385   0.00396   1.00128
   D24       -2.14425   0.00058   0.00000   0.00380   0.00391  -2.14034
   D25        3.14153   0.00000   0.00000   0.00006   0.00006   3.14159
   D26        0.00004  -0.00000   0.00000  -0.00009  -0.00009  -0.00005
   D27       -0.00008   0.00000   0.00000   0.00010   0.00010   0.00001
   D28       -3.14158  -0.00000   0.00000  -0.00004  -0.00004   3.14156
   D29        3.14157   0.00000   0.00000   0.00004   0.00004  -3.14157
   D30        0.00005  -0.00000   0.00000  -0.00003  -0.00003   0.00002
   D31        0.00000  -0.00000   0.00000  -0.00000  -0.00000  -0.00000
   D32       -3.14151  -0.00000   0.00000  -0.00008  -0.00008   3.14159
   D33        0.00009  -0.00000   0.00000  -0.00011  -0.00011  -0.00002
   D34        3.14159   0.00000   0.00000   0.00003   0.00003  -3.14157
   D35       -0.00002   0.00000   0.00000   0.00002   0.00002   0.00001
   D36        3.14154   0.00000   0.00000   0.00007   0.00007  -3.14158
   D37       -0.00006   0.00000   0.00000   0.00007   0.00007   0.00001
   D38       -3.14158  -0.00000   0.00000  -0.00000  -0.00000  -3.14159
   D39        3.14157   0.00000   0.00000   0.00002   0.00002   3.14159
   D40        0.00005  -0.00000   0.00000  -0.00005  -0.00005  -0.00000
   D41        0.00007  -0.00000   0.00000  -0.00008  -0.00008  -0.00001
   D42        3.14158  -0.00000   0.00000  -0.00000  -0.00000   3.14158
   D43        3.14159  -0.00000   0.00000  -0.00001  -0.00001   3.14158
   D44       -0.00008   0.00000   0.00000   0.00007   0.00007  -0.00001
         Item               Value     Threshold  Converged?
 Maximum Force            0.018882     0.000450     NO 
 RMS     Force            0.003739     0.000300     NO 
 Maximum Displacement     0.087333     0.001800     NO 
 RMS     Displacement     0.025507     0.001200     NO 
 Predicted change in Energy=-2.151172D-03
 GradGradGradGradGradGradGradGradGradGradGradGradGradGradGradGradGradGrad

                          Input orientation:                          
 ---------------------------------------------------------------------
 Center     Atomic      Atomic             Coordinates (Angstroms)
 Number     Number       Type             X           Y           Z
 ---------------------------------------------------------------------
      1         35           0        5.570314   -1.808732   -0.744019
      2          6           0        4.417885   -1.096193    0.681931
      3          6           0        3.020105   -1.684482    0.571011
      4          6           0        2.104841   -1.143464    1.671985
      5          6           0        0.685210   -1.678809    1.638210
      6          6           0       -0.233781   -1.248084    2.601690
      7          7           0       -1.508892   -1.646396    2.675971
      8          6           0       -1.921736   -2.523232    1.751908
      9          6           0       -1.097378   -3.021474    0.745800
     10          6           0        0.226809   -2.591482    0.689417
     11          1           0        4.909814   -1.359142    1.618959
     12          1           0        4.427548   -0.012985    0.556536
     13          1           0        2.610472   -1.444647   -0.415549
     14          1           0        3.087169   -2.775382    0.634684
     15          1           0        2.066408   -0.048313    1.607035
     16          1           0        2.541149   -1.373231    2.652750
     17          1           0        0.073171   -0.535867    3.365200
     18          1           0       -2.960365   -2.834779    1.828731
     19          1           0       -1.480791   -3.731369    0.019995
     20          1           0        0.885448   -2.967339   -0.086245
 ---------------------------------------------------------------------
                    Distance matrix (angstroms):
                    1          2          3          4          5
     1  Br   0.000000
     2  C    1.967012   0.000000
     3  C    2.871986   1.520584   0.000000
     4  C    4.276582   2.516469   1.530540   0.000000
     5  C    5.436555   3.897021   2.567232   1.517593   0.000000
     6  C    6.722768   5.034535   3.860295   2.518819   1.399415
     7  N    7.863704   6.277388   4.994409   3.784177   2.427361
     8  C    7.929121   6.585748   5.149739   4.257166   2.742652
     9  C    6.938906   5.841996   4.332639   3.826087   2.403490
    10  C    5.587529   4.449839   2.939247   2.566944   1.394027
    11  H    2.494405   1.090485   2.185187   2.813752   4.236725
    12  H    2.494406   1.090485   2.185179   2.813748   4.236753
    13  H    3.000185   2.143041   1.094816   2.168911   2.824782
    14  H    3.000207   2.143062   1.094813   2.168898   2.824703
    15  H    4.572077   2.735565   2.158688   1.097749   2.137100
    16  H    4.572038   2.735510   2.158683   1.097750   2.137096
    17  H    6.980290   5.137163   4.220335   2.713638   2.159491
    18  H    8.969074   7.666577   6.218606   5.342418   3.829201
    19  H    7.348355   6.494359   4.975081   4.720496   3.394582
    20  H    4.870626   4.070552   2.575746   2.811550   2.161979
                    6          7          8          9         10
     6  C    0.000000
     7  N    1.337938   0.000000
     8  C    2.279764   1.339094   0.000000
     9  C    2.708328   2.405357   1.392862   0.000000
    10  C    2.381943   2.802185   2.397871   1.393392   0.000000
    11  H    5.237811   6.511496   6.931295   6.293815   4.930847
    12  H    5.237949   6.511632   6.931353   6.293777   4.930772
    13  H    4.151162   5.154353   5.138300   4.193241   2.866711
    14  H    4.150960   5.154148   5.138180   4.193250   2.866789
    15  H    2.778427   4.059466   4.695903   4.426167   3.270146
    16  H    2.778220   4.059309   4.695887   4.426289   3.270318
    17  H    1.088310   2.052129   3.245301   3.796008   3.377717
    18  H    3.247973   2.058360   1.087067   2.162941   3.393421
    19  H    3.793005   3.376701   2.157209   1.085242   2.159483
    20  H    3.381347   3.886849   3.384719   2.151007   1.084770
                   11         12         13         14         15
    11  H    0.000000
    12  H    1.781421   0.000000
    13  H    3.071401   2.509256   0.000000
    14  H    2.509296   3.071410   1.760991   0.000000
    15  H    3.131034   2.584526   2.517260   3.069907   0.000000
    16  H    2.584472   3.130955   3.069913   2.517291   1.753370
    17  H    5.207711   5.207936   4.643042   4.642772   2.702193
    18  H    8.010070   8.010134   6.164697   6.164572   5.751694
    19  H    7.001713   7.001622   4.707147   4.707230   5.354084
    20  H    4.657203   4.657020   2.324379   2.324686   3.575273
                   16         17         18         19         20
    16  H    0.000000
    17  H    2.701792   0.000000
    18  H    5.751677   4.104640   0.000000
    19  H    5.354271   4.880207   2.502906   0.000000
    20  H    3.575558   4.299340   4.298254   2.488798   0.000000
 Stoichiometry    C8H10BrN
 Framework group  C1[X(C8H10BrN)]
 Deg. of freedom    54
 Full point group                 C1      NOp   1
 Largest Abelian subgroup         C1      NOp   1
 Largest concise Abelian subgroup C1      NOp   1
                         Standard orientation:                         
 ---------------------------------------------------------------------
 Center     Atomic      Atomic             Coordinates (Angstroms)
 Number     Number       Type             X           Y           Z
 ---------------------------------------------------------------------
      1         35           0       -3.422187   -0.299486   -0.000081
      2          6           0       -1.889740    0.933697    0.000127
      3          6           0       -0.585818    0.151416    0.000070
      4          6           0        0.621757    1.091797    0.000225
      5          6           0        1.969847    0.394846    0.000095
      6          6           0        3.139569    1.163034   -0.000109
      7          7           0        4.381959    0.666502   -0.000232
      8          6           0        4.498388   -0.667522   -0.000132
      9          6           0        3.406357   -1.532122    0.000083
     10          6           0        2.122410   -0.990808    0.000192
     11          1           0       -2.007342    1.551840   -0.890505
     12          1           0       -2.007391    1.551605    0.890916
     13          1           0       -0.561077   -0.498867    0.880491
     14          1           0       -0.560993   -0.498657   -0.880500
     15          1           0        0.569453    1.750242    0.877018
     16          1           0        0.569443    1.750532   -0.876352
     17          1           0        3.076056    2.249489   -0.000218
     18          1           0        5.515283   -1.051760   -0.000218
     19          1           0        3.554394   -2.607219    0.000164
     20          1           0        1.258406   -1.646723    0.000350
 ---------------------------------------------------------------------
 Rotational constants (GHZ):           3.7892424           0.2650631           0.2488832
 Standard basis: 6-31G(d,p) (6D, 7F)
 There are   215 symmetry adapted cartesian basis functions of A   symmetry.
 There are   215 symmetry adapted basis functions of A   symmetry.
   215 basis functions,   405 primitive gaussians,   215 cartesian basis functions
    50 alpha electrons       50 beta electrons
       nuclear repulsion energy       674.7464496641 Hartrees.
 NAtoms=   20 NActive=   20 NUniq=   20 SFac= 1.00D+00 NAtFMM=   60 NAOKFM=F Big=F
 Integral buffers will be    131072 words long.
 Raffenetti 2 integral format.
 Two-electron integral symmetry is turned on.
 Nuclear repulsion after empirical dispersion term =      674.7095569099 Hartrees.
 One-electron integrals computed using PRISM.
 NBasis=   215 RedAO= T EigKep=  7.26D-04  NBF=   215
 NBsUse=   215 1.00D-06 EigRej= -1.00D+00 NBFU=   215
 Initial guess from the checkpoint file:  "pyrd10_conf-10.chk"
 B after Tr=     0.000000   -0.000000   -0.000000
         Rot=    1.000000   -0.000003    0.000000   -0.000100 Ang=  -0.01 deg.
 ExpMin= 1.43D-01 ExpMax= 5.74D+05 ExpMxC= 5.74D+03 IAcc=3 IRadAn=         5 AccDes= 0.00D+00
 Harris functional with IExCor=  402 and IRadAn=       5 diagonalized for initial guess.
 HarFok:  IExCor=  402 AccDes= 0.00D+00 IRadAn=         5 IDoV= 1 UseB2=F ITyADJ=14
 ICtDFT=  3500011 ScaDFX=  1.000000  1.000000  1.000000  1.000000
 FoFCou: FMM=F IPFlag=           0 FMFlag=      100000 FMFlg1=           0
         NFxFlg=           0 DoJE=T BraDBF=F KetDBF=T FulRan=T
         wScrn=  0.000000 ICntrl=       500 IOpCl=  0 I1Cent=   200000004 NGrid=           0
         NMat0=    1 NMatS0=      1 NMatT0=    0 NMatD0=    1 NMtDS0=    0 NMtDT0=    0
 Petite list used in FoFCou.
 Requested convergence on RMS density matrix=1.00D-08 within 128 cycles.
 Requested convergence on MAX density matrix=1.00D-06.
 Requested convergence on             energy=1.00D-06.
 No special actions if energy rises.
 Integral accuracy reduced to 1.0D-05 until final iterations.
 Initial convergence to 1.0D-05 achieved.  Increase integral accuracy.
 SCF Done:  E(RB3LYP) =  -2937.38375738     A.U. after   11 cycles
            NFock= 11  Conv=0.79D-08     -V/T= 2.0066
 Calling FoFJK, ICntrl=      2127 FMM=F ISym2X=0 I1Cent= 0 IOpClX= 0 NMat=1 NMatS=1 NMatT=0.
 ***** Axes restored to original set *****
 -------------------------------------------------------------------
 Center     Atomic                   Forces (Hartrees/Bohr)
 Number     Number              X              Y              Z
 -------------------------------------------------------------------
      1       35           0.002751951   -0.000608324   -0.002020224
      2        6          -0.002214033   -0.000120647    0.000852823
      3        6           0.001254352    0.001433454    0.001242868
      4        6          -0.002218891   -0.000982345   -0.000234018
      5        6           0.003725708    0.001364499    0.000034904
      6        6          -0.004904589    0.000077191    0.002332508
      7        7           0.003849885    0.000451930   -0.001177508
      8        6          -0.001427104   -0.000489550    0.000025089
      9        6          -0.001091739   -0.000590508   -0.000252471
     10        6          -0.000922361   -0.000851112   -0.000660566
     11        1          -0.000223365   -0.000006034   -0.000150658
     12        1          -0.000143839   -0.000226308    0.000023333
     13        1           0.000078256   -0.000162686   -0.000086662
     14        1           0.000029687   -0.000024822   -0.000196941
     15        1           0.000434173    0.000241798    0.000363416
     16        1           0.000350810    0.000471747    0.000181546
     17        1           0.001753218    0.000810102    0.000228588
     18        1          -0.000465427   -0.000888079   -0.000913417
     19        1          -0.000372953    0.000049125    0.000232448
     20        1          -0.000243738    0.000050570    0.000174943
 -------------------------------------------------------------------
 Cartesian Forces:  Max     0.004904589 RMS     0.001311668

 GradGradGradGradGradGradGradGradGradGradGradGradGradGradGradGradGradGrad
 Berny optimization.
 Using GEDIIS/GDIIS optimizer.
 FormGI is forming the generalized inverse of G from B-inverse, IUseBI=4.
 Internal  Forces:  Max     0.003297268 RMS     0.000853038
 Search for a local minimum.
 Step number   2 out of a maximum of  108
 All quantities printed in internal units (Hartrees-Bohrs-Radians)
 Mixed Optimization -- En-DIIS/RFO-DIIS
 Update second derivatives using D2CorX and points    1    2
 DE= -2.01D-03 DEPred=-2.15D-03 R= 9.34D-01
 TightC=F SS=  1.41D+00  RLast= 1.38D-01 DXNew= 5.0454D-01 4.1302D-01
 Trust test= 9.34D-01 RLast= 1.38D-01 DXMaxT set to 4.13D-01
 ITU=  1  0
 Use linear search instead of GDIIS.
     Eigenvalues ---    0.00230   0.00300   0.00390   0.01361   0.02073
     Eigenvalues ---    0.02091   0.02140   0.02142   0.02143   0.02189
     Eigenvalues ---    0.02233   0.03608   0.03723   0.04804   0.05191
     Eigenvalues ---    0.05505   0.05567   0.08022   0.09636   0.11982
     Eigenvalues ---    0.13041   0.15066   0.15563   0.16000   0.16000
     Eigenvalues ---    0.16000   0.16000   0.16372   0.20471   0.21938
     Eigenvalues ---    0.22000   0.22403   0.23330   0.24395   0.25290
     Eigenvalues ---    0.28520   0.29073   0.29738   0.34452   0.34623
     Eigenvalues ---    0.34640   0.34645   0.34689   0.34700   0.35539
     Eigenvalues ---    0.35910   0.35981   0.36114   0.42073   0.43512
     Eigenvalues ---    0.45598   0.46207   0.51217   0.54606
 RFO step:  Lambda=-2.82989146D-04 EMin= 2.30000001D-03
 Quartic linear search produced a step of -0.05513.
 Iteration  1 RMS(Cart)=  0.01513766 RMS(Int)=  0.00010032
 Iteration  2 RMS(Cart)=  0.00019417 RMS(Int)=  0.00000667
 Iteration  3 RMS(Cart)=  0.00000004 RMS(Int)=  0.00000667
 Variable       Old X    -DE/DX   Delta X   Delta X   Delta X     New X
                                 (Linear)    (Quad)   (Total)
    R1        3.71711   0.00330   0.00233   0.01603   0.01837   3.73548
    R2        2.87349  -0.00031   0.00152  -0.00448  -0.00295   2.87053
    R3        2.06072  -0.00023   0.00006  -0.00076  -0.00070   2.06002
    R4        2.06072  -0.00023   0.00006  -0.00076  -0.00070   2.06002
    R5        2.89230   0.00106   0.00135   0.00046   0.00181   2.89411
    R6        2.06890   0.00001  -0.00035   0.00082   0.00047   2.06938
    R7        2.06890   0.00002  -0.00035   0.00084   0.00049   2.06938
    R8        2.86783   0.00010   0.00112  -0.00225  -0.00112   2.86671
    R9        2.07444   0.00020  -0.00064   0.00200   0.00137   2.07581
   R10        2.07445   0.00020  -0.00063   0.00199   0.00136   2.07581
   R11        2.64451   0.00180   0.00007   0.00359   0.00367   2.64818
   R12        2.63433   0.00257   0.00098   0.00329   0.00427   2.63860
   R13        2.52834  -0.00148   0.00200  -0.00717  -0.00517   2.52316
   R14        2.05661   0.00119  -0.00082   0.00497   0.00415   2.06076
   R15        2.53052   0.00160   0.00176  -0.00125   0.00051   2.53103
   R16        2.63213  -0.00070   0.00026  -0.00206  -0.00180   2.63033
   R17        2.05426   0.00063  -0.00065   0.00314   0.00249   2.05675
   R18        2.63313   0.00134   0.00032   0.00207   0.00240   2.63553
   R19        2.05081  -0.00006  -0.00052   0.00103   0.00051   2.05132
   R20        2.04992  -0.00029  -0.00054   0.00046  -0.00008   2.04984
    A1        1.92360   0.00296  -0.00106   0.01607   0.01500   1.93861
    A2        1.84551  -0.00098   0.00184  -0.00634  -0.00451   1.84101
    A3        1.84551  -0.00098   0.00184  -0.00635  -0.00451   1.84101
    A4        1.96500  -0.00064  -0.00061  -0.00234  -0.00295   1.96205
    A5        1.96498  -0.00064  -0.00061  -0.00233  -0.00294   1.96205
    A6        1.91169   0.00025  -0.00114   0.00093  -0.00020   1.91149
    A7        1.93958   0.00008   0.00163  -0.00302  -0.00139   1.93819
    A8        1.90172  -0.00006  -0.00017  -0.00012  -0.00029   1.90143
    A9        1.90175  -0.00006  -0.00017  -0.00014  -0.00031   1.90144
   A10        1.92520   0.00006  -0.00056   0.00220   0.00164   1.92684
   A11        1.92518   0.00006  -0.00056   0.00220   0.00165   1.92683
   A12        1.86880  -0.00008  -0.00025  -0.00109  -0.00133   1.86746
   A13        2.00281   0.00204   0.00146   0.00740   0.00884   2.01164
   A14        1.90818  -0.00065  -0.00008  -0.00282  -0.00293   1.90525
   A15        1.90817  -0.00065  -0.00008  -0.00281  -0.00291   1.90526
   A16        1.89426  -0.00043  -0.00089   0.00255   0.00166   1.89592
   A17        1.89426  -0.00043  -0.00089   0.00255   0.00166   1.89591
   A18        1.85000  -0.00004   0.00040  -0.00805  -0.00766   1.84234
   A19        2.08335  -0.00074  -0.00029  -0.00231  -0.00260   2.08075
   A20        2.15760   0.00194  -0.00027   0.00775   0.00749   2.16509
   A21        2.04223  -0.00121   0.00056  -0.00544  -0.00489   2.03734
   A22        2.18029  -0.00056  -0.00146   0.00099  -0.00047   2.17982
   A23        2.09349  -0.00131   0.00094  -0.01034  -0.00939   2.08410
   A24        2.00940   0.00187   0.00052   0.00934   0.00986   2.01926
   A25        2.03806   0.00209   0.00103   0.00515   0.00618   2.04425
   A26        2.15342  -0.00095  -0.00058  -0.00300  -0.00357   2.14985
   A27        2.01912   0.00171   0.00056   0.00814   0.00869   2.02781
   A28        2.11064  -0.00076   0.00002  -0.00514  -0.00512   2.10552
   A29        2.07292  -0.00019  -0.00016  -0.00032  -0.00048   2.07245
   A30        2.10364  -0.00036   0.00021  -0.00280  -0.00259   2.10105
   A31        2.10662   0.00054  -0.00005   0.00312   0.00307   2.10969
   A32        2.07944   0.00082   0.00061   0.00261   0.00322   2.08266
   A33        2.11047  -0.00032   0.00055  -0.00274  -0.00219   2.10828
   A34        2.09327  -0.00050  -0.00116   0.00013  -0.00103   2.09224
    D1        3.14159   0.00000   0.00000   0.00002   0.00002  -3.14158
    D2       -1.01672   0.00008   0.00024   0.00075   0.00098  -1.01574
    D3        1.01672  -0.00008  -0.00024  -0.00070  -0.00094   1.01578
    D4        1.08574  -0.00033  -0.00121  -0.00120  -0.00242   1.08332
    D5       -3.07258  -0.00025  -0.00098  -0.00047  -0.00145  -3.07403
    D6       -1.03914  -0.00042  -0.00145  -0.00192  -0.00338  -1.04252
    D7       -1.08575   0.00033   0.00121   0.00124   0.00246  -1.08329
    D8        1.03912   0.00042   0.00145   0.00197   0.00342   1.04255
    D9        3.07256   0.00025   0.00097   0.00052   0.00150   3.07406
   D10       -3.14153   0.00000   0.00000   0.00002   0.00002  -3.14151
   D11        1.00911  -0.00038   0.00020  -0.00636  -0.00616   1.00296
   D12       -1.00901   0.00038  -0.00020   0.00641   0.00620  -1.00280
   D13        1.03053  -0.00001  -0.00049   0.00069   0.00020   1.03073
   D14       -1.10201  -0.00040  -0.00029  -0.00569  -0.00597  -1.10798
   D15       -3.12014   0.00037  -0.00068   0.00709   0.00639  -3.11375
   D16       -1.03038   0.00001   0.00049  -0.00068  -0.00019  -1.03056
   D17        3.12027  -0.00037   0.00069  -0.00706  -0.00636   3.11391
   D18        1.10215   0.00040   0.00029   0.00572   0.00600   1.10815
   D19        3.14132   0.00000  -0.00000  -0.00001  -0.00001   3.14131
   D20       -0.00029   0.00000   0.00000  -0.00000  -0.00000  -0.00029
   D21       -1.00180   0.00025   0.00022   0.00339   0.00362  -0.99818
   D22        2.13977   0.00025   0.00022   0.00339   0.00363   2.14340
   D23        1.00128  -0.00025  -0.00022  -0.00342  -0.00366   0.99762
   D24       -2.14034  -0.00025  -0.00022  -0.00342  -0.00365  -2.14399
   D25        3.14159  -0.00000  -0.00000  -0.00002  -0.00002   3.14157
   D26       -0.00005   0.00000   0.00000   0.00003   0.00003  -0.00002
   D27        0.00001  -0.00000  -0.00001  -0.00002  -0.00003  -0.00001
   D28        3.14156   0.00000   0.00000   0.00002   0.00002   3.14159
   D29       -3.14157   0.00000  -0.00000   0.00001   0.00000  -3.14157
   D30        0.00002   0.00000   0.00000   0.00000   0.00000   0.00002
   D31       -0.00000   0.00000   0.00000   0.00001   0.00001   0.00001
   D32        3.14159   0.00000   0.00000   0.00001   0.00001  -3.14158
   D33       -0.00002   0.00000   0.00001   0.00001   0.00002   0.00000
   D34       -3.14157  -0.00000  -0.00000  -0.00003  -0.00003   3.14159
   D35        0.00001  -0.00000  -0.00000   0.00000   0.00000   0.00001
   D36       -3.14158  -0.00000  -0.00000  -0.00002  -0.00002   3.14159
   D37        0.00001  -0.00000  -0.00000  -0.00001  -0.00001  -0.00001
   D38       -3.14159  -0.00000   0.00000  -0.00002  -0.00002   3.14158
   D39        3.14159   0.00000  -0.00000   0.00001   0.00001  -3.14159
   D40       -0.00000   0.00000   0.00000   0.00000   0.00000  -0.00000
   D41       -0.00001   0.00000   0.00000   0.00000   0.00001  -0.00000
   D42        3.14158   0.00000   0.00000   0.00001   0.00001   3.14159
   D43        3.14158   0.00000   0.00000   0.00001   0.00001  -3.14159
   D44       -0.00001   0.00000  -0.00000   0.00002   0.00002   0.00000
         Item               Value     Threshold  Converged?
 Maximum Force            0.003297     0.000450     NO 
 RMS     Force            0.000853     0.000300     NO 
 Maximum Displacement     0.081413     0.001800     NO 
 RMS     Displacement     0.015290     0.001200     NO 
 Predicted change in Energy=-1.487548D-04
 GradGradGradGradGradGradGradGradGradGradGradGradGradGradGradGradGradGrad

                          Input orientation:                          
 ---------------------------------------------------------------------
 Center     Atomic      Atomic             Coordinates (Angstroms)
 Number     Number       Type             X           Y           Z
 ---------------------------------------------------------------------
      1         35           0        5.613396   -1.782644   -0.730561
      2          6           0        4.420475   -1.091895    0.686222
      3          6           0        3.027761   -1.686175    0.565378
      4          6           0        2.104005   -1.150635    1.663267
      5          6           0        0.684257   -1.684128    1.631900
      6          6           0       -0.231492   -1.249120    2.599356
      7          7           0       -1.504730   -1.643411    2.677857
      8          6           0       -1.930194   -2.520415    1.759305
      9          6           0       -1.113508   -3.023438    0.750640
     10          6           0        0.213191   -2.598086    0.687233
     11          1           0        4.904134   -1.354144    1.627310
     12          1           0        4.422082   -0.008502    0.565362
     13          1           0        2.623685   -1.446757   -0.423850
     14          1           0        3.100256   -2.777154    0.626100
     15          1           0        2.068385   -0.054475    1.601591
     16          1           0        2.542065   -1.376417    2.644980
     17          1           0        0.090053   -0.535186    3.358375
     18          1           0       -2.970284   -2.831327    1.837612
     19          1           0       -1.506039   -3.733193    0.029178
     20          1           0        0.865902   -2.978298   -0.091255
 ---------------------------------------------------------------------
                    Distance matrix (angstroms):
                    1          2          3          4          5
     1  Br   0.000000
     2  C    1.976731   0.000000
     3  C    2.893833   1.519021   0.000000
     4  C    4.294843   2.514777   1.531499   0.000000
     5  C    5.466932   3.899279   2.574779   1.516998   0.000000
     6  C    6.748015   5.032455   3.866628   2.518036   1.401356
     7  N    7.893315   6.275256   5.000787   3.780898   2.426385
     8  C    7.978063   6.597210   5.167469   4.261488   2.747901
     9  C    6.998912   5.861739   4.355767   3.833102   2.408802
    10  C    5.642455   4.468764   2.961120   2.573506   1.396287
    11  H    2.499244   1.090113   2.181449   2.807745   4.232762
    12  H    2.499244   1.090114   2.181448   2.807729   4.232796
    13  H    3.024113   2.141644   1.095067   2.171132   2.836166
    14  H    3.024144   2.141656   1.095070   2.171128   2.836088
    15  H    4.581768   2.728822   2.157912   1.098471   2.138341
    16  H    4.581743   2.728756   2.157914   1.098469   2.138333
    17  H    6.984473   5.118876   4.213756   2.703363   2.157281
    18  H    9.020799   7.679495   6.237507   5.348227   3.835890
    19  H    7.420795   6.521636   5.003313   4.729933   3.400703
    20  H    4.937307   4.098533   2.602764   2.819857   2.162668
                    6          7          8          9         10
     6  C    0.000000
     7  N    1.335201   0.000000
     8  C    2.281987   1.339363   0.000000
     9  C    2.709964   2.402435   1.391910   0.000000
    10  C    2.381946   2.797363   2.397806   1.394660   0.000000
    11  H    5.227864   6.500836   6.934382   6.306117   4.943286
    12  H    5.228003   6.500974   6.934451   6.306102   4.943233
    13  H    4.163036   5.167502   5.163015   4.222791   2.893190
    14  H    4.162833   5.167299   5.162897   4.222793   2.893259
    15  H    2.777076   4.055887   4.700465   4.434333   3.278377
    16  H    2.776852   4.055727   4.700453   4.434458   3.278552
    17  H    1.090506   2.057814   3.252623   3.800031   3.377235
    18  H    3.253400   2.065189   1.088387   2.160100   3.392976
    19  H    3.794852   3.373824   2.155012   1.085514   2.162697
    20  H    3.381377   3.881984   3.384137   2.151485   1.084728
                   11         12         13         14         15
    11  H    0.000000
    12  H    1.780690   0.000000
    13  H    3.068596   2.506261   0.000000
    14  H    2.506263   3.068606   1.760532   0.000000
    15  H    3.119498   2.572114   2.519765   3.070720   0.000000
    16  H    2.572065   3.119369   3.070721   2.519826   1.749446
    17  H    5.180990   5.181196   4.642788   4.642529   2.689084
    18  H    8.014534   8.014614   6.190617   6.190490   5.758021
    19  H    7.021696   7.021640   4.742114   4.742181   5.364882
    20  H    4.679600   4.679449   2.355003   2.355291   3.586145
                   16         17         18         19         20
    16  H    0.000000
    17  H    2.688674   0.000000
    18  H    5.758003   4.117116   0.000000
    19  H    5.365069   4.884497   2.495558   0.000000
    20  H    3.586437   4.297753   4.296330   2.492083   0.000000
 Stoichiometry    C8H10BrN
 Framework group  C1[X(C8H10BrN)]
 Deg. of freedom    54
 Full point group                 C1      NOp   1
 Largest Abelian subgroup         C1      NOp   1
 Largest concise Abelian subgroup C1      NOp   1
                         Standard orientation:                         
 ---------------------------------------------------------------------
 Center     Atomic      Atomic             Coordinates (Angstroms)
 Number     Number       Type             X           Y           Z
 ---------------------------------------------------------------------
      1         35           0       -3.446187   -0.292771   -0.000075
      2          6           0       -1.884178    0.918671    0.000105
      3          6           0       -0.583901    0.133365    0.000066
      4          6           0        0.625893    1.072453    0.000229
      5          6           0        1.978492    0.385606    0.000095
      6          6           0        3.142176    1.166398   -0.000112
      7          7           0        4.386636    0.682577   -0.000219
      8          6           0        4.523886   -0.649735   -0.000122
      9          6           0        3.443074   -1.526809    0.000073
     10          6           0        2.151784   -0.999886    0.000181
     11          1           0       -1.995960    1.537742   -0.890177
     12          1           0       -1.996018    1.537553    0.890513
     13          1           0       -0.561804   -0.517750    0.880255
     14          1           0       -0.561717   -0.517544   -0.880277
     15          1           0        0.568516    1.734264    0.875074
     16          1           0        0.568513    1.734581   -0.874373
     17          1           0        3.057564    2.253617   -0.000191
     18          1           0        5.544649   -1.027397   -0.000217
     19          1           0        3.606853   -2.599896    0.000133
     20          1           0        1.296134   -1.666593    0.000331
 ---------------------------------------------------------------------
 Rotational constants (GHZ):           3.8271668           0.2620796           0.2464075
 Standard basis: 6-31G(d,p) (6D, 7F)
 There are   215 symmetry adapted cartesian basis functions of A   symmetry.
 There are   215 symmetry adapted basis functions of A   symmetry.
   215 basis functions,   405 primitive gaussians,   215 cartesian basis functions
    50 alpha electrons       50 beta electrons
       nuclear repulsion energy       672.8860191048 Hartrees.
 NAtoms=   20 NActive=   20 NUniq=   20 SFac= 1.00D+00 NAtFMM=   60 NAOKFM=F Big=F
 Integral buffers will be    131072 words long.
 Raffenetti 2 integral format.
 Two-electron integral symmetry is turned on.
 Nuclear repulsion after empirical dispersion term =      672.8492160769 Hartrees.
 One-electron integrals computed using PRISM.
 NBasis=   215 RedAO= T EigKep=  7.26D-04  NBF=   215
 NBsUse=   215 1.00D-06 EigRej= -1.00D+00 NBFU=   215
 Initial guess from the checkpoint file:  "pyrd10_conf-10.chk"
 B after Tr=    -0.000000    0.000000    0.000000
         Rot=    1.000000   -0.000002   -0.000000   -0.000475 Ang=  -0.05 deg.
 ExpMin= 1.43D-01 ExpMax= 5.74D+05 ExpMxC= 5.74D+03 IAcc=3 IRadAn=         5 AccDes= 0.00D+00
 Harris functional with IExCor=  402 and IRadAn=       5 diagonalized for initial guess.
 HarFok:  IExCor=  402 AccDes= 0.00D+00 IRadAn=         5 IDoV= 1 UseB2=F ITyADJ=14
 ICtDFT=  3500011 ScaDFX=  1.000000  1.000000  1.000000  1.000000
 FoFCou: FMM=F IPFlag=           0 FMFlag=      100000 FMFlg1=           0
         NFxFlg=           0 DoJE=T BraDBF=F KetDBF=T FulRan=T
         wScrn=  0.000000 ICntrl=       500 IOpCl=  0 I1Cent=   200000004 NGrid=           0
         NMat0=    1 NMatS0=      1 NMatT0=    0 NMatD0=    1 NMtDS0=    0 NMtDT0=    0
 Petite list used in FoFCou.
 Requested convergence on RMS density matrix=1.00D-08 within 128 cycles.
 Requested convergence on MAX density matrix=1.00D-06.
 Requested convergence on             energy=1.00D-06.
 No special actions if energy rises.
 Integral accuracy reduced to 1.0D-05 until final iterations.
 Initial convergence to 1.0D-05 achieved.  Increase integral accuracy.
 SCF Done:  E(RB3LYP) =  -2937.38390654     A.U. after   10 cycles
            NFock= 10  Conv=0.85D-08     -V/T= 2.0066
 Calling FoFJK, ICntrl=      2127 FMM=F ISym2X=0 I1Cent= 0 IOpClX= 0 NMat=1 NMatS=1 NMatT=0.
 ***** Axes restored to original set *****
 -------------------------------------------------------------------
 Center     Atomic                   Forces (Hartrees/Bohr)
 Number     Number              X              Y              Z
 -------------------------------------------------------------------
      1       35          -0.000072629    0.000048533    0.000094438
      2        6          -0.000378304    0.000190986    0.000413052
      3        6           0.000661692   -0.000209107   -0.000562812
      4        6          -0.000746718   -0.000136189    0.000166134
      5        6           0.001237605   -0.000106135   -0.000696663
      6        6          -0.001375583    0.000636677    0.001430943
      7        7           0.000986168    0.000524488    0.000216513
      8        6          -0.000967648   -0.000505417   -0.000199793
      9        6          -0.000085928   -0.000324632   -0.000372023
     10        6           0.000341916    0.000099491   -0.000029976
     11        1           0.000175451   -0.000042568   -0.000081702
     12        1           0.000158821    0.000003766   -0.000118525
     13        1          -0.000217086   -0.000166767    0.000072318
     14        1          -0.000276723    0.000001721   -0.000059530
     15        1          -0.000044158   -0.000110679    0.000039334
     16        1          -0.000095678    0.000033150   -0.000073910
     17        1           0.000228785   -0.000103683   -0.000234651
     18        1           0.000316505    0.000002804   -0.000140694
     19        1           0.000138282    0.000163273    0.000143905
     20        1           0.000015230    0.000000287   -0.000006357
 -------------------------------------------------------------------
 Cartesian Forces:  Max     0.001430943 RMS     0.000440124

 GradGradGradGradGradGradGradGradGradGradGradGradGradGradGradGradGradGrad
 Berny optimization.
 Using GEDIIS/GDIIS optimizer.
 FormGI is forming the generalized inverse of G from B-inverse, IUseBI=4.
 Internal  Forces:  Max     0.001130909 RMS     0.000224764
 Search for a local minimum.
 Step number   3 out of a maximum of  108
 All quantities printed in internal units (Hartrees-Bohrs-Radians)
 Mixed Optimization -- En-DIIS/RFO-DIIS
 Swapping is turned off.
 Update second derivatives using D2CorX and points    1    2    3
 DE= -1.49D-04 DEPred=-1.49D-04 R= 1.00D+00
 TightC=F SS=  1.41D+00  RLast= 4.10D-02 DXNew= 6.9461D-01 1.2297D-01
[...]
   Eigenvalues:    23.3133    30.2686    33.8008
     16  H    Isotropic =    29.1276   Anisotropy =     7.0117
   XX=    30.6633   YX=     1.2335   ZX=    -0.9467
   XY=     1.8340   YY=    29.4578   ZY=    -4.0364
   XZ=     0.7981   YZ=    -5.5875   ZZ=    27.2618
   Eigenvalues:    23.3120    30.2688    33.8021
     17  H    Isotropic =    22.3510   Anisotropy =    10.8648
   XX=    28.7138   YX=     3.0856   ZX=    -0.0015
   XY=     2.8424   YY=    19.6160   ZY=    -0.0003
   XZ=    -0.0017   YZ=    -0.0009   ZZ=    18.7233
   Eigenvalues:    18.7233    18.7356    29.5943
     18  H    Isotropic =    22.4251   Anisotropy =     7.3085
   XX=    23.1741   YX=     3.5956   ZX=    -0.0007
   XY=     2.8158   YY=    24.8051   ZY=    -0.0008
   XZ=    -0.0008   YZ=    -0.0009   ZZ=    19.2961
   Eigenvalues:    19.2961    20.6818    27.2974
     19  H    Isotropic =    23.9695   Anisotropy =     7.4264
   XX=    28.8889   YX=    -0.9899   ZX=    -0.0007
   XY=     0.0188   YY=    21.4313   ZY=    -0.0000
   XZ=    -0.0008   YZ=     0.0001   ZZ=    21.5882
   Eigenvalues:    21.3998    21.5882    28.9204
     20  H    Isotropic =    23.6391   Anisotropy =    12.2152
   XX=    25.7527   YX=    -6.5389   ZX=     0.0003
   XY=    -5.6518   YY=    25.6211   ZY=    -0.0003
   XZ=     0.0003   YZ=     0.0003   ZZ=    19.5435
   Eigenvalues:    19.5435    19.5912    31.7826
 End of Minotr F.D. properties file   721 does not exist.
 End of Minotr F.D. properties file   722 does not exist.
 End of Minotr F.D. properties file   788 does not exist.

 **********************************************************************

            Population analysis using the SCF Density.

 **********************************************************************

 Orbital symmetries:
       Occupied  (A) (A) (A) (A) (A) (A) (A) (A) (A) (A) (A) (A)
                 (A) (A) (A) (A) (A) (A) (A) (A) (A) (A) (A) (A)
                 (A) (A) (A) (A) (A) (A) (A) (A) (A) (A) (A) (A)
                 (A) (A) (A) (A) (A) (A) (A) (A) (A) (A) (A) (A)
                 (A) (A)
       Virtual   (A) (A) (A) (A) (A) (A) (A) (A) (A) (A) (A) (A)
                 (A) (A) (A) (A) (A) (A) (A) (A) (A) (A) (A) (A)
                 (A) (A) (A) (A) (A) (A) (A) (A) (A) (A) (A) (A)
                 (A) (A) (A) (A) (A) (A) (A) (A) (A) (A) (A) (A)
                 (A) (A) (A) (A) (A) (A) (A) (A) (A) (A) (A) (A)
                 (A) (A) (A) (A) (A) (A) (A) (A) (A) (A) (A) (A)
                 (A) (A) (A) (A) (A) (A) (A) (A) (A) (A) (A) (A)
                 (A) (A) (A) (A) (A) (A) (A) (A) (A) (A) (A) (A)
                 (A) (A) (A) (A) (A) (A) (A) (A) (A) (A) (A) (A)
                 (A) (A) (A) (A) (A) (A) (A) (A) (A) (A) (A) (A)
                 (A) (A) (A) (A) (A) (A) (A) (A) (A) (A) (A) (A)
                 (A) (A) (A) (A) (A) (A) (A) (A) (A) (A) (A) (A)
                 (A) (A) (A) (A) (A) (A) (A) (A) (A) (A) (A) (A)
                 (A) (A) (A) (A) (A) (A) (A) (A) (A) (A) (A) (A)
                 (A) (A) (A) (A) (A) (A) (A) (A) (A) (A) (A) (A)
                 (A) (A) (A) (A) (A) (A) (A) (A) (A) (A) (A) (A)
                 (A) (A) (A) (A) (A) (A) (A) (A) (A) (A) (A) (A)
                 (A) (A) (A) (A) (A) (A) (A) (A) (A) (A) (A) (A)
                 (A) (A) (A) (A) (A) (A) (A) (A) (A) (A) (A) (A)
                 (A) (A) (A) (A) (A) (A) (A) (A) (A) (A) (A) (A)
                 (A) (A) (A) (A) (A) (A) (A) (A) (A) (A) (A) (A)
                 (A) (A) (A) (A) (A) (A) (A) (A) (A) (A) (A) (A)
                 (A) (A) (A) (A) (A) (A) (A) (A) (A) (A) (A) (A)
                 (A) (A) (A) (A) (A) (A) (A) (A) (A) (A) (A) (A)
                 (A) (A) (A) (A) (A) (A) (A) (A) (A) (A) (A) (A)
                 (A) (A) (A) (A) (A) (A) (A) (A) (A) (A) (A) (A)
                 (A) (A) (A) (A) (A) (A) (A) (A) (A) (A) (A) (A)
                 (A) (A) (A) (A) (A) (A) (A) (A) (A) (A) (A) (A)
                 (A)
 The electronic state is 1-A.
 Alpha  occ. eigenvalues -- -485.36466 -63.34971 -57.16913 -57.16675 -57.16672
 Alpha  occ. eigenvalues --  -14.75304 -10.60492 -10.57961 -10.57792 -10.56739
 Alpha  occ. eigenvalues --  -10.56483 -10.56331 -10.56121 -10.55565  -9.01611
 Alpha  occ. eigenvalues --   -6.84011  -6.83140  -6.83130  -2.87377  -2.87066
 Alpha  occ. eigenvalues --   -2.87058  -2.86245  -2.86245  -1.05551  -0.94575
 Alpha  occ. eigenvalues --   -0.91225  -0.88105  -0.84274  -0.77219  -0.72723
 Alpha  occ. eigenvalues --   -0.70565  -0.67923  -0.60502  -0.57483  -0.56278
 Alpha  occ. eigenvalues --   -0.53846  -0.50839  -0.50351  -0.48736  -0.47677
 Alpha  occ. eigenvalues --   -0.46870  -0.45455  -0.42669  -0.41954  -0.41179
 Alpha  occ. eigenvalues --   -0.34941  -0.34164  -0.34016  -0.32696  -0.31384
 Alpha virt. eigenvalues --   -0.00105   0.00823   0.02406   0.06006   0.07853
 Alpha virt. eigenvalues --    0.08838   0.09495   0.10358   0.12173   0.13147
 Alpha virt. eigenvalues --    0.14050   0.14553   0.14859   0.15142   0.17884
 Alpha virt. eigenvalues --    0.19116   0.19139   0.20449   0.21359   0.22487
 Alpha virt. eigenvalues --    0.23465   0.23665   0.24923   0.25355   0.26615
 Alpha virt. eigenvalues --    0.27707   0.28341   0.29535   0.29862   0.30233
 Alpha virt. eigenvalues --    0.31000   0.31909   0.32501   0.32582   0.33232
 Alpha virt. eigenvalues --    0.35521   0.36117   0.36813   0.38097   0.38188
 Alpha virt. eigenvalues --    0.39289   0.39785   0.40088   0.42066   0.42370
 Alpha virt. eigenvalues --    0.43572   0.44305   0.44778   0.44861   0.45189
 Alpha virt. eigenvalues --    0.46186   0.48336   0.49025   0.49316   0.49827
 Alpha virt. eigenvalues --    0.50198   0.50655   0.51705   0.52807   0.54654
 Alpha virt. eigenvalues --    0.55256   0.57822   0.58115   0.58805   0.61523
 Alpha virt. eigenvalues --    0.63255   0.64164   0.65338   0.67062   0.67119
 Alpha virt. eigenvalues --    0.67954   0.69185   0.71073   0.71638   0.72673
 Alpha virt. eigenvalues --    0.73749   0.78492   0.78834   0.80605   0.80971
 Alpha virt. eigenvalues --    0.81348   0.84988   0.85024   0.85710   0.86652
 Alpha virt. eigenvalues --    0.89263   0.89474   0.91549   0.94769   0.97428
 Alpha virt. eigenvalues --    0.98144   1.00061   1.01286   1.02011   1.03774
 Alpha virt. eigenvalues --    1.05208   1.07305   1.09713   1.10571   1.13320
 Alpha virt. eigenvalues --    1.13827   1.15913   1.17141   1.19328   1.23068
 Alpha virt. eigenvalues --    1.23439   1.24230   1.25264   1.29615   1.30361
 Alpha virt. eigenvalues --    1.30779   1.31946   1.33439   1.36351   1.37605
 Alpha virt. eigenvalues --    1.38244   1.39609   1.40143   1.42780   1.43499
 Alpha virt. eigenvalues --    1.45150   1.45453   1.47557   1.48419   1.49934
 Alpha virt. eigenvalues --    1.51470   1.54668   1.54709   1.56619   1.57311
 Alpha virt. eigenvalues --    1.57462   1.57796   1.58233   1.58954   1.61476
 Alpha virt. eigenvalues --    1.61758   1.62566   1.62853   1.65338   1.65487
 Alpha virt. eigenvalues --    1.66167   1.67105   1.67407   1.68657   1.69300
 Alpha virt. eigenvalues --    1.72319   1.73470   1.74488   1.75844   1.75953
 Alpha virt. eigenvalues --    1.79519   1.79753   1.81167   1.83693   1.85384
 Alpha virt. eigenvalues --    1.86249   1.87213   1.89215   1.90702   1.96009
 Alpha virt. eigenvalues --    1.97058   1.98014   1.98742   1.99902   2.01041
 Alpha virt. eigenvalues --    2.01093   2.03507   2.08431   2.12964   2.13266
 Alpha virt. eigenvalues --    2.14608   2.14975   2.17052   2.22594   2.23916
 Alpha virt. eigenvalues --    2.26243   2.27477   2.28609   2.30907   2.31717
 Alpha virt. eigenvalues --    2.36055   2.38843   2.41246   2.42393   2.43238
 Alpha virt. eigenvalues --    2.44848   2.48239   2.50474   2.51096   2.51643
 Alpha virt. eigenvalues --    2.53415   2.54693   2.57687   2.58367   2.59621
 Alpha virt. eigenvalues --    2.60568   2.60814   2.62842   2.63289   2.65887
 Alpha virt. eigenvalues --    2.66996   2.67362   2.67726   2.69167   2.72459
 Alpha virt. eigenvalues --    2.73610   2.74248   2.76615   2.77341   2.80176
 Alpha virt. eigenvalues --    2.81263   2.81589   2.83039   2.86177   2.86553
 Alpha virt. eigenvalues --    2.90268   2.91815   2.93840   2.95642   2.97690
 Alpha virt. eigenvalues --    3.00063   3.00179   3.03845   3.04300   3.07413
 Alpha virt. eigenvalues --    3.08127   3.08404   3.09314   3.10803   3.11738
 Alpha virt. eigenvalues --    3.12641   3.16464   3.17046   3.17164   3.19456
 Alpha virt. eigenvalues --    3.19696   3.20109   3.21799   3.22814   3.22902
 Alpha virt. eigenvalues --    3.25387   3.28221   3.29711   3.30695   3.30763
 Alpha virt. eigenvalues --    3.32153   3.32446   3.34098   3.38018   3.38619
 Alpha virt. eigenvalues --    3.39835   3.40129   3.41020   3.43138   3.43907
 Alpha virt. eigenvalues --    3.46406   3.46755   3.47860   3.51631   3.51650
 Alpha virt. eigenvalues --    3.54713   3.56963   3.58470   3.63750   3.64330
 Alpha virt. eigenvalues --    3.69030   3.72139   3.76471   3.77529   3.78306
 Alpha virt. eigenvalues --    3.79845   3.81440   3.83696   3.84505   3.88862
 Alpha virt. eigenvalues --    3.89074   3.94061   3.99071   4.01887   4.02019
 Alpha virt. eigenvalues --    4.04018   4.07104   4.07978   4.08261   4.11753
 Alpha virt. eigenvalues --    4.12616   4.15290   4.15732   4.17076   4.22723
 Alpha virt. eigenvalues --    4.25130   4.28982   4.29402   4.31101   4.35165
 Alpha virt. eigenvalues --    4.36573   4.36985   4.38983   4.45909   4.47181
 Alpha virt. eigenvalues --    4.50547   4.51817   4.53510   4.56096   4.57200
 Alpha virt. eigenvalues --    4.61403   4.62331   4.71278   4.77106   4.80953
 Alpha virt. eigenvalues --    4.83294   4.85822   4.89712   4.91419   5.00331
 Alpha virt. eigenvalues --    5.04714   5.07744   5.15076   5.17190   5.19523
 Alpha virt. eigenvalues --    5.26206   5.33798   5.43337   5.53359   5.57813
 Alpha virt. eigenvalues --    5.72380   5.95272   7.70442  22.34160  22.43509
 Alpha virt. eigenvalues --   22.57237  22.64834  22.72809  22.85309  22.89294
 Alpha virt. eigenvalues --   23.21437  32.51330
          Condensed to atoms (all electrons):
               1          2          3          4          5          6
     1  Br  35.000960   0.263224  -0.042349   0.008151  -0.001044   0.000034
     2  C    0.263224   4.912339   0.240902  -0.021870   0.003213   0.000099
     3  C   -0.042349   0.240902   5.343285   0.139510  -0.009393   0.001235
     4  C    0.008151  -0.021870   0.139510   5.324603   0.252711  -0.037422
     5  C   -0.001044   0.003213  -0.009393   0.252711   5.086007   0.469158
     6  C    0.000034   0.000099   0.001235  -0.037422   0.469158   4.873809
     7  N   -0.000000   0.000016  -0.001036   0.010253  -0.048344   0.517918
     8  C   -0.000000   0.000005   0.000403  -0.003174  -0.039838  -0.109287
     9  C    0.000001   0.000038  -0.004179   0.016155  -0.060962  -0.024314
    10  C   -0.000157   0.001361  -0.006132  -0.103681   0.450838  -0.029850
    11  H   -0.040556   0.435674  -0.051783   0.001241  -0.000723   0.000032
    12  H   -0.040556   0.435659  -0.051777   0.001246  -0.000723   0.000032
    13  H    0.001596  -0.027983   0.422863  -0.042288  -0.000780  -0.000077
    14  H    0.001596  -0.027980   0.422889  -0.042335  -0.000748  -0.000076
    15  H    0.000029  -0.005088  -0.033946   0.416895  -0.041222  -0.007665
    16  H    0.000029  -0.005086  -0.033980   0.417040  -0.041324  -0.007663
    17  H   -0.000001  -0.000034  -0.000601   0.006466  -0.093504   0.445006
    18  H   -0.000000  -0.000000  -0.000016   0.000161  -0.000780   0.006508
    19  H   -0.000001  -0.000000  -0.000054   0.000153   0.011587  -0.001964
    20  H    0.000250   0.000969   0.004294  -0.007917  -0.045326   0.001857
               7          8          9         10         11         12
     1  Br  -0.000000  -0.000000   0.000001  -0.000157  -0.040556  -0.040556
     2  C    0.000016   0.000005   0.000038   0.001361   0.435674   0.435659
     3  C   -0.001036   0.000403  -0.004179  -0.006132  -0.051783  -0.051777
     4  C    0.010253  -0.003174   0.016155  -0.103681   0.001241   0.001246
     5  C   -0.048344  -0.039838  -0.060962   0.450838  -0.000723  -0.000723
     6  C    0.517918  -0.109287  -0.024314  -0.029850   0.000032   0.000032
     7  N    6.422149   0.488962  -0.039870  -0.069622   0.000000   0.000000
     8  C    0.488962   4.826265   0.505360  -0.027789   0.000000   0.000000
     9  C   -0.039870   0.505360   4.969937   0.482047  -0.000000  -0.000000
    10  C   -0.069622  -0.027789   0.482047   5.063078   0.000007   0.000007
    11  H    0.000000   0.000000  -0.000000   0.000007   0.520998  -0.035848
    12  H    0.000000   0.000000  -0.000000   0.000007  -0.035848   0.521005
    13  H   -0.000008  -0.000044  -0.000003  -0.000064   0.006646  -0.006895
    14  H   -0.000008  -0.000044  -0.000007  -0.000070  -0.006895   0.006646
    15  H    0.000174   0.000112  -0.000219   0.004187  -0.000001   0.001796
    16  H    0.000174   0.000112  -0.000216   0.004198   0.001796  -0.000002
    17  H   -0.032503   0.008915  -0.002025   0.006729   0.000004   0.000004
    18  H   -0.033642   0.432260  -0.065108   0.001823   0.000000   0.000000
    19  H    0.007255  -0.029813   0.412520  -0.054405   0.000000   0.000000
    20  H   -0.001891   0.003284  -0.027006   0.426315  -0.000033  -0.000033
              13         14         15         16         17         18
     1  Br   0.001596   0.001596   0.000029   0.000029  -0.000001  -0.000000
     2  C   -0.027983  -0.027980  -0.005088  -0.005086  -0.000034  -0.000000
     3  C    0.422863   0.422889  -0.033946  -0.033980  -0.000601  -0.000016
     4  C   -0.042288  -0.042335   0.416895   0.417040   0.006466   0.000161
     5  C   -0.000780  -0.000748  -0.041222  -0.041324  -0.093504  -0.000780
     6  C   -0.000077  -0.000076  -0.007665  -0.007663   0.445006   0.006508
     7  N   -0.000008  -0.000008   0.000174   0.000174  -0.032503  -0.033642
     8  C   -0.000044  -0.000044   0.000112   0.000112   0.008915   0.432260
     9  C   -0.000003  -0.000007  -0.000219  -0.000216  -0.002025  -0.065108
    10  C   -0.000064  -0.000070   0.004187   0.004198   0.006729   0.001823
    11  H    0.006646  -0.006895  -0.000001   0.001796   0.000004   0.000000
    12  H   -0.006895   0.006646   0.001796  -0.000002   0.000004   0.000000
    13  H    0.516944  -0.034943  -0.006900   0.006667   0.000015   0.000001
    14  H   -0.034943   0.516904   0.006667  -0.006893   0.000015   0.000001
    15  H   -0.006900   0.006667   0.539823  -0.038181   0.000453   0.000000
    16  H    0.006667  -0.006893  -0.038181   0.539795   0.000452   0.000000
    17  H    0.000015   0.000015   0.000453   0.000452   0.516050  -0.000033
    18  H    0.000001   0.000001   0.000000   0.000000  -0.000033   0.514504
    19  H    0.000010   0.000010   0.000016   0.000016   0.000096  -0.000366
    20  H   -0.003698  -0.003694  -0.000016  -0.000017  -0.000204  -0.000235
              19         20
     1  Br  -0.000001   0.000250
     2  C   -0.000000   0.000969
     3  C   -0.000054   0.004294
     4  C    0.000153  -0.007917
     5  C    0.011587  -0.045326
     6  C   -0.001964   0.001857
     7  N    0.007255  -0.001891
     8  C   -0.029813   0.003284
     9  C    0.412520  -0.027006
    10  C   -0.054405   0.426315
    11  H    0.000000  -0.000033
    12  H    0.000000  -0.000033
    13  H    0.000010  -0.003698
    14  H    0.000010  -0.003694
    15  H    0.000016  -0.000016
    16  H    0.000016  -0.000017
    17  H    0.000096  -0.000204
    18  H   -0.000366  -0.000235
    19  H    0.517457  -0.005422
    20  H   -0.005422   0.488510
 Mulliken charges:
               1
     1  Br  -0.151207
     2  C   -0.205457
     3  C   -0.340135
     4  C   -0.335896
     5  C    0.111197
     6  C   -0.097369
     7  N   -0.219977
     8  C   -0.055689
     9  C   -0.162148
    10  C   -0.148821
    11  H    0.169443
    12  H    0.169439
    13  H    0.168941
    14  H    0.168964
    15  H    0.163085
    16  H    0.163086
    17  H    0.144700
    18  H    0.144923
    19  H    0.142906
    20  H    0.170014
 Sum of Mulliken charges =  -0.00000
 Mulliken charges with hydrogens summed into heavy atoms:
               1
     1  Br  -0.151207
     2  C    0.133425
     3  C   -0.002230
     4  C   -0.009725
     5  C    0.111197
     6  C    0.047332
     7  N   -0.219977
     8  C    0.089234
     9  C   -0.019242
    10  C    0.021193
 Electronic spatial extent (au):  <R**2>=           3836.3015
 Charge=              0.0000 electrons
 Dipole moment (field-independent basis, Debye):
    X=             -0.2075    Y=             -0.0142    Z=              0.0006  Tot=              0.2080
 Quadrupole moment (field-independent basis, Debye-Ang):
   XX=            -91.8098   YY=            -67.5264   ZZ=            -74.7778
   XY=             -9.3036   XZ=              0.0006   YZ=              0.0000
 Traceless Quadrupole moment (field-independent basis, Debye-Ang):
   XX=            -13.7718   YY=             10.5116   ZZ=              3.2602
   XY=             -9.3036   XZ=              0.0006   YZ=              0.0000
 Octapole moment (field-independent basis, Debye-Ang**2):
  XXX=           -134.4624  YYY=             -9.5340  ZZZ=             -0.0015  XYY=            -31.4128
  XXY=            -44.1560  XXZ=              0.0032  XZZ=            -44.4593  YZZ=              1.0626
  YYZ=             -0.0003  XYZ=              0.0007
 Hexadecapole moment (field-independent basis, Debye-Ang**3):
 XXXX=          -4356.1674 YYYY=           -417.0672 ZZZZ=           -105.3260 XXXY=           -177.1060
 XXXZ=              0.0263 YYYX=             14.2026 YYYZ=             -0.0047 ZZZX=              0.0065
 ZZZY=              0.0034 XXYY=           -720.3122 XXZZ=           -728.0166 YYZZ=            -93.0429
 XXYZ=              0.0129 YYXZ=              0.0050 ZZXY=             12.3171
 N-N= 6.729542488294D+02 E-N=-8.346678866723D+03  KE= 2.934428170940D+03
 Unable to Open any file for archive entry.
 1\1\GINC-COMPUTE-0-1\SP\RM062X\def2TZVP\C8H10Br1N1\ZTAN64\14-Aug-2024\
 0\\# M062X/def2tzvp int=(grid=ultrafine) nmr=giao guess=read geom=chec
 k\\pyrd10.xyz\\0,1\Br,0,5.6125602278,-1.7825488004,-0.7300475017\C,0,4
 .4187338578,-1.0924379582,0.6863279023\C,0,3.0263828948,-1.6870150266,
 0.5649480279\C,0,2.1032807153,-1.1505792907,1.6636549148\C,0,0.6850563
 456,-1.6831675796,1.632742019\C,0,-0.2317298562,-1.2477941942,2.601146
 0546\N,0,-1.5040065991,-1.6431070603,2.6779269236\C,0,-1.9294527789,-2
 .5207121436,1.7586093589\C,0,-1.1117621871,-3.02323461,0.7501017432\C,
 0,0.2149299737,-2.5971077902,0.6876620836\H,0,4.9038421256,-1.35512049
 58,1.6265495887\H,0,4.421679443,-0.0091732711,0.5643507132\H,0,2.62023
 8699,-1.4485014361,-0.4236492471\H,0,3.0965435912,-2.7781396146,0.6257
 220936\H,0,2.0678623186,-0.0545011652,1.6021597441\H,0,2.5414135945,-1
 .3760875963,2.6452886436\H,0,0.0915535004,-0.533892469,3.3593576645\H,
 0,-2.9689635153,-2.8327313764,1.8352483534\H,0,-1.5032205658,-3.732804
 0153,0.0283792697\H,0,0.868458215,-2.9767441065,-0.0904783498\\Version
 =ES64L-G16RevC.01\State=1-A\HF=-2939.7868113\RMSD=3.503e-09\Dipole=0.0
 751334,0.0016859,-0.0323459\Quadrupole=-5.5246911,5.2341937,0.2904974,
 4.3522937,9.1257479,1.5859307\PG=C01 [X(C8H10Br1N1)]\\@
 The archive entry for this job was punched.


 CHINESE FORTUNE COOKIE OF JAN 1 1967 SAY....
 ALL THINGS ARE DIFFICULT BEFORE THEY ARE EASY.
 WE LEARN SO LITTLE AND FORGET SO MUCH.
 YOU WILL OVERCOME OBSTACLES TO ACHIEVE SUCCESS.
 AH SO.
 Job cpu time:       0 days  0 hours 18 minutes 35.3 seconds.
 Elapsed time:       0 days  0 hours  1 minutes 15.5 seconds.
 File lengths (MBytes):  RWF=     88 Int=      0 D2E=      0 Chk=     15 Scr=      1
 Normal termination of Gaussian 16 at Wed Aug 14 18:52:12 2024.
 
 
-----Kestrel cluster job statistics-----
Time info:

real	6m27.728s
user	100m29.176s
sys	0m12.062s
 
Disk space usage:
15M	/scratch/362944.kestrel.chem.wisc.edu
