 Entering Gaussian System, Link 0=/share/apps/gaussian/g16/g16
 Initial command:
 /share/apps/gaussian/g16/l1.exe "/scratch/362985.kestrel.chem.wisc.edu/Gau-17003.inp" -scrdir="/scratch/362985.kestrel.chem.wisc.edu/"
 Entering Link 1 = /share/apps/gaussian/g16/l1.exe PID=     17004.
  
 Copyright (c) 1988-2019, Gaussian, Inc.  All Rights Reserved.
  
 This is part of the Gaussian(R) 16 program.  It is based on
 the Gaussian(R) 09 system (copyright 2009, Gaussian, Inc.),
 the Gaussian(R) 03 system (copyright 2003, Gaussian, Inc.),
 the Gaussian(R) 98 system (copyright 1998, Gaussian, Inc.),
 the Gaussian(R) 94 system (copyright 1995, Gaussian, Inc.),
 the Gaussian 92(TM) system (copyright 1992, Gaussian, Inc.),
 the Gaussian 90(TM) system (copyright 1990, Gaussian, Inc.),
 the Gaussian 88(TM) system (copyright 1988, Gaussian, Inc.),
 the Gaussian 86(TM) system (copyright 1986, Carnegie Mellon
 University), and the Gaussian 82(TM) system (copyright 1983,
 Carnegie Mellon University). Gaussian is a federally registered
 trademark of Gaussian, Inc.
  
 This software contains proprietary and confidential information,
 including trade secrets, belonging to Gaussian, Inc.
  
 This software is provided under written license and may be
 used, copied, transmitted, or stored only in accord with that
 written license.
  
 The following legend is applicable only to US Government
 contracts under FAR:
  
                    RESTRICTED RIGHTS LEGEND
  
 Use, reproduction and disclosure by the US Government is
 subject to restrictions as set forth in subparagraphs (a)
 and (c) of the Commercial Computer Software - Restricted
 Rights clause in FAR 52.227-19.
  
 Gaussian, Inc.
 340 Quinnipiac St., Bldg. 40, Wallingford CT 06492
  
  
 ---------------------------------------------------------------
 Warning -- This program may not be used in any manner that
 competes with the business of Gaussian, Inc. or will provide
 assistance to any competitor of Gaussian, Inc.  The licensee
 of this program is prohibited from giving any competitor of
 Gaussian, Inc. access to this program.  By using this program,
 the user acknowledges that Gaussian, Inc. is engaged in the
 business of creating and licensing software in the field of
 computational chemistry and represents and warrants to the
 licensee that it is not a competitor of Gaussian, Inc. and that
 it will not use this program in any manner prohibited above.
 ---------------------------------------------------------------
  

 Cite this work as:
 Gaussian 16, Revision C.01,
 M. J. Frisch, G. W. Trucks, H. B. Schlegel, G. E. Scuseria, 
 M. A. Robb, J. R. Cheeseman, G. Scalmani, V. Barone, 
 G. A. Petersson, H. Nakatsuji, X. Li, M. Caricato, A. V. Marenich, 
 J. Bloino, B. G. Janesko, R. Gomperts, B. Mennucci, H. P. Hratchian, 
 J. V. Ortiz, A. F. Izmaylov, J. L. Sonnenberg, D. Williams-Young, 
 F. Ding, F. Lipparini, F. Egidi, J. Goings, B. Peng, A. Petrone, 
 T. Henderson, D. Ranasinghe, V. G. Zakrzewski, J. Gao, N. Rega, 
 G. Zheng, W. Liang, M. Hada, M. Ehara, K. Toyota, R. Fukuda, 
 J. Hasegawa, M. Ishida, T. Nakajima, Y. Honda, O. Kitao, H. Nakai, 
 T. Vreven, K. Throssell, J. A. Montgomery, Jr., J. E. Peralta, 
 F. Ogliaro, M. J. Bearpark, J. J. Heyd, E. N. Brothers, K. N. Kudin, 
 V. N. Staroverov, T. A. Keith, R. Kobayashi, J. Normand, 
 K. Raghavachari, A. P. Rendell, J. C. Burant, S. S. Iyengar, 
 J. Tomasi, M. Cossi, J. M. Millam, M. Klene, C. Adamo, R. Cammi, 
 J. W. Ochterski, R. L. Martin, K. Morokuma, O. Farkas, 
 J. B. Foresman, and D. J. Fox, Gaussian, Inc., Wallingford CT, 2019.
 
 ******************************************
 Gaussian 16:  ES64L-G16RevC.01  3-Jul-2019
                14-Aug-2024 
 ******************************************
 %nprocs=16
 Will use up to   16 processors via shared memory.
 %mem=16GB
 %chk=pyrmd1_conf-1.chk
 ----------------------------------------------------------------------
 # B3LYP/6-31G(d,p) symmetry=loose empiricaldispersion=GD3BJ int=(grid=
 ultrafine) opt freq=noraman
 ----------------------------------------------------------------------
 1/18=20,19=15,26=4,38=1/1,3;
 2/9=110,12=2,17=4,18=3,40=1/2;
 3/5=1,6=6,7=101,11=2,25=1,30=1,71=1,74=-5,75=-5,124=41/1,2,3;
 4//1;
 5/5=2,38=5/2;
 6/7=2,8=2,9=2,10=2,28=1/1;
 7//1,2,3,16;
 1/18=20,19=15,26=4/3(2);
 2/9=110/2;
 99//99;
 2/9=110/2;
 3/5=1,6=6,7=101,11=2,25=1,30=1,71=1,74=-5,75=-5,124=41/1,2,3;
 4/5=5,16=3,69=1/1;
 5/5=2,38=5/2;
 7//1,2,3,16;
 1/18=20,19=15,26=4/3(-5);
 2/9=110/2;
 6/7=2,8=2,9=2,10=2,19=2,28=1/1;
 99/9=1/99;
 ----------
 pyrmd1.xyz
 ----------
 Symbolic Z-matrix:
 Charge =  0 Multiplicity = 1
 N                    -3.9249    2.1845    0.2188 
 C                    -2.7789    1.4355    0.0997 
 N                    -2.9269    0.172    -0.3388 
 C                    -1.7911   -0.5658   -0.4553 
 C                    -2.0379   -1.981    -0.9558 
 C                    -0.5149   -0.0481   -0.1369 
 C                     0.761    -0.831    -0.2524 
 O                     1.8542   -0.1185    0.1103 
 C                     3.1458   -0.7067    0.0615 
 C                     4.1708    0.3308    0.525 
 O                     0.8242   -2.       -0.6354 
 C                    -0.5045    1.286     0.3095 
 N                    -1.6251    2.0414    0.4336 
 H                    -3.8397    3.1313    0.5445 
 H                    -4.7984    1.7517   -0.0254 
 H                    -1.6888   -2.7049   -0.2201 
 H                    -3.0941   -2.178    -1.142 
 H                    -1.4985   -2.1485   -1.8875 
 H                     3.3717   -1.0338   -0.9554 
 H                     3.1819   -1.5881    0.705 
 H                     4.1554    1.2109   -0.1182 
 H                     3.9653    0.6556    1.5452 
 H                     5.1787   -0.0829    0.5021 
 H                     0.4146    1.7876    0.5818 
 

 GradGradGradGradGradGradGradGradGradGradGradGradGradGradGradGradGradGrad
 Berny optimization.
 Initialization pass.
                           ----------------------------
                           !    Initial Parameters    !
                           ! (Angstroms and Degrees)  !
 --------------------------                            --------------------------
 ! Name  Definition              Value          Derivative Info.                !
 --------------------------------------------------------------------------------
 ! R1    R(1,2)                  1.3742         estimate D2E/DX2                !
 ! R2    R(1,14)                 1.0049         estimate D2E/DX2                !
 ! R3    R(1,15)                 1.005          estimate D2E/DX2                !
 ! R4    R(2,3)                  1.3456         estimate D2E/DX2                !
 ! R5    R(2,13)                 1.3453         estimate D2E/DX2                !
 ! R6    R(3,4)                  1.3594         estimate D2E/DX2                !
 ! R7    R(4,5)                  1.5212         estimate D2E/DX2                !
 ! R8    R(4,6)                  1.4135         estimate D2E/DX2                !
 ! R9    R(5,16)                 1.0896         estimate D2E/DX2                !
 ! R10   R(5,17)                 1.0904         estimate D2E/DX2                !
 ! R11   R(5,18)                 1.0895         estimate D2E/DX2                !
 ! R12   R(6,7)                  1.5014         estimate D2E/DX2                !
 ! R13   R(6,12)                 1.4068         estimate D2E/DX2                !
 ! R14   R(7,8)                  1.3544         estimate D2E/DX2                !
 ! R15   R(7,11)                 1.2318         estimate D2E/DX2                !
 ! R16   R(8,9)                  1.4201         estimate D2E/DX2                !
 ! R17   R(9,10)                 1.5303         estimate D2E/DX2                !
 ! R18   R(9,19)                 1.0918         estimate D2E/DX2                !
 ! R19   R(9,20)                 1.0919         estimate D2E/DX2                !
 ! R20   R(10,21)                1.0902         estimate D2E/DX2                !
 ! R21   R(10,22)                1.0902         estimate D2E/DX2                !
 ! R22   R(10,23)                1.0897         estimate D2E/DX2                !
 ! R23   R(12,13)                1.3571         estimate D2E/DX2                !
 ! R24   R(12,24)                1.0819         estimate D2E/DX2                !
 ! A1    A(2,1,14)             118.094          estimate D2E/DX2                !
 ! A2    A(2,1,15)             117.9726         estimate D2E/DX2                !
 ! A3    A(14,1,15)            123.9334         estimate D2E/DX2                !
 ! A4    A(1,2,3)              116.6348         estimate D2E/DX2                !
 ! A5    A(1,2,13)             116.6301         estimate D2E/DX2                !
 ! A6    A(3,2,13)             126.7351         estimate D2E/DX2                !
 ! A7    A(2,3,4)              116.4655         estimate D2E/DX2                !
 ! A8    A(3,4,5)              113.4251         estimate D2E/DX2                !
 ! A9    A(3,4,6)              122.4295         estimate D2E/DX2                !
 ! A10   A(5,4,6)              124.1454         estimate D2E/DX2                !
 ! A11   A(4,5,16)             110.1173         estimate D2E/DX2                !
 ! A12   A(4,5,17)             112.4199         estimate D2E/DX2                !
 ! A13   A(4,5,18)             110.1236         estimate D2E/DX2                !
 ! A14   A(16,5,17)            107.7951         estimate D2E/DX2                !
 ! A15   A(16,5,18)            108.4601         estimate D2E/DX2                !
 ! A16   A(17,5,18)            107.8026         estimate D2E/DX2                !
 ! A17   A(4,6,7)              123.9824         estimate D2E/DX2                !
 ! A18   A(4,6,12)             115.1795         estimate D2E/DX2                !
 ! A19   A(7,6,12)             120.8381         estimate D2E/DX2                !
 ! A20   A(6,7,8)              113.0178         estimate D2E/DX2                !
 ! A21   A(6,7,11)             124.2219         estimate D2E/DX2                !
 ! A22   A(8,7,11)             122.7604         estimate D2E/DX2                !
 ! A23   A(7,8,9)              120.467          estimate D2E/DX2                !
 ! A24   A(8,9,10)             108.5407         estimate D2E/DX2                !
 ! A25   A(8,9,19)             110.1377         estimate D2E/DX2                !
 ! A26   A(8,9,20)             110.1311         estimate D2E/DX2                !
 ! A27   A(10,9,19)            110.2807         estimate D2E/DX2                !
 ! A28   A(10,9,20)            110.2807         estimate D2E/DX2                !
 ! A29   A(19,9,20)            107.4706         estimate D2E/DX2                !
 ! A30   A(9,10,21)            111.0484         estimate D2E/DX2                !
 ! A31   A(9,10,22)            111.0487         estimate D2E/DX2                !
 ! A32   A(9,10,23)            110.8396         estimate D2E/DX2                !
 ! A33   A(21,10,22)           107.9948         estimate D2E/DX2                !
 ! A34   A(21,10,23)           107.8869         estimate D2E/DX2                !
 ! A35   A(22,10,23)           107.8851         estimate D2E/DX2                !
 ! A36   A(6,12,13)            123.4186         estimate D2E/DX2                !
 ! A37   A(6,12,24)            121.7222         estimate D2E/DX2                !
 ! A38   A(13,12,24)           114.8592         estimate D2E/DX2                !
 ! A39   A(2,13,12)            115.7719         estimate D2E/DX2                !
 ! D1    D(14,1,2,3)           179.9972         estimate D2E/DX2                !
 ! D2    D(14,1,2,13)           -0.0025         estimate D2E/DX2                !
 ! D3    D(15,1,2,3)            -0.004          estimate D2E/DX2                !
 ! D4    D(15,1,2,13)          179.9963         estimate D2E/DX2                !
 ! D5    D(1,2,3,4)           -179.9988         estimate D2E/DX2                !
 ! D6    D(13,2,3,4)             0.0009         estimate D2E/DX2                !
 ! D7    D(1,2,13,12)          179.9984         estimate D2E/DX2                !
 ! D8    D(3,2,13,12)           -0.0012         estimate D2E/DX2                !
 ! D9    D(2,3,4,5)           -179.9961         estimate D2E/DX2                !
 ! D10   D(2,3,4,6)             -0.0028         estimate D2E/DX2                !
 ! D11   D(3,4,5,16)          -120.2224         estimate D2E/DX2                !
 ! D12   D(3,4,5,17)            -0.0101         estimate D2E/DX2                !
 ! D13   D(3,4,5,18)           120.2161         estimate D2E/DX2                !
 ! D14   D(6,4,5,16)            59.7844         estimate D2E/DX2                !
 ! D15   D(6,4,5,17)           179.9967         estimate D2E/DX2                !
 ! D16   D(6,4,5,18)           -59.7771         estimate D2E/DX2                !
 ! D17   D(3,4,6,7)            179.9976         estimate D2E/DX2                !
 ! D18   D(3,4,6,12)             0.0049         estimate D2E/DX2                !
 ! D19   D(5,4,6,7)             -0.0098         estimate D2E/DX2                !
 ! D20   D(5,4,6,12)           179.9975         estimate D2E/DX2                !
 ! D21   D(4,6,7,8)           -179.9909         estimate D2E/DX2                !
 ! D22   D(4,6,7,11)             0.0133         estimate D2E/DX2                !
 ! D23   D(12,6,7,8)             0.0014         estimate D2E/DX2                !
 ! D24   D(12,6,7,11)         -179.9944         estimate D2E/DX2                !
 ! D25   D(4,6,12,13)           -0.0054         estimate D2E/DX2                !
 ! D26   D(4,6,12,24)          179.9986         estimate D2E/DX2                !
 ! D27   D(7,6,12,13)         -179.9983         estimate D2E/DX2                !
 ! D28   D(7,6,12,24)            0.0057         estimate D2E/DX2                !
 ! D29   D(6,7,8,9)           -179.9968         estimate D2E/DX2                !
 ! D30   D(11,7,8,9)            -0.0009         estimate D2E/DX2                !
 ! D31   D(7,8,9,10)          -179.996          estimate D2E/DX2                !
 ! D32   D(7,8,9,19)            59.1813         estimate D2E/DX2                !
 ! D33   D(7,8,9,20)           -59.1773         estimate D2E/DX2                !
 ! D34   D(8,9,10,21)          -60.094          estimate D2E/DX2                !
 ! D35   D(8,9,10,22)           60.0902         estimate D2E/DX2                !
 ! D36   D(8,9,10,23)          179.997          estimate D2E/DX2                !
 ! D37   D(19,9,10,21)          60.6403         estimate D2E/DX2                !
 ! D38   D(19,9,10,22)        -179.1754         estimate D2E/DX2                !
 ! D39   D(19,9,10,23)         -59.2686         estimate D2E/DX2                !
 ! D40   D(20,9,10,21)         179.1797         estimate D2E/DX2                !
 ! D41   D(20,9,10,22)         -60.6361         estimate D2E/DX2                !
 ! D42   D(20,9,10,23)          59.2708         estimate D2E/DX2                !
 ! D43   D(6,12,13,2)            0.0036         estimate D2E/DX2                !
 ! D44   D(24,12,13,2)         179.9999         estimate D2E/DX2                !
 --------------------------------------------------------------------------------
 Trust Radius=3.00D-01 FncErr=1.00D-07 GrdErr=1.00D-06 EigMax=2.50D+02 EigMin=1.00D-04
 Number of steps in this run=    117 maximum allowed number of steps=    144.
 GradGradGradGradGradGradGradGradGradGradGradGradGradGradGradGradGradGrad

                          Input orientation:                          
 ---------------------------------------------------------------------
 Center     Atomic      Atomic             Coordinates (Angstroms)
 Number     Number       Type             X           Y           Z
 ---------------------------------------------------------------------
      1          7           0       -3.924900    2.184500    0.218800
      2          6           0       -2.778900    1.435500    0.099700
      3          7           0       -2.926900    0.172000   -0.338800
      4          6           0       -1.791100   -0.565800   -0.455300
      5          6           0       -2.037900   -1.981000   -0.955800
      6          6           0       -0.514900   -0.048100   -0.136900
      7          6           0        0.761000   -0.831000   -0.252400
      8          8           0        1.854200   -0.118500    0.110300
      9          6           0        3.145800   -0.706700    0.061500
     10          6           0        4.170800    0.330800    0.525000
     11          8           0        0.824200   -2.000000   -0.635400
     12          6           0       -0.504500    1.286000    0.309500
     13          7           0       -1.625100    2.041400    0.433600
     14          1           0       -3.839700    3.131300    0.544500
     15          1           0       -4.798400    1.751700   -0.025400
     16          1           0       -1.688800   -2.704900   -0.220100
     17          1           0       -3.094100   -2.178000   -1.142000
     18          1           0       -1.498500   -2.148500   -1.887500
     19          1           0        3.371700   -1.033800   -0.955400
     20          1           0        3.181900   -1.588100    0.705000
     21          1           0        4.155400    1.210900   -0.118200
     22          1           0        3.965300    0.655600    1.545200
     23          1           0        5.178700   -0.082900    0.502100
     24          1           0        0.414600    1.787600    0.581800
 ---------------------------------------------------------------------
                    Distance matrix (angstroms):
                    1          2          3          4          5
     1  N    0.000000
     2  C    1.374228   0.000000
     3  N    2.314536   1.345592   0.000000
     4  C    3.545654   2.299777   1.359398   0.000000
     5  C    4.721424   3.651799   2.409651   1.521250   0.000000
     6  C    4.091348   2.717121   2.430422   1.413534   2.593497
     7  C    5.592220   4.218043   3.822837   2.573852   3.106624
     8  O    6.222024   4.886783   4.810925   3.715938   4.444538
     9  C    7.640588   6.300202   6.148987   4.965875   5.434104
    10  C    8.310856   7.049792   7.151833   6.108120   6.788604
    11  O    6.386991   5.032431   4.344687   2.988170   2.880041
    12  C    3.537607   2.288943   2.743959   2.381055   3.824342
    13  N    2.314238   1.345310   2.405398   2.759564   4.275575
    14  H    1.004873   2.049117   3.220385   4.343375   5.624322
    15  H    1.004964   2.047929   2.469045   3.820926   4.734876
    16  H    5.394350   4.293425   3.134252   2.154422   1.089567
    17  H    4.644719   3.833869   2.489093   2.183702   1.090430
    18  H    5.394331   4.293419   3.134249   2.154472   1.089529
    19  H    8.060805   6.711226   6.442555   5.208035   5.491900
    20  H    8.060739   6.711161   6.442430   5.207890   5.491715
    21  H    8.145718   6.941357   7.161491   6.215397   7.017604
    22  H    8.145682   6.941322   7.161407   6.215300   7.017483
    23  H    9.385995   8.111157   8.153088   7.051803   7.603129
    24  H    4.372706   3.248821   3.824041   3.388094   4.751980
                    6          7          8          9         10
     6  C    0.000000
     7  C    1.501397   0.000000
     8  O    2.383002   1.354361   0.000000
     9  C    3.724761   2.408579   1.420067   0.000000
    10  C    4.747364   3.685223   2.395930   1.530315   0.000000
    11  O    2.419009   1.231765   2.270905   2.747384   4.240152
    12  C    1.406842   2.529607   2.752411   4.166179   4.776743
    13  N    2.433932   3.796676   4.107946   5.518333   6.043754
    14  H    4.650504   6.123831   6.570405   7.985032   8.485947
    15  H    4.647589   6.134232   6.911812   8.316345   9.097717
    16  H    2.905779   3.084488   4.399031   5.238841   6.641202
    17  H    3.492703   4.179425   5.504132   6.522997   7.864588
    18  H    2.905813   3.084590   4.399171   5.238980   6.641389
    19  H    4.092335   2.711290   2.067921   1.091838   2.166167
    20  H    4.092276   2.711194   2.067893   1.091907   2.166218
    21  H    4.837058   3.963498   2.667403   2.174574   1.090192
    22  H    4.837029   3.963443   2.667379   2.174582   1.090199
    23  H    5.729451   4.543677   3.347697   2.171621   1.089741
    24  H    2.179517   2.770009   2.434744   3.735197   4.029210
                   11         12         13         14         15
    11  O    0.000000
    12  C    3.668252   0.000000
    13  N    4.845074   1.357120   0.000000
    14  H    7.033802   3.818889   2.470756   0.000000
    15  H    6.786824   4.332045   3.219385   1.774032   0.000000
    16  H    2.642826   4.196466   4.791528   6.266755   5.437720
    17  H    3.954921   4.562036   4.737490   5.620398   4.426508
    18  H    2.642866   4.196503   4.791534   6.266748   5.437676
    19  H    2.743301   4.691095   6.029443   8.461799   8.681846
    20  H    2.743188   4.691100   6.029443   8.461759   8.681759
    21  H    4.655563   4.680089   5.865867   8.249166   8.970597
    22  H    4.655506   4.680114   5.865890   8.249152   8.970544
    23  H    4.891917   5.848910   7.128046   9.574154  10.158077
    24  H    3.999408   1.081894   2.060765   4.461613   5.248366
                   16         17         18         19         20
    16  H    0.000000
    17  H    1.761361   0.000000
    18  H    1.768055   1.761414   0.000000
    19  H    5.379768   6.568910   5.082343   0.000000
    20  H    5.082005   6.568681   5.379707   1.760739   0.000000
    21  H    7.035520   8.067717   6.810475   2.520668   3.075673
    22  H    6.810146   8.067556   7.035589   3.075619   2.520683
    23  H    7.386407   8.690899   7.386602   2.508738   2.508786
    24  H    5.024927   5.568523   5.024965   4.366660   4.366747
                   21         22         23         24
    21  H    0.000000
    22  H    1.763915   0.000000
    23  H    1.762337   1.762322   0.000000
    24  H    3.849178   3.849290   5.118767   0.000000
 Stoichiometry    C8H11N3O2
 Framework group  C1[X(C8H11N3O2)]
 Deg. of freedom    66
 Full point group                 C1      NOp   1
 Largest Abelian subgroup         C1      NOp   1
 Largest concise Abelian subgroup C1      NOp   1
                         Standard orientation:                         
 ---------------------------------------------------------------------
 Center     Atomic      Atomic             Coordinates (Angstroms)
 Number     Number       Type             X           Y           Z
 ---------------------------------------------------------------------
      1          7           0        4.008685   -1.254295    0.000042
      2          6           0        2.719728   -0.777753    0.000005
      3          7           0        2.571023    0.559597    0.000074
      4          6           0        1.294588    1.027227    0.000063
      5          6           0        1.206900    2.545947    0.000050
      6          6           0        0.172404    0.167703   -0.000075
      7          6           0       -1.250842    0.645785   -0.000041
      8          8           0       -2.149781   -0.367232    0.000002
      9          6           0       -3.543194   -0.093388   -0.000031
     10          6           0       -4.300454   -1.423208    0.000133
     11          8           0       -1.583210    1.831861   -0.000125
     12          6           0        0.471394   -1.207001   -0.000092
     13          7           0        1.737112   -1.696624   -0.000090
     14          1           0        4.145132   -2.249861    0.000035
     15          1           0        4.758591   -0.585273    0.000056
     16          1           0        0.671167    2.890397    0.884076
     17          1           0        2.189260    3.019240    0.000229
     18          1           0        0.671308    2.890488   -0.883979
     19          1           0       -3.810749    0.494373   -0.880407
     20          1           0       -3.810656    0.494564    0.880332
     21          1           0       -4.053392   -2.014589   -0.881767
     22          1           0       -4.053340   -2.014409    0.882148
     23          1           0       -5.377310   -1.256125    0.000167
     24          1           0       -0.306953   -1.958447   -0.000171
 ---------------------------------------------------------------------
 Rotational constants (GHZ):           1.5922591           0.4445821           0.3498068
 Standard basis: 6-31G(d,p) (6D, 7F)
 There are   250 symmetry adapted cartesian basis functions of A   symmetry.
 There are   250 symmetry adapted basis functions of A   symmetry.
   250 basis functions,   441 primitive gaussians,   250 cartesian basis functions
    48 alpha electrons       48 beta electrons
       nuclear repulsion energy       777.1916182878 Hartrees.
 NAtoms=   24 NActive=   24 NUniq=   24 SFac= 1.00D+00 NAtFMM=   60 NAOKFM=F Big=F
 Integral buffers will be    131072 words long.
 Raffenetti 2 integral format.
 Two-electron integral symmetry is turned on.
 Nuclear repulsion after empirical dispersion term =      777.1510752513 Hartrees.
 One-electron integrals computed using PRISM.
 NBasis=   250 RedAO= T EigKep=  9.71D-04  NBF=   250
 NBsUse=   250 1.00D-06 EigRej= -1.00D+00 NBFU=   250
 ExpMin= 1.61D-01 ExpMax= 5.48D+03 ExpMxC= 8.25D+02 IAcc=3 IRadAn=         5 AccDes= 0.00D+00
 Harris functional with IExCor=  402 and IRadAn=       5 diagonalized for initial guess.
 HarFok:  IExCor=  402 AccDes= 0.00D+00 IRadAn=         5 IDoV= 1 UseB2=F ITyADJ=14
 ICtDFT=  3500011 ScaDFX=  1.000000  1.000000  1.000000  1.000000
 FoFCou: FMM=F IPFlag=           0 FMFlag=      100000 FMFlg1=           0
         NFxFlg=           0 DoJE=T BraDBF=F KetDBF=T FulRan=T
         wScrn=  0.000000 ICntrl=       500 IOpCl=  0 I1Cent=   200000004 NGrid=           0
         NMat0=    1 NMatS0=      1 NMatT0=    0 NMatD0=    1 NMtDS0=    0 NMtDT0=    0
 Petite list used in FoFCou.
 Requested convergence on RMS density matrix=1.00D-08 within 128 cycles.
 Requested convergence on MAX density matrix=1.00D-06.
 Requested convergence on             energy=1.00D-06.
 No special actions if energy rises.
 Integral accuracy reduced to 1.0D-05 until final iterations.
 Initial convergence to 1.0D-05 achieved.  Increase integral accuracy.
 SCF Done:  E(RB3LYP) =  -626.270071303     A.U. after   15 cycles
            NFock= 15  Conv=0.36D-08     -V/T= 2.0098

 **********************************************************************

            Population analysis using the SCF Density.

 **********************************************************************

 Orbital symmetries:
       Occupied  (A) (A) (A) (A) (A) (A) (A) (A) (A) (A) (A) (A)
                 (A) (A) (A) (A) (A) (A) (A) (A) (A) (A) (A) (A)
                 (A) (A) (A) (A) (A) (A) (A) (A) (A) (A) (A) (A)
                 (A) (A) (A) (A) (A) (A) (A) (A) (A) (A) (A) (A)
       Virtual   (A) (A) (A) (A) (A) (A) (A) (A) (A) (A) (A) (A)
                 (A) (A) (A) (A) (A) (A) (A) (A) (A) (A) (A) (A)
                 (A) (A) (A) (A) (A) (A) (A) (A) (A) (A) (A) (A)
                 (A) (A) (A) (A) (A) (A) (A) (A) (A) (A) (A) (A)
                 (A) (A) (A) (A) (A) (A) (A) (A) (A) (A) (A) (A)
                 (A) (A) (A) (A) (A) (A) (A) (A) (A) (A) (A) (A)
                 (A) (A) (A) (A) (A) (A) (A) (A) (A) (A) (A) (A)
                 (A) (A) (A) (A) (A) (A) (A) (A) (A) (A) (A) (A)
                 (A) (A) (A) (A) (A) (A) (A) (A) (A) (A) (A) (A)
                 (A) (A) (A) (A) (A) (A) (A) (A) (A) (A) (A) (A)
                 (A) (A) (A) (A) (A) (A) (A) (A) (A) (A) (A) (A)
                 (A) (A) (A) (A) (A) (A) (A) (A) (A) (A) (A) (A)
                 (A) (A) (A) (A) (A) (A) (A) (A) (A) (A) (A) (A)
                 (A) (A) (A) (A) (A) (A) (A) (A) (A) (A) (A) (A)
                 (A) (A) (A) (A) (A) (A) (A) (A) (A) (A) (A) (A)
                 (A) (A) (A) (A) (A) (A) (A) (A) (A) (A) (A) (A)
                 (A) (A) (A) (A) (A) (A) (A) (A) (A) (A)
 The electronic state is 1-A.
 Alpha  occ. eigenvalues --  -19.19122 -19.13063 -14.35667 -14.33061 -14.32946
 Alpha  occ. eigenvalues --  -10.32101 -10.29304 -10.25390 -10.24660 -10.24270
 Alpha  occ. eigenvalues --  -10.20717 -10.18754 -10.17524  -1.09828  -1.00564
 Alpha  occ. eigenvalues --   -0.99536  -0.90209  -0.88255  -0.80008  -0.76969
 Alpha  occ. eigenvalues --   -0.72282  -0.66873  -0.64511  -0.62086  -0.57515
 Alpha  occ. eigenvalues --   -0.54882  -0.52231  -0.51890  -0.49285  -0.48878
 Alpha  occ. eigenvalues --   -0.45906  -0.44541  -0.42737  -0.41633  -0.40522
 Alpha  occ. eigenvalues --   -0.40331  -0.39996  -0.38736  -0.37490  -0.36518
 Alpha  occ. eigenvalues --   -0.34799  -0.32095  -0.31605  -0.29846  -0.29645
 Alpha  occ. eigenvalues --   -0.26793  -0.24701  -0.23343
 Alpha virt. eigenvalues --   -0.03785  -0.03327   0.05387   0.08721   0.09870
 Alpha virt. eigenvalues --    0.12546   0.13701   0.13794   0.14392   0.14734
 Alpha virt. eigenvalues --    0.15496   0.15761   0.17110   0.17366   0.19137
 Alpha virt. eigenvalues --    0.20644   0.20941   0.22581   0.25221   0.25902
 Alpha virt. eigenvalues --    0.26155   0.30305   0.32730   0.33627   0.37137
 Alpha virt. eigenvalues --    0.41038   0.42043   0.46749   0.49946   0.51789
 Alpha virt. eigenvalues --    0.53270   0.53593   0.54630   0.54754   0.55261
 Alpha virt. eigenvalues --    0.56431   0.58670   0.59749   0.60234   0.60699
 Alpha virt. eigenvalues --    0.61367   0.62655   0.63942   0.64739   0.65803
 Alpha virt. eigenvalues --    0.66993   0.67757   0.69062   0.74064   0.75127
 Alpha virt. eigenvalues --    0.75393   0.78079   0.78264   0.79370   0.79670
 Alpha virt. eigenvalues --    0.81952   0.83842   0.85371   0.85832   0.86249
 Alpha virt. eigenvalues --    0.86332   0.88230   0.88922   0.89919   0.90828
 Alpha virt. eigenvalues --    0.92380   0.93767   0.93908   0.95308   0.97059
 Alpha virt. eigenvalues --    0.99175   1.01277   1.03541   1.05247   1.10032
 Alpha virt. eigenvalues --    1.10395   1.10921   1.15297   1.22197   1.23359
 Alpha virt. eigenvalues --    1.24948   1.27096   1.27696   1.29877   1.32783
 Alpha virt. eigenvalues --    1.34252   1.36460   1.37179   1.40961   1.41272
 Alpha virt. eigenvalues --    1.43057   1.43313   1.44410   1.46747   1.50341
 Alpha virt. eigenvalues --    1.50535   1.53894   1.60128   1.63989   1.64857
 Alpha virt. eigenvalues --    1.66833   1.68368   1.71205   1.74373   1.75573
 Alpha virt. eigenvalues --    1.77499   1.79101   1.80239   1.84476   1.85496
 Alpha virt. eigenvalues --    1.85858   1.88020   1.89114   1.92613   1.95925
 Alpha virt. eigenvalues --    1.96866   1.98386   2.00007   2.01520   2.02541
 Alpha virt. eigenvalues --    2.04063   2.04432   2.05656   2.05752   2.06203
 Alpha virt. eigenvalues --    2.07028   2.07502   2.09769   2.10297   2.11911
 Alpha virt. eigenvalues --    2.14821   2.17155   2.18778   2.20108   2.21258
 Alpha virt. eigenvalues --    2.25263   2.28900   2.29992   2.30108   2.33108
 Alpha virt. eigenvalues --    2.33914   2.38634   2.39396   2.43709   2.43713
 Alpha virt. eigenvalues --    2.47133   2.48476   2.49034   2.53483   2.53692
 Alpha virt. eigenvalues --    2.57698   2.59657   2.61773   2.61851   2.61987
 Alpha virt. eigenvalues --    2.64346   2.65162   2.69801   2.70781   2.72104
 Alpha virt. eigenvalues --    2.73554   2.75509   2.76343   2.76747   2.78500
 Alpha virt. eigenvalues --    2.83058   2.85839   2.87944   2.88991   2.89159
 Alpha virt. eigenvalues --    2.91310   2.96328   2.99821   3.01137   3.07946
 Alpha virt. eigenvalues --    3.15328   3.18392   3.21834   3.24311   3.29291
 Alpha virt. eigenvalues --    3.29896   3.38071   3.43226   3.44692   3.46477
 Alpha virt. eigenvalues --    3.48323   3.52180   3.56228   3.60540   4.00958
 Alpha virt. eigenvalues --    4.03018   4.06989   4.14430   4.18579   4.26468
 Alpha virt. eigenvalues --    4.31530   4.39501   4.43759   4.48554   4.56003
 Alpha virt. eigenvalues --    4.58838   4.74403
          Condensed to atoms (all electrons):
               1          2          3          4          5          6
     1  N    6.829419   0.318905  -0.099883   0.001460  -0.000213   0.001824
     2  C    0.318905   4.341279   0.430813  -0.052625   0.005360  -0.026315
     3  N   -0.099883   0.430813   6.923898   0.471700  -0.084306  -0.030240
     4  C    0.001460  -0.052625   0.471700   4.686031   0.386970   0.450278
     5  C   -0.000213   0.005360  -0.084306   0.386970   5.014008  -0.079788
     6  C    0.001824  -0.026315  -0.030240   0.450278  -0.079788   5.202349
     7  C    0.000012   0.001302   0.004566  -0.029475  -0.007690   0.319770
     8  O   -0.000000  -0.000013  -0.000024   0.001021   0.000134  -0.090406
     9  C    0.000000   0.000001   0.000001   0.000000  -0.000007   0.006877
    10  C    0.000000  -0.000000  -0.000000   0.000002  -0.000000  -0.000054
    11  O   -0.000000  -0.000005   0.000020  -0.012048   0.002575  -0.062486
    12  C    0.001945  -0.063895  -0.039606  -0.054433   0.006206   0.401421
    13  N   -0.101834   0.441243  -0.077775  -0.037266  -0.000206  -0.021060
    14  H    0.336225  -0.015967   0.005014  -0.000104   0.000006  -0.000019
    15  H    0.337553  -0.017832   0.007225   0.000312  -0.000059   0.000018
    16  H    0.000003  -0.000181   0.001832  -0.022228   0.371995  -0.002536
    17  H   -0.000039   0.000603   0.003911  -0.024019   0.355626   0.005427
    18  H    0.000003  -0.000181   0.001830  -0.022229   0.372017  -0.002532
    19  H    0.000000  -0.000000  -0.000000   0.000002  -0.000001  -0.000057
    20  H    0.000000  -0.000000  -0.000000   0.000002  -0.000001  -0.000057
    21  H   -0.000000  -0.000000  -0.000000  -0.000000   0.000000  -0.000032
    22  H   -0.000000   0.000000  -0.000000  -0.000000   0.000000  -0.000032
    23  H    0.000000   0.000000   0.000000  -0.000000  -0.000000   0.000004
    24  H   -0.000151   0.004300  -0.000226   0.003495  -0.000124  -0.055889
               7          8          9         10         11         12
     1  N    0.000012  -0.000000   0.000000   0.000000  -0.000000   0.001945
     2  C    0.001302  -0.000013   0.000001  -0.000000  -0.000005  -0.063895
     3  N    0.004566  -0.000024   0.000001  -0.000000   0.000020  -0.039606
     4  C   -0.029475   0.001021   0.000000   0.000002  -0.012048  -0.054433
     5  C   -0.007690   0.000134  -0.000007  -0.000000   0.002575   0.006206
     6  C    0.319770  -0.090406   0.006877  -0.000054  -0.062486   0.401421
     7  C    4.404461   0.263768  -0.014776   0.003719   0.505613  -0.041515
     8  O    0.263768   8.278812   0.203501  -0.043863  -0.080813   0.004337
     9  C   -0.014776   0.203501   4.684941   0.373934   0.003743  -0.000526
    10  C    0.003719  -0.043863   0.373934   4.952413   0.000584  -0.000095
    11  O    0.505613  -0.080813   0.003743   0.000584   8.128325   0.003830
    12  C   -0.041515   0.004337  -0.000526  -0.000095   0.003830   4.851096
    13  N    0.003513   0.000243  -0.000002   0.000000  -0.000029   0.444451
    14  H   -0.000001   0.000000  -0.000000  -0.000000   0.000000   0.000269
    15  H   -0.000001   0.000000  -0.000000   0.000000   0.000000  -0.000153
    16  H    0.001406   0.000003   0.000001   0.000000   0.002974  -0.000080
    17  H    0.000159   0.000002  -0.000000  -0.000000   0.000586  -0.000114
    18  H    0.001403   0.000003   0.000001   0.000000   0.002975  -0.000080
    19  H   -0.003260  -0.034816   0.384387  -0.041276   0.005253   0.000045
    20  H   -0.003262  -0.034822   0.384384  -0.041271   0.005254   0.000045
    21  H    0.000021   0.001124  -0.029835   0.382552  -0.000006  -0.000006
    22  H    0.000021   0.001124  -0.029835   0.382554  -0.000006  -0.000006
    23  H   -0.000031   0.002759  -0.028348   0.374695   0.000012   0.000001
    24  H   -0.004536   0.010823  -0.000499   0.000095   0.000092   0.386374
              13         14         15         16         17         18
     1  N   -0.101834   0.336225   0.337553   0.000003  -0.000039   0.000003
     2  C    0.441243  -0.015967  -0.017832  -0.000181   0.000603  -0.000181
     3  N   -0.077775   0.005014   0.007225   0.001832   0.003911   0.001830
     4  C   -0.037266  -0.000104   0.000312  -0.022228  -0.024019  -0.022229
     5  C   -0.000206   0.000006  -0.000059   0.371995   0.355626   0.372017
     6  C   -0.021060  -0.000019   0.000018  -0.002536   0.005427  -0.002532
     7  C    0.003513  -0.000001  -0.000001   0.001406   0.000159   0.001403
     8  O    0.000243   0.000000   0.000000   0.000003   0.000002   0.000003
     9  C   -0.000002  -0.000000  -0.000000   0.000001  -0.000000   0.000001
    10  C    0.000000  -0.000000   0.000000   0.000000  -0.000000   0.000000
    11  O   -0.000029   0.000000   0.000000   0.002974   0.000586   0.002975
    12  C    0.444451   0.000269  -0.000153  -0.000080  -0.000114  -0.000080
    13  N    6.875072   0.007084   0.005106   0.000018   0.000038   0.000018
    14  H    0.007084   0.405543  -0.022172  -0.000000   0.000000  -0.000000
    15  H    0.005106  -0.022172   0.405912   0.000001   0.000035   0.000001
    16  H    0.000018  -0.000000   0.000001   0.561599  -0.028809  -0.024305
    17  H    0.000038   0.000000   0.000035  -0.028809   0.597596  -0.028803
    18  H    0.000018  -0.000000   0.000001  -0.024305  -0.028803   0.561557
    19  H    0.000000   0.000000  -0.000000  -0.000001  -0.000000   0.000002
    20  H    0.000000   0.000000  -0.000000   0.000002  -0.000000  -0.000001
    21  H    0.000000   0.000000   0.000000  -0.000000   0.000000  -0.000000
    22  H    0.000000   0.000000   0.000000  -0.000000   0.000000  -0.000000
    23  H    0.000000  -0.000000  -0.000000  -0.000000  -0.000000  -0.000000
    24  H   -0.047241  -0.000031   0.000005   0.000001   0.000002   0.000001
              19         20         21         22         23         24
     1  N    0.000000   0.000000  -0.000000  -0.000000   0.000000  -0.000151
     2  C   -0.000000  -0.000000  -0.000000   0.000000   0.000000   0.004300
     3  N   -0.000000  -0.000000  -0.000000  -0.000000   0.000000  -0.000226
     4  C    0.000002   0.000002  -0.000000  -0.000000  -0.000000   0.003495
     5  C   -0.000001  -0.000001   0.000000   0.000000  -0.000000  -0.000124
     6  C   -0.000057  -0.000057  -0.000032  -0.000032   0.000004  -0.055889
     7  C   -0.003260  -0.003262   0.000021   0.000021  -0.000031  -0.004536
     8  O   -0.034816  -0.034822   0.001124   0.001124   0.002759   0.010823
     9  C    0.384387   0.384384  -0.029835  -0.029835  -0.028348  -0.000499
    10  C   -0.041276  -0.041271   0.382552   0.382554   0.374695   0.000095
    11  O    0.005253   0.005254  -0.000006  -0.000006   0.000012   0.000092
    12  C    0.000045   0.000045  -0.000006  -0.000006   0.000001   0.386374
    13  N    0.000000   0.000000   0.000000   0.000000   0.000000  -0.047241
    14  H    0.000000   0.000000   0.000000   0.000000  -0.000000  -0.000031
    15  H   -0.000000  -0.000000   0.000000   0.000000  -0.000000   0.000005
    16  H   -0.000001   0.000002  -0.000000  -0.000000  -0.000000   0.000001
    17  H   -0.000000  -0.000000   0.000000   0.000000  -0.000000   0.000002
    18  H    0.000002  -0.000001  -0.000000  -0.000000  -0.000000   0.000001
    19  H    0.619910  -0.046915  -0.006274   0.005326  -0.000207   0.000039
    20  H   -0.046915   0.619930   0.005326  -0.006274  -0.000207   0.000039
    21  H   -0.006274   0.005326   0.585933  -0.032227  -0.028524   0.000118
    22  H    0.005326  -0.006274  -0.032227   0.585932  -0.028526   0.000118
    23  H   -0.000207  -0.000207  -0.028524  -0.028526   0.594330   0.000000
    24  H    0.000039   0.000039   0.000118   0.000118   0.000000   0.575271
 Mulliken charges:
               1
     1  N   -0.625229
     2  C    0.633209
     3  N   -0.518747
     4  C    0.253154
     5  C   -0.342502
     6  C   -0.016468
     7  C    0.594814
     8  O   -0.482896
     9  C    0.062058
    10  C   -0.343987
    11  O   -0.506444
    12  C    0.100489
    13  N   -0.491374
    14  H    0.284152
    15  H    0.284049
    16  H    0.138306
    17  H    0.117798
    18  H    0.138321
    19  H    0.117842
    20  H    0.117829
    21  H    0.121830
    22  H    0.121831
    23  H    0.114042
    24  H    0.127923
 Sum of Mulliken charges =  -0.00000
 Mulliken charges with hydrogens summed into heavy atoms:
               1
     1  N   -0.057028
     2  C    0.633209
     3  N   -0.518747
     4  C    0.253154
     5  C    0.051923
     6  C   -0.016468
     7  C    0.594814
     8  O   -0.482896
     9  C    0.297729
    10  C    0.013716
    11  O   -0.506444
    12  C    0.228412
    13  N   -0.491374
 Electronic spatial extent (au):  <R**2>=           3074.3829
 Charge=             -0.0000 electrons
 Dipole moment (field-independent basis, Debye):
    X=              0.3215    Y=             -1.7141    Z=              0.0001  Tot=              1.7439
 Quadrupole moment (field-independent basis, Debye-Ang):
   XX=            -55.5554   YY=            -78.2813   ZZ=            -75.3247
   XY=              0.7791   XZ=              0.0002   YZ=              0.0002
 Traceless Quadrupole moment (field-independent basis, Debye-Ang):
   XX=             14.1651   YY=             -8.5608   ZZ=             -5.6042
   XY=              0.7791   XZ=              0.0002   YZ=              0.0002
 Octapole moment (field-independent basis, Debye-Ang**2):
  XXX=             29.5237  YYY=             -4.2313  ZZZ=             -0.0005  XYY=             14.8315
  XXY=            -37.3878  XXZ=              0.0002  XZZ=             -7.8492  YZZ=              3.1088
  YYZ=              0.0011  XYZ=             -0.0014
 Hexadecapole moment (field-independent basis, Debye-Ang**3):
 XXXX=          -2353.2329 YYYY=           -900.8041 ZZZZ=            -89.4219 XXXY=           -134.5927
 XXXZ=              0.0063 YYYX=             -9.8119 YYYZ=             -0.0009 ZZZX=              0.0009
 ZZZY=             -0.0019 XXYY=           -612.3563 XXZZ=           -526.8433 YYZZ=           -162.7573
 XXYZ=             -0.0019 YYXZ=              0.0024 ZZXY=             -2.5668
 N-N= 7.771510752513D+02 E-N=-3.013522584958D+03  KE= 6.202112606422D+02
 Calling FoFJK, ICntrl=      2127 FMM=F ISym2X=0 I1Cent= 0 IOpClX= 0 NMat=1 NMatS=1 NMatT=0.
 ***** Axes restored to original set *****
 -------------------------------------------------------------------
 Center     Atomic                   Forces (Hartrees/Bohr)
 Number     Number              X              Y              Z
 -------------------------------------------------------------------
      1        7           0.019155818   -0.012885747   -0.002113473
      2        6          -0.011487240    0.007615940    0.001231795
      3        7           0.021452480   -0.008514998   -0.000388804
      4        6          -0.028391462   -0.007392933   -0.005731367
      5        6           0.003248162    0.005551007    0.002263870
      6        6           0.011575206    0.006440075    0.003488066
      7        6          -0.006193105   -0.022753775   -0.008315622
      8        8          -0.015071921    0.014816528    0.003218558
      9        6           0.014668398   -0.004402247    0.000256277
     10        6          -0.007740219   -0.000544708   -0.001060862
     11        8           0.001138833    0.021277344    0.007236624
     12        6          -0.027573287    0.011206580    0.000583816
     13        7           0.023911638   -0.009795542   -0.000535085
     14        1          -0.003091279    0.000420708   -0.000213925
     15        1          -0.001623255    0.002801327    0.000750540
     16        1           0.005008732   -0.002129991   -0.000984554
     17        1          -0.001832357    0.007768984    0.002376006
     18        1           0.004843997   -0.002628699    0.000498874
     19        1          -0.002138089   -0.001467054   -0.002520296
     20        1          -0.002491897   -0.002494143    0.000628203
     21        1          -0.000791697    0.001720524   -0.001841348
     22        1          -0.001265670    0.000339179    0.002289642
     23        1           0.001372862   -0.003324114   -0.000954768
     24        1           0.003315350   -0.001624249   -0.000162167
 -------------------------------------------------------------------
 Cartesian Forces:  Max     0.028391462 RMS     0.009164449

 GradGradGradGradGradGradGradGradGradGradGradGradGradGradGradGradGradGrad
 Berny optimization.
 FormGI is forming the generalized inverse of G from B-inverse, IUseBI=4.
 Internal  Forces:  Max     0.028575545 RMS     0.006177003
 Search for a local minimum.
 Step number   1 out of a maximum of  117
 All quantities printed in internal units (Hartrees-Bohrs-Radians)
 Mixed Optimization -- RFO/linear search
 Second derivative matrix not updated -- first step.
 ITU=  0
     Eigenvalues ---    0.00365   0.00485   0.00747   0.01252   0.01336
     Eigenvalues ---    0.01426   0.01554   0.01975   0.02033   0.02033
     Eigenvalues ---    0.02076   0.02201   0.02244   0.02295   0.02389
     Eigenvalues ---    0.05224   0.05512   0.05541   0.05837   0.06970
     Eigenvalues ---    0.07220   0.11237   0.13691   0.16000   0.16000
     Eigenvalues ---    0.16000   0.16000   0.16000   0.16000   0.16000
     Eigenvalues ---    0.16000   0.16000   0.21965   0.23293   0.25000
     Eigenvalues ---    0.25000   0.25000   0.25000   0.25000   0.25000
     Eigenvalues ---    0.25000   0.25000   0.29394   0.30246   0.32231
     Eigenvalues ---    0.34593   0.34601   0.34763   0.34790   0.34790
     Eigenvalues ---    0.34843   0.34863   0.34867   0.35766   0.41824
     Eigenvalues ---    0.42450   0.43281   0.46826   0.46842   0.50173
     Eigenvalues ---    0.50341   0.53312   0.53521   0.54104   0.55720
     Eigenvalues ---    0.90355
 RFO step:  Lambda=-1.11250632D-02 EMin= 3.64940351D-03
 Linear search not attempted -- first point.
 Iteration  1 RMS(Cart)=  0.06393448 RMS(Int)=  0.00071591
 Iteration  2 RMS(Cart)=  0.00140824 RMS(Int)=  0.00009591
 Iteration  3 RMS(Cart)=  0.00000042 RMS(Int)=  0.00009591
 Variable       Old X    -DE/DX   Delta X   Delta X   Delta X     New X
                                 (Linear)    (Quad)   (Total)
    R1        2.59691  -0.01745   0.00000  -0.03402  -0.03402   2.56290
    R2        1.89893   0.00007   0.00000   0.00014   0.00014   1.89907
    R3        1.89911   0.00002   0.00000   0.00004   0.00004   1.89915
    R4        2.54280   0.00269   0.00000   0.00543   0.00539   2.54819
    R5        2.54227   0.00145   0.00000   0.00292   0.00288   2.54515
    R6        2.56889  -0.02292   0.00000  -0.04189  -0.04189   2.52700
    R7        2.87475  -0.01116   0.00000  -0.03559  -0.03559   2.83916
    R8        2.67119  -0.00363   0.00000  -0.00855  -0.00851   2.66268
    R9        2.05898   0.00235   0.00000   0.00655   0.00655   2.06553
   R10        2.06061  -0.00003   0.00000  -0.00010  -0.00010   2.06052
   R11        2.05891   0.00238   0.00000   0.00660   0.00660   2.06551
   R12        2.83723  -0.01730   0.00000  -0.05188  -0.05188   2.78535
   R13        2.65855  -0.00476   0.00000  -0.01135  -0.01131   2.64723
   R14        2.55937  -0.00842   0.00000  -0.01525  -0.01525   2.54412
   R15        2.32770  -0.02238   0.00000  -0.02447  -0.02447   2.30323
   R16        2.68354   0.00579   0.00000   0.01330   0.01330   2.69684
   R17        2.89188  -0.00735   0.00000  -0.02408  -0.02408   2.86780
   R18        2.06328   0.00234   0.00000   0.00657   0.00657   2.06984
   R19        2.06341   0.00230   0.00000   0.00645   0.00645   2.06985
   R20        2.06017   0.00249   0.00000   0.00692   0.00692   2.06709
   R21        2.06018   0.00248   0.00000   0.00691   0.00691   2.06709
   R22        2.05931   0.00255   0.00000   0.00710   0.00710   2.06641
   R23        2.56458  -0.02858   0.00000  -0.05270  -0.05270   2.51188
   R24        2.04448   0.00202   0.00000   0.00549   0.00549   2.04997
    A1        2.06113   0.00185   0.00000   0.01083   0.01083   2.07196
    A2        2.05901   0.00223   0.00000   0.01303   0.01303   2.07204
    A3        2.16305  -0.00408   0.00000  -0.02386  -0.02386   2.13919
    A4        2.03566  -0.00180   0.00000  -0.00786  -0.00783   2.02783
    A5        2.03558  -0.00167   0.00000  -0.00735  -0.00732   2.02826
    A6        2.21194   0.00347   0.00000   0.01521   0.01515   2.22709
    A7        2.03271   0.00091   0.00000   0.00675   0.00671   2.03941
    A8        1.97964   0.01156   0.00000   0.04434   0.04431   2.02396
    A9        2.13680  -0.00802   0.00000  -0.03081  -0.03076   2.10603
   A10        2.16675  -0.00355   0.00000  -0.01353  -0.01355   2.15320
   A11        1.92191   0.00241   0.00000   0.01215   0.01224   1.93415
   A12        1.96210  -0.01145   0.00000  -0.06290  -0.06274   1.89936
   A13        1.92202   0.00240   0.00000   0.01205   0.01214   1.93416
   A14        1.88138   0.00546   0.00000   0.03577   0.03593   1.91731
   A15        1.89299  -0.00405   0.00000  -0.03158  -0.03156   1.86143
   A16        1.88151   0.00546   0.00000   0.03568   0.03584   1.91735
   A17        2.16390  -0.00736   0.00000  -0.02688  -0.02692   2.13698
   A18        2.01026   0.00766   0.00000   0.02670   0.02678   2.03704
   A19        2.10902  -0.00030   0.00000   0.00018   0.00014   2.10916
   A20        1.97253  -0.00748   0.00000  -0.02864  -0.02864   1.94390
   A21        2.16808   0.00642   0.00000   0.02459   0.02459   2.19267
   A22        2.14257   0.00106   0.00000   0.00405   0.00405   2.14662
   A23        2.10255  -0.02084   0.00000  -0.07983  -0.07983   2.02272
   A24        1.89439  -0.00456   0.00000  -0.02208  -0.02195   1.87244
   A25        1.92227  -0.00030   0.00000  -0.01179  -0.01163   1.91064
   A26        1.92215  -0.00028   0.00000  -0.01167  -0.01151   1.91064
   A27        1.92476   0.00335   0.00000   0.02333   0.02304   1.94780
   A28        1.92476   0.00335   0.00000   0.02332   0.02303   1.94779
   A29        1.87572  -0.00146   0.00000  -0.00067  -0.00125   1.87447
   A30        1.93816  -0.00040   0.00000  -0.00173  -0.00176   1.93640
   A31        1.93817  -0.00040   0.00000  -0.00174  -0.00177   1.93640
   A32        1.93452  -0.00355   0.00000  -0.02196  -0.02202   1.91249
   A33        1.88486   0.00074   0.00000   0.00658   0.00658   1.89144
   A34        1.88298   0.00192   0.00000   0.01009   0.01003   1.89301
   A35        1.88295   0.00192   0.00000   0.01011   0.01005   1.89300
   A36        2.15406   0.00203   0.00000   0.00584   0.00587   2.15994
   A37        2.12445  -0.00418   0.00000  -0.02140  -0.02141   2.10304
   A38        2.00467   0.00215   0.00000   0.01556   0.01554   2.02021
   A39        2.02060  -0.00605   0.00000  -0.02370  -0.02375   1.99685
    D1        3.14154   0.00000   0.00000   0.00004   0.00004   3.14159
    D2       -0.00004   0.00000   0.00000   0.00002   0.00002  -0.00002
    D3       -0.00007   0.00000   0.00000   0.00004   0.00004  -0.00003
    D4        3.14153   0.00000   0.00000   0.00002   0.00002   3.14154
    D5       -3.14157  -0.00000   0.00000  -0.00002  -0.00002   3.14159
    D6        0.00002   0.00000   0.00000  -0.00000  -0.00000   0.00001
    D7        3.14157   0.00000   0.00000   0.00002   0.00002   3.14158
    D8       -0.00002  -0.00000   0.00000  -0.00000  -0.00000  -0.00002
    D9       -3.14153  -0.00000   0.00000  -0.00008  -0.00008   3.14158
   D10       -0.00005   0.00000   0.00000   0.00005   0.00005  -0.00000
   D11       -2.09828  -0.00099   0.00000  -0.01187  -0.01181  -2.11009
   D12       -0.00018   0.00001   0.00000   0.00015   0.00015  -0.00003
   D13        2.09817   0.00099   0.00000   0.01198   0.01193   2.11009
   D14        1.04344  -0.00100   0.00000  -0.01200  -0.01194   1.03149
   D15        3.14154   0.00000   0.00000   0.00002   0.00002   3.14155
   D16       -1.04331   0.00099   0.00000   0.01185   0.01179  -1.03151
   D17        3.14155  -0.00000   0.00000  -0.00002  -0.00002   3.14154
   D18        0.00009  -0.00000   0.00000  -0.00008  -0.00008   0.00000
   D19       -0.00017   0.00000   0.00000   0.00013   0.00013  -0.00004
   D20        3.14155   0.00000   0.00000   0.00006   0.00006  -3.14158
   D21       -3.14143   0.00000   0.00000   0.00004   0.00004  -3.14140
   D22        0.00023  -0.00000   0.00000  -0.00015  -0.00015   0.00008
   D23        0.00002   0.00000   0.00000   0.00011   0.00011   0.00013
   D24       -3.14150  -0.00000   0.00000  -0.00008  -0.00008  -3.14157
   D25       -0.00009   0.00000   0.00000   0.00008   0.00008  -0.00002
   D26        3.14157  -0.00000   0.00000   0.00001   0.00001   3.14158
   D27       -3.14156   0.00000   0.00000   0.00002   0.00001  -3.14155
   D28        0.00010  -0.00000   0.00000  -0.00005  -0.00006   0.00004
   D29       -3.14154  -0.00000   0.00000  -0.00010  -0.00010   3.14155
   D30       -0.00002   0.00000   0.00000   0.00008   0.00008   0.00006
   D31       -3.14152  -0.00000   0.00000  -0.00003  -0.00003  -3.14155
   D32        1.03291  -0.00108   0.00000  -0.00762  -0.00768   1.02523
   D33       -1.03284   0.00108   0.00000   0.00762   0.00768  -1.02516
   D34       -1.04884  -0.00020   0.00000  -0.00295  -0.00293  -1.05177
   D35        1.04877   0.00020   0.00000   0.00304   0.00302   1.05179
   D36        3.14154   0.00000   0.00000   0.00006   0.00006  -3.14159
   D37        1.05837  -0.00138   0.00000  -0.01710  -0.01729   1.04108
   D38       -3.12720  -0.00099   0.00000  -0.01112  -0.01134  -3.13854
   D39       -1.03443  -0.00118   0.00000  -0.01410  -0.01430  -1.04874
   D40        3.12728   0.00098   0.00000   0.01107   0.01129   3.13856
   D41       -1.05830   0.00138   0.00000   0.01705   0.01724  -1.04106
   D42        1.03447   0.00118   0.00000   0.01407   0.01428   1.04875
   D43        0.00006  -0.00000   0.00000  -0.00004  -0.00004   0.00002
   D44        3.14159   0.00000   0.00000   0.00002   0.00003  -3.14157
         Item               Value     Threshold  Converged?
 Maximum Force            0.028576     0.000450     NO 
 RMS     Force            0.006177     0.000300     NO 
 Maximum Displacement     0.235690     0.001800     NO 
 RMS     Displacement     0.064796     0.001200     NO 
 Predicted change in Energy=-5.782530D-03
 GradGradGradGradGradGradGradGradGradGradGradGradGradGradGradGradGradGrad

                          Input orientation:                          
 ---------------------------------------------------------------------
 Center     Atomic      Atomic             Coordinates (Angstroms)
 Number     Number       Type             X           Y           Z
 ---------------------------------------------------------------------
      1          7           0       -3.883353    2.152592    0.212951
      2          6           0       -2.743884    1.425746    0.100459
      3          7           0       -2.887105    0.158865   -0.338635
      4          6           0       -1.771905   -0.569887   -0.454536
      5          6           0       -1.954420   -1.978124   -0.945263
      6          6           0       -0.516616   -0.019648   -0.127663
      7          6           0        0.736684   -0.787099   -0.240642
      8          8           0        1.799770   -0.047704    0.127660
      9          6           0        3.067357   -0.699301    0.055051
     10          6           0        4.114948    0.300633    0.508603
     11          8           0        0.830092   -1.942999   -0.615712
     12          6           0       -0.507779    1.308847    0.316655
     13          7           0       -1.601826    2.053584    0.440291
     14          1           0       -3.820543    3.101824    0.536877
     15          1           0       -4.757546    1.720938   -0.030893
     16          1           0       -1.578266   -2.696672   -0.212519
     17          1           0       -3.015535   -2.153406   -1.124815
     18          1           0       -1.389568   -2.144937   -1.866031
     19          1           0        3.247494   -1.034051   -0.972180
     20          1           0        3.057178   -1.589818    0.692701
     21          1           0        4.117992    1.183735   -0.136877
     22          1           0        3.926758    0.625256    1.536089
     23          1           0        5.104991   -0.161809    0.467404
     24          1           0        0.424981    1.793436    0.584827
 ---------------------------------------------------------------------
                    Distance matrix (angstroms):
                    1          2          3          4          5
     1  N    0.000000
     2  C    1.356226   0.000000
     3  N    2.296019   1.348445   0.000000
     4  C    3.509365   2.288081   1.337230   0.000000
     5  C    4.703728   3.647345   2.409279   1.502417   0.000000
     6  C    4.021140   2.664944   2.386545   1.409028   2.563471
     7  C    5.494749   4.138524   3.746505   2.527044   3.026066
     8  O    6.094790   4.776671   4.714542   3.656295   4.355644
     9  C    7.514692   6.187763   6.028852   4.867740   5.277714
    10  C    8.215229   6.962474   7.054549   6.028307   6.644073
    11  O    6.298977   4.963331   4.279271   2.946490   2.804166
    12  C    3.480970   2.249571   2.722693   2.392153   3.806493
    13  N    2.294962   1.346834   2.418394   2.777093   4.277704
    14  H    1.004945   2.039336   3.209180   4.319871   5.611153
    15  H    1.004987   2.039418   2.456283   3.787005   4.730396
    16  H    5.386075   4.295457   3.143733   2.149251   1.093031
    17  H    4.591769   3.792812   2.445644   2.122127   1.090380
    18  H    5.386083   4.295467   3.143734   2.149251   1.093023
    19  H    7.899887   6.564889   6.281540   5.067324   5.286957
    20  H    7.899795   6.564808   6.281405   5.067195   5.286760
    21  H    8.067378   6.870243   7.082545   6.153615   6.893840
    22  H    8.067297   6.870173   7.082432   6.153513   6.893689
    23  H    9.285016   8.016222   8.039038   6.950410   7.424953
    24  H    4.339242   3.226687   3.807167   3.389968   4.714594
                    6          7          8          9         10
     6  C    0.000000
     7  C    1.473942   0.000000
     8  O    2.330584   1.346293   0.000000
     9  C    3.652421   2.350996   1.427105   0.000000
    10  C    4.686022   3.627286   2.372026   1.517572   0.000000
    11  O    2.398144   1.218814   2.254999   2.646141   4.133794
    12  C    1.400856   2.500452   2.683419   4.108856   4.735288
    13  N    2.408016   3.741895   4.010487   5.433972   5.979884
    14  H    4.593598   6.041240   6.455611   7.881870   8.415432
    15  H    4.585247   6.043244   6.793499   8.191096   9.001638
    16  H    2.881103   3.001042   4.306260   5.063882   6.474299
    17  H    3.433924   4.089952   5.402763   6.364597   7.715839
    18  H    2.881115   3.001093   4.306399   5.064050   6.474520
    19  H    3.988828   2.626843   2.068437   1.095313   2.174069
    20  H    3.988789   2.626820   2.068445   1.095318   2.174069
    21  H    4.788299   3.915124   2.638290   2.164831   1.093857
    22  H    4.788271   3.915111   2.638300   2.164831   1.093857
    23  H    5.654801   4.469276   3.324595   2.147297   1.093497
    24  H    2.163682   2.727218   2.342829   3.671043   3.981222
                   11         12         13         14         15
    11  O    0.000000
    12  C    3.637818   0.000000
    13  N    4.796045   1.329231   0.000000
    14  H    6.957522   3.773283   2.455777   0.000000
    15  H    6.707321   4.283821   3.207996   1.762721   0.000000
    16  H    2.555538   4.179731   4.794960   6.261945   5.445740
    17  H    3.884882   4.511527   4.706049   5.570162   4.386548
    18  H    2.555576   4.179749   4.794972   6.261957   5.445732
    19  H    2.607123   4.610027   5.919837   8.327056   8.518019
    20  H    2.607028   4.610054   5.919832   8.326995   8.517900
    21  H    4.562459   4.649635   5.814299   8.194715   8.892412
    22  H    4.562403   4.649671   5.814304   8.194662   8.892305
    23  H    4.756105   5.804201   7.063292   9.503751  10.052993
    24  H    3.945423   1.084797   2.048539   4.442820   5.219478
                   16         17         18         19         20
    16  H    0.000000
    17  H    1.786943   0.000000
    18  H    1.753317   1.786964   0.000000
    19  H    5.160364   6.364102   4.851329   0.000000
    20  H    4.850968   6.363871   5.160313   1.765482   0.000000
    21  H    6.892795   7.937238   6.663576   2.524692   3.083200
    22  H    6.663191   7.937053   6.892874   3.083198   2.524683
    23  H    7.180094   8.511438   7.180322   2.506691   2.506692
    24  H    4.980946   5.507957   4.980972   4.287836   4.287950
                   21         22         23         24
    21  H    0.000000
    22  H    1.774059   0.000000
    23  H    1.774771   1.774766   0.000000
    24  H    3.811945   3.812085   5.073388   0.000000
 Stoichiometry    C8H11N3O2
 Framework group  C1[X(C8H11N3O2)]
 Deg. of freedom    66
 Full point group                 C1      NOp   1
 Largest Abelian subgroup         C1      NOp   1
 Largest concise Abelian subgroup C1      NOp   1
                         Standard orientation:                         
 ---------------------------------------------------------------------
 Center     Atomic      Atomic             Coordinates (Angstroms)
 Number     Number       Type             X           Y           Z
 ---------------------------------------------------------------------
      1          7           0        3.965992   -1.201466    0.000104
      2          6           0        2.686300   -0.752312    0.000030
      3          7           0        2.525571    0.586520    0.000088
      4          6           0        1.269019    1.043971    0.000013
      5          6           0        1.113017    2.538266    0.000099
      6          6           0        0.179108    0.150968   -0.000122
      7          6           0       -1.220846    0.612090   -0.000138
      8          8           0       -2.079152   -0.425125   -0.000032
      9          6           0       -3.465567   -0.086774    0.000023
     10          6           0       -4.247128   -1.387615    0.000196
     11          8           0       -1.585312    1.775135   -0.000120
     12          6           0        0.485052   -1.216071   -0.000169
     13          7           0        1.724826   -1.695461   -0.000110
     14          1           0        4.129677   -2.192991    0.000070
     15          1           0        4.713541   -0.529774    0.000166
     16          1           0        0.550789    2.870108    0.876739
     17          1           0        2.102958    2.995373    0.000241
     18          1           0        0.550937    2.870231   -0.876578
     19          1           0       -3.693266    0.520317   -0.882758
     20          1           0       -3.693162    0.520485    0.882723
     21          1           0       -4.014223   -1.983887   -0.886786
     22          1           0       -4.014128   -1.983709    0.887273
     23          1           0       -5.318975   -1.171100    0.000237
     24          1           0       -0.306894   -1.957426   -0.000258
 ---------------------------------------------------------------------
 Rotational constants (GHZ):           1.6285575           0.4590694           0.3605244
 Standard basis: 6-31G(d,p) (6D, 7F)
 There are   250 symmetry adapted cartesian basis functions of A   symmetry.
 There are   250 symmetry adapted basis functions of A   symmetry.
   250 basis functions,   441 primitive gaussians,   250 cartesian basis functions
    48 alpha electrons       48 beta electrons
       nuclear repulsion energy       786.1479119283 Hartrees.
 NAtoms=   24 NActive=   24 NUniq=   24 SFac= 1.00D+00 NAtFMM=   60 NAOKFM=F Big=F
 Integral buffers will be    131072 words long.
 Raffenetti 2 integral format.
 Two-electron integral symmetry is turned on.
 Nuclear repulsion after empirical dispersion term =      786.1067917066 Hartrees.
 One-electron integrals computed using PRISM.
 NBasis=   250 RedAO= T EigKep=  9.22D-04  NBF=   250
 NBsUse=   250 1.00D-06 EigRej= -1.00D+00 NBFU=   250
 Initial guess from the checkpoint file:  "pyrmd1_conf-1.chk"
 B after Tr=    -0.000000   -0.000000   -0.000000
         Rot=    0.999994    0.000001    0.000000   -0.003541 Ang=   0.41 deg.
 ExpMin= 1.61D-01 ExpMax= 5.48D+03 ExpMxC= 8.25D+02 IAcc=3 IRadAn=         5 AccDes= 0.00D+00
 Harris functional with IExCor=  402 and IRadAn=       5 diagonalized for initial guess.
 HarFok:  IExCor=  402 AccDes= 0.00D+00 IRadAn=         5 IDoV= 1 UseB2=F ITyADJ=14
 ICtDFT=  3500011 ScaDFX=  1.000000  1.000000  1.000000  1.000000
 FoFCou: FMM=F IPFlag=           0 FMFlag=      100000 FMFlg1=           0
         NFxFlg=           0 DoJE=T BraDBF=F KetDBF=T FulRan=T
         wScrn=  0.000000 ICntrl=       500 IOpCl=  0 I1Cent=   200000004 NGrid=           0
         NMat0=    1 NMatS0=      1 NMatT0=    0 NMatD0=    1 NMtDS0=    0 NMtDT0=    0
 Petite list used in FoFCou.
 Requested convergence on RMS density matrix=1.00D-08 within 128 cycles.
 Requested convergence on MAX density matrix=1.00D-06.
 Requested convergence on             energy=1.00D-06.
 No special actions if energy rises.
 Integral accuracy reduced to 1.0D-05 until final iterations.
 Initial convergence to 1.0D-05 achieved.  Increase integral accuracy.
 SCF Done:  E(RB3LYP) =  -626.275596392     A.U. after   12 cycles
            NFock= 12  Conv=0.44D-08     -V/T= 2.0092
 Calling FoFJK, ICntrl=      2127 FMM=F ISym2X=0 I1Cent= 0 IOpClX= 0 NMat=1 NMatS=1 NMatT=0.
 ***** Axes restored to original set *****
 -------------------------------------------------------------------
 Center     Atomic                   Forces (Hartrees/Bohr)
 Number     Number              X              Y              Z
 -------------------------------------------------------------------
      1        7           0.004087087   -0.003160987   -0.000587732
      2        6          -0.009771332    0.002848995   -0.000167972
      3        7           0.004210963   -0.001053312    0.000129879
      4        6          -0.006890721   -0.001675327   -0.001346267
      5        6          -0.002350627    0.000584952   -0.000066242
      6        6           0.005624831    0.000644546    0.000856005
      7        6          -0.007420696   -0.002921686   -0.001808957
      8        8           0.000443568    0.004633218    0.001592583
      9        6           0.009277472   -0.001948272    0.000413112
     10        6          -0.000122665   -0.000600531   -0.000214315
     11        8           0.002213329    0.000184685    0.000308447
     12        6          -0.003028752    0.004712034    0.001225715
     13        7           0.004684244   -0.002333525   -0.000241923
     14        1          -0.001587351    0.000478526   -0.000022056
     15        1          -0.001084298    0.001303867    0.000311927
     16        1           0.000974262    0.000039210   -0.001035457
     17        1          -0.000431471    0.000500749    0.000115253
     18        1           0.000739149   -0.000650238    0.001022545
     19        1          -0.000772101   -0.000210894    0.000305594
     20        1          -0.000678748    0.000067816   -0.000522354
     21        1          -0.000037037   -0.000187401    0.000028860
     22        1          -0.000018237   -0.000130482   -0.000141515
     23        1           0.000591929    0.000315848    0.000172657
     24        1           0.001347201   -0.001441791   -0.000327788
 -------------------------------------------------------------------
 Cartesian Forces:  Max     0.009771332 RMS     0.002644202

 GradGradGradGradGradGradGradGradGradGradGradGradGradGradGradGradGradGrad
 Berny optimization.
 Using GEDIIS/GDIIS optimizer.
 FormGI is forming the generalized inverse of G from B-inverse, IUseBI=4.
 Internal  Forces:  Max     0.008549503 RMS     0.001783815
 Search for a local minimum.
 Step number   2 out of a maximum of  117
 All quantities printed in internal units (Hartrees-Bohrs-Radians)
 Mixed Optimization -- RFO/linear search
 Update second derivatives using D2CorX and points    1    2
 DE= -5.53D-03 DEPred=-5.78D-03 R= 9.55D-01
 TightC=F SS=  1.41D+00  RLast= 1.98D-01 DXNew= 5.0454D-01 5.9266D-01
 Trust test= 9.55D-01 RLast= 1.98D-01 DXMaxT set to 5.05D-01
 ITU=  1  0
 Use linear search instead of GDIIS.
     Eigenvalues ---    0.00365   0.00485   0.00747   0.01242   0.01317
     Eigenvalues ---    0.01426   0.01565   0.01974   0.02033   0.02033
     Eigenvalues ---    0.02079   0.02200   0.02246   0.02295   0.02390
     Eigenvalues ---    0.05317   0.05542   0.05651   0.05690   0.07150
     Eigenvalues ---    0.07279   0.11146   0.13614   0.15016   0.16000
     Eigenvalues ---    0.16000   0.16000   0.16000   0.16000   0.16000
     Eigenvalues ---    0.16000   0.16182   0.21980   0.23206   0.23920
     Eigenvalues ---    0.25000   0.25000   0.25000   0.25000   0.25000
     Eigenvalues ---    0.25000   0.27653   0.29391   0.30169   0.33244
     Eigenvalues ---    0.34597   0.34621   0.34759   0.34789   0.34790
     Eigenvalues ---    0.34826   0.34865   0.34911   0.35751   0.41606
     Eigenvalues ---    0.42773   0.43314   0.46825   0.46840   0.49337
     Eigenvalues ---    0.50433   0.51842   0.53567   0.55607   0.59457
     Eigenvalues ---    0.90397
 RFO step:  Lambda=-9.43103629D-04 EMin= 3.64940351D-03
 Quartic linear search produced a step of -0.02904.
 Iteration  1 RMS(Cart)=  0.01915958 RMS(Int)=  0.00005264
 Iteration  2 RMS(Cart)=  0.00007298 RMS(Int)=  0.00000822
 Iteration  3 RMS(Cart)=  0.00000000 RMS(Int)=  0.00000822
 Variable       Old X    -DE/DX   Delta X   Delta X   Delta X     New X
                                 (Linear)    (Quad)   (Total)
    R1        2.56290  -0.00195   0.00099  -0.00765  -0.00666   2.55624
    R2        1.89907   0.00035  -0.00000   0.00073   0.00073   1.89980
    R3        1.89915   0.00031  -0.00000   0.00064   0.00064   1.89979
    R4        2.54819   0.00013  -0.00016   0.00072   0.00057   2.54877
    R5        2.54515   0.00412  -0.00008   0.00735   0.00727   2.55242
    R6        2.52700  -0.00123   0.00122  -0.00703  -0.00582   2.52118
    R7        2.83916  -0.00033   0.00103  -0.00515  -0.00411   2.83504
    R8        2.66268   0.00706   0.00025   0.01488   0.01512   2.67780
    R9        2.06553  -0.00038  -0.00019  -0.00032  -0.00051   2.06502
   R10        2.06052   0.00032   0.00000   0.00088   0.00088   2.06140
   R11        2.06551  -0.00038  -0.00019  -0.00030  -0.00049   2.06502
   R12        2.78535   0.00336   0.00151   0.00414   0.00564   2.79099
   R13        2.64723   0.00187   0.00033   0.00292   0.00324   2.65047
   R14        2.54412   0.00837   0.00044   0.01325   0.01369   2.55781
   R15        2.30323  -0.00010   0.00071  -0.00288  -0.00217   2.30106
   R16        2.69684   0.00855  -0.00039   0.02102   0.02064   2.71748
   R17        2.86780  -0.00016   0.00070  -0.00330  -0.00260   2.86520
   R18        2.06984  -0.00035  -0.00019  -0.00022  -0.00041   2.06943
   R19        2.06985  -0.00035  -0.00019  -0.00025  -0.00043   2.06942
   R20        2.06709  -0.00017  -0.00020   0.00032   0.00012   2.06721
   R21        2.06709  -0.00017  -0.00020   0.00032   0.00012   2.06721
   R22        2.06641   0.00040  -0.00021   0.00192   0.00171   2.06812
   R23        2.51188  -0.00035   0.00153  -0.00661  -0.00508   2.50680
   R24        2.04997   0.00043  -0.00016   0.00180   0.00164   2.05161
    A1        2.07196   0.00098  -0.00031   0.00717   0.00686   2.07881
    A2        2.07204   0.00112  -0.00038   0.00830   0.00792   2.07996
    A3        2.13919  -0.00210   0.00069  -0.01547  -0.01478   2.12441
    A4        2.02783   0.00141   0.00023   0.00475   0.00497   2.03280
    A5        2.02826   0.00234   0.00021   0.00842   0.00863   2.03689
    A6        2.22709  -0.00374  -0.00044  -0.01317  -0.01360   2.21349
    A7        2.03941   0.00281  -0.00019   0.01120   0.01102   2.05043
    A8        2.02396  -0.00192  -0.00129  -0.00237  -0.00366   2.02030
    A9        2.10603   0.00037   0.00089  -0.00198  -0.00109   2.10494
   A10        2.15320   0.00155   0.00039   0.00435   0.00475   2.15794
   A11        1.93415   0.00036  -0.00036   0.00230   0.00195   1.93610
   A12        1.89936  -0.00061   0.00182  -0.00840  -0.00658   1.89278
   A13        1.93416   0.00036  -0.00035   0.00229   0.00193   1.93609
   A14        1.91731   0.00058  -0.00104   0.01027   0.00923   1.92654
   A15        1.86143  -0.00125   0.00092  -0.01633  -0.01541   1.84601
   A16        1.91735   0.00058  -0.00104   0.01023   0.00919   1.92654
   A17        2.13698   0.00182   0.00078   0.00368   0.00447   2.14145
   A18        2.03704  -0.00260  -0.00078  -0.00648  -0.00727   2.02977
   A19        2.10916   0.00078  -0.00000   0.00280   0.00280   2.11196
   A20        1.94390   0.00325   0.00083   0.00926   0.01009   1.95399
   A21        2.19267   0.00095  -0.00071   0.00653   0.00582   2.19849
   A22        2.14662  -0.00420  -0.00012  -0.01579  -0.01591   2.13071
   A23        2.02272   0.00129   0.00232  -0.00423  -0.00191   2.02081
   A24        1.87244   0.00128   0.00064   0.00333   0.00397   1.87641
   A25        1.91064  -0.00088   0.00034  -0.00742  -0.00710   1.90353
   A26        1.91064  -0.00088   0.00033  -0.00741  -0.00710   1.90354
   A27        1.94780   0.00036  -0.00067   0.00716   0.00649   1.95429
   A28        1.94779   0.00036  -0.00067   0.00716   0.00650   1.95429
   A29        1.87447  -0.00029   0.00004  -0.00339  -0.00339   1.87107
   A30        1.93640  -0.00025   0.00005  -0.00199  -0.00194   1.93446
   A31        1.93640  -0.00025   0.00005  -0.00199  -0.00194   1.93446
   A32        1.91249   0.00089   0.00064   0.00337   0.00401   1.91650
   A33        1.89144   0.00013  -0.00019   0.00047   0.00027   1.89172
   A34        1.89301  -0.00027  -0.00029   0.00009  -0.00019   1.89282
   A35        1.89300  -0.00027  -0.00029   0.00010  -0.00018   1.89282
   A36        2.15994   0.00048  -0.00017   0.00308   0.00290   2.16284
   A37        2.10304  -0.00224   0.00062  -0.01579  -0.01516   2.08788
   A38        2.02021   0.00176  -0.00045   0.01270   0.01226   2.03247
   A39        1.99685   0.00269   0.00069   0.00736   0.00805   2.00490
    D1        3.14159   0.00000  -0.00000   0.00001   0.00001  -3.14159
    D2       -0.00002   0.00000  -0.00000   0.00004   0.00004   0.00002
    D3       -0.00003   0.00000  -0.00000   0.00001   0.00001  -0.00002
    D4        3.14154   0.00000  -0.00000   0.00004   0.00004   3.14158
    D5        3.14159   0.00000   0.00000   0.00001   0.00001  -3.14158
    D6        0.00001  -0.00000   0.00000  -0.00002  -0.00002  -0.00000
    D7        3.14158  -0.00000  -0.00000  -0.00001  -0.00001   3.14157
    D8       -0.00002   0.00000   0.00000   0.00002   0.00002  -0.00000
    D9        3.14158   0.00000   0.00000   0.00002   0.00002  -3.14159
   D10       -0.00000   0.00000  -0.00000   0.00002   0.00002   0.00002
   D11       -2.11009  -0.00055   0.00034  -0.00868  -0.00834  -2.11842
   D12       -0.00003   0.00000  -0.00000   0.00005   0.00005   0.00002
   D13        2.11009   0.00054  -0.00035   0.00872   0.00837   2.11846
   D14        1.03149  -0.00055   0.00035  -0.00868  -0.00833   1.02316
   D15        3.14155   0.00000  -0.00000   0.00005   0.00005  -3.14159
   D16       -1.03151   0.00054  -0.00034   0.00871   0.00837  -1.02314
   D17        3.14154   0.00000   0.00000   0.00005   0.00005   3.14158
   D18        0.00000  -0.00000   0.00000  -0.00003  -0.00002  -0.00002
   D19       -0.00004   0.00000  -0.00000   0.00005   0.00004   0.00000
   D20       -3.14158  -0.00000  -0.00000  -0.00002  -0.00003   3.14158
   D21       -3.14140  -0.00000  -0.00000  -0.00035  -0.00035   3.14144
   D22        0.00008   0.00000   0.00000   0.00019   0.00020   0.00028
   D23        0.00013  -0.00000  -0.00000  -0.00027  -0.00028  -0.00014
   D24       -3.14157   0.00000   0.00000   0.00027   0.00027  -3.14130
   D25       -0.00002   0.00000  -0.00000   0.00003   0.00003   0.00002
   D26        3.14158   0.00000  -0.00000   0.00003   0.00003  -3.14158
   D27       -3.14155  -0.00000  -0.00000  -0.00004  -0.00004  -3.14159
   D28        0.00004  -0.00000   0.00000  -0.00004  -0.00004   0.00001
   D29        3.14155   0.00000   0.00000   0.00026   0.00026  -3.14138
   D30        0.00006  -0.00000  -0.00000  -0.00026  -0.00026  -0.00020
   D31       -3.14155  -0.00000   0.00000  -0.00001  -0.00001  -3.14157
   D32        1.02523  -0.00069   0.00022  -0.00638  -0.00611   1.01911
   D33       -1.02516   0.00069  -0.00022   0.00636   0.00610  -1.01906
   D34       -1.05177   0.00008   0.00009   0.00104   0.00112  -1.05065
   D35        1.05179  -0.00008  -0.00009  -0.00104  -0.00113   1.05066
   D36       -3.14159  -0.00000  -0.00000   0.00000  -0.00000  -3.14159
   D37        1.04108   0.00002   0.00050  -0.00173  -0.00123   1.03985
   D38       -3.13854  -0.00014   0.00033  -0.00381  -0.00348   3.14116
   D39       -1.04874  -0.00006   0.00042  -0.00277  -0.00235  -1.05109
   D40        3.13856   0.00014  -0.00033   0.00380   0.00346  -3.14116
   D41       -1.04106  -0.00002  -0.00050   0.00172   0.00122  -1.03985
   D42        1.04875   0.00006  -0.00041   0.00276   0.00234   1.05109
   D43        0.00002  -0.00000   0.00000  -0.00003  -0.00003  -0.00001
   D44       -3.14157  -0.00000  -0.00000  -0.00003  -0.00003   3.14159
         Item               Value     Threshold  Converged?
 Maximum Force            0.008550     0.000450     NO 
 RMS     Force            0.001784     0.000300     NO 
 Maximum Displacement     0.067284     0.001800     NO 
 RMS     Displacement     0.019151     0.001200     NO 
 Predicted change in Energy=-4.762041D-04
 GradGradGradGradGradGradGradGradGradGradGradGradGradGradGradGradGradGrad

                          Input orientation:                          
 ---------------------------------------------------------------------
 Center     Atomic      Atomic             Coordinates (Angstroms)
 Number     Number       Type             X           Y           Z
 ---------------------------------------------------------------------
      1          7           0       -3.905732    2.145746    0.207904
      2          6           0       -2.764649    1.427558    0.098644
      3          7           0       -2.892701    0.158418   -0.339544
      4          6           0       -1.779814   -0.568320   -0.454864
      5          6           0       -1.966909   -1.973739   -0.945289
      6          6           0       -0.518341   -0.013237   -0.125397
      7          6           0        0.741979   -0.775311   -0.235643
      8          8           0        1.814193   -0.036234    0.133387
      9          6           0        3.087590   -0.699985    0.057138
     10          6           0        4.145082    0.288671    0.507833
     11          8           0        0.849516   -1.929393   -0.608798
     12          6           0       -0.521687    1.317311    0.318257
     13          7           0       -1.617805    2.054644    0.439023
     14          1           0       -3.856148    3.096497    0.530865
     15          1           0       -4.780931    1.715273   -0.035813
     16          1           0       -1.585384   -2.694911   -0.218324
     17          1           0       -3.030590   -2.138945   -1.122035
     18          1           0       -1.397475   -2.146416   -1.861836
     19          1           0        3.253994   -1.037546   -0.971255
     20          1           0        3.064280   -1.592499    0.691246
     21          1           0        4.151937    1.172136   -0.137231
     22          1           0        3.960995    0.613580    1.536040
     23          1           0        5.133239   -0.179689    0.464251
[...]
                 (A') (A') (A') (A') (A') (A') (A') (A') (A') (A')
                 (A')
 The electronic state is 1-A'.
 Alpha  occ. eigenvalues --  -19.66901 -19.61306 -14.77382 -14.75244 -14.75054
 Alpha  occ. eigenvalues --  -10.67639 -10.65636 -10.61073 -10.59822 -10.59623
 Alpha  occ. eigenvalues --  -10.55571 -10.53638 -10.52833  -1.22905  -1.13538
 Alpha  occ. eigenvalues --   -1.12182  -1.02217  -1.00311  -0.90401  -0.86810
 Alpha  occ. eigenvalues --   -0.82351  -0.76191  -0.73173  -0.71140  -0.66209
 Alpha  occ. eigenvalues --   -0.63512  -0.60993  -0.60127  -0.57700  -0.56697
 Alpha  occ. eigenvalues --   -0.54965  -0.53283  -0.50068  -0.49833  -0.48356
 Alpha  occ. eigenvalues --   -0.47497  -0.46520  -0.46209  -0.44829  -0.43107
 Alpha  occ. eigenvalues --   -0.42552  -0.39959  -0.39871  -0.37447  -0.37048
 Alpha  occ. eigenvalues --   -0.35300  -0.32293  -0.29214
 Alpha virt. eigenvalues --   -0.01134  -0.00294   0.06504   0.06860   0.09020
 Alpha virt. eigenvalues --    0.09030   0.10634   0.11213   0.12467   0.13216
 Alpha virt. eigenvalues --    0.13420   0.14028   0.14964   0.15647   0.16054
 Alpha virt. eigenvalues --    0.16348   0.18573   0.19434   0.19758   0.20057
 Alpha virt. eigenvalues --    0.22483   0.22995   0.24100   0.25994   0.26029
 Alpha virt. eigenvalues --    0.26093   0.26542   0.27144   0.27467   0.28481
 Alpha virt. eigenvalues --    0.29346   0.31109   0.31510   0.31857   0.32947
 Alpha virt. eigenvalues --    0.33170   0.34457   0.36312   0.36987   0.37635
 Alpha virt. eigenvalues --    0.37998   0.38609   0.40198   0.40620   0.41633
 Alpha virt. eigenvalues --    0.43385   0.43886   0.44545   0.45285   0.45670
 Alpha virt. eigenvalues --    0.46233   0.46888   0.46936   0.47768   0.47818
 Alpha virt. eigenvalues --    0.49327   0.49982   0.50530   0.51534   0.51940
 Alpha virt. eigenvalues --    0.52213   0.52485   0.53261   0.53590   0.54741
 Alpha virt. eigenvalues --    0.55887   0.56146   0.57692   0.58570   0.59843
 Alpha virt. eigenvalues --    0.61877   0.62268   0.62866   0.64688   0.64792
 Alpha virt. eigenvalues --    0.65041   0.65971   0.68315   0.69256   0.69606
 Alpha virt. eigenvalues --    0.71280   0.71895   0.72372   0.73546   0.74615
 Alpha virt. eigenvalues --    0.75394   0.76039   0.77490   0.78300   0.78912
 Alpha virt. eigenvalues --    0.81327   0.82086   0.83881   0.86844   0.87920
 Alpha virt. eigenvalues --    0.88268   0.89094   0.90610   0.90811   0.92357
 Alpha virt. eigenvalues --    0.94847   0.96353   0.97384   0.97436   0.98478
 Alpha virt. eigenvalues --    1.00492   1.03194   1.04945   1.06816   1.07863
 Alpha virt. eigenvalues --    1.08886   1.09375   1.10400   1.12194   1.12883
 Alpha virt. eigenvalues --    1.15676   1.16621   1.17985   1.21415   1.23482
 Alpha virt. eigenvalues --    1.26936   1.30302   1.30807   1.32237   1.32936
 Alpha virt. eigenvalues --    1.35171   1.36904   1.38947   1.39343   1.41548
 Alpha virt. eigenvalues --    1.43178   1.44409   1.45584   1.47062   1.48665
 Alpha virt. eigenvalues --    1.49676   1.52379   1.53084   1.53510   1.54420
 Alpha virt. eigenvalues --    1.55853   1.56627   1.57806   1.58379   1.58772
 Alpha virt. eigenvalues --    1.59105   1.60126   1.60655   1.60898   1.61740
 Alpha virt. eigenvalues --    1.63429   1.64044   1.64061   1.66220   1.67475
 Alpha virt. eigenvalues --    1.68370   1.69008   1.69896   1.71637   1.73704
 Alpha virt. eigenvalues --    1.74520   1.77100   1.78501   1.78608   1.81685
 Alpha virt. eigenvalues --    1.82065   1.83197   1.83972   1.85033   1.85590
 Alpha virt. eigenvalues --    1.87162   1.90259   1.90363   1.91569   1.93667
 Alpha virt. eigenvalues --    1.96119   1.98967   2.00329   2.00343   2.03645
 Alpha virt. eigenvalues --    2.04204   2.06532   2.07371   2.07903   2.09390
 Alpha virt. eigenvalues --    2.10579   2.12275   2.13991   2.15035   2.16424
 Alpha virt. eigenvalues --    2.17630   2.19484   2.21663   2.23948   2.27143
 Alpha virt. eigenvalues --    2.28780   2.29345   2.30109   2.31602   2.32829
 Alpha virt. eigenvalues --    2.34165   2.34344   2.35134   2.36177   2.37594
 Alpha virt. eigenvalues --    2.39829   2.41231   2.42219   2.42568   2.42669
 Alpha virt. eigenvalues --    2.45814   2.46304   2.46704   2.48505   2.53010
 Alpha virt. eigenvalues --    2.54479   2.55782   2.55809   2.56503   2.57262
 Alpha virt. eigenvalues --    2.59098   2.59918   2.62541   2.62553   2.63718
 Alpha virt. eigenvalues --    2.64807   2.68399   2.69894   2.72571   2.72806
 Alpha virt. eigenvalues --    2.74333   2.76470   2.78128   2.80393   2.81078
 Alpha virt. eigenvalues --    2.82173   2.83832   2.84294   2.87012   2.88090
 Alpha virt. eigenvalues --    2.90841   2.91521   2.92594   2.92704   2.95516
 Alpha virt. eigenvalues --    2.95868   2.96271   2.98315   2.99847   3.00157
 Alpha virt. eigenvalues --    3.01240   3.03367   3.03825   3.04107   3.07204
 Alpha virt. eigenvalues --    3.07734   3.09293   3.10069   3.12516   3.13032
 Alpha virt. eigenvalues --    3.13470   3.15804   3.16168   3.17152   3.17685
 Alpha virt. eigenvalues --    3.19325   3.19770   3.21228   3.22718   3.22927
 Alpha virt. eigenvalues --    3.25013   3.25420   3.26880   3.27351   3.27875
 Alpha virt. eigenvalues --    3.30037   3.30080   3.31348   3.31691   3.34050
 Alpha virt. eigenvalues --    3.35698   3.35948   3.37364   3.38030   3.38204
 Alpha virt. eigenvalues --    3.40924   3.41069   3.43788   3.44894   3.46376
 Alpha virt. eigenvalues --    3.47354   3.47466   3.49219   3.50744   3.53626
 Alpha virt. eigenvalues --    3.54241   3.57364   3.57524   3.60138   3.62451
 Alpha virt. eigenvalues --    3.66857   3.67272   3.68820   3.70242   3.74120
 Alpha virt. eigenvalues --    3.75161   3.77508   3.78559   3.79361   3.81041
 Alpha virt. eigenvalues --    3.84247   3.85776   3.86674   3.88956   3.89276
 Alpha virt. eigenvalues --    3.91312   3.94042   3.95643   3.97703   3.98435
 Alpha virt. eigenvalues --    4.00541   4.06581   4.10252   4.10984   4.13159
 Alpha virt. eigenvalues --    4.13245   4.18093   4.19091   4.22367   4.24398
 Alpha virt. eigenvalues --    4.25663   4.30740   4.31719   4.34246   4.35342
 Alpha virt. eigenvalues --    4.37738   4.40608   4.42157   4.44345   4.46633
 Alpha virt. eigenvalues --    4.50329   4.54429   4.55370   4.56295   4.57687
 Alpha virt. eigenvalues --    4.64563   4.66805   4.69090   4.73388   4.73633
 Alpha virt. eigenvalues --    4.74103   4.74885   4.77927   4.81716   4.84413
 Alpha virt. eigenvalues --    4.92850   4.94403   4.96305   4.96546   5.00278
 Alpha virt. eigenvalues --    5.02525   5.02878   5.04741   5.06324   5.11438
 Alpha virt. eigenvalues --    5.15365   5.15956   5.19112   5.19284   5.19389
 Alpha virt. eigenvalues --    5.29523   5.31499   5.32550   5.33680   5.34291
 Alpha virt. eigenvalues --    5.38577   5.40502   5.42015   5.42868   5.48546
 Alpha virt. eigenvalues --    5.50574   5.52865   5.56594   5.65471   5.66797
 Alpha virt. eigenvalues --    5.68156   5.79925   5.81934   5.90067   5.94561
 Alpha virt. eigenvalues --    5.96350   6.07192   6.12461   6.15460   6.22267
 Alpha virt. eigenvalues --    6.36080   6.37195   6.43629   6.59336   6.65052
 Alpha virt. eigenvalues --    6.73567   6.76602   6.88017   6.92316   7.07968
 Alpha virt. eigenvalues --    7.13286   7.32559   7.41912  22.40901  22.55023
 Alpha virt. eigenvalues --   22.58572  22.85425  22.98920  23.26946  23.36174
 Alpha virt. eigenvalues --   23.54982  32.08289  32.51058  32.85887  44.11581
 Alpha virt. eigenvalues --   44.40254
          Condensed to atoms (all electrons):
               1          2          3          4          5          6
     1  N    6.582969   0.391650  -0.109495   0.007212   0.000257  -0.004675
     2  C    0.391650   4.472028   0.501692  -0.096029   0.003915  -0.026112
     3  N   -0.109495   0.501692   6.540027   0.592319  -0.052652  -0.109252
     4  C    0.007212  -0.096029   0.592319   4.947924   0.257163   0.414848
     5  C    0.000257   0.003915  -0.052652   0.257163   5.093973  -0.073198
     6  C   -0.004675  -0.026112  -0.109252   0.414848  -0.073198   5.410155
     7  C   -0.000028   0.003746   0.002683  -0.040523  -0.023088   0.328666
     8  O   -0.000002  -0.000092  -0.000255  -0.005411   0.000381  -0.138747
     9  C   -0.000000   0.000016   0.000029   0.000046  -0.000133   0.008886
    10  C    0.000000   0.000000  -0.000002   0.000062   0.000003   0.003521
    11  O   -0.000001   0.000098   0.000162  -0.012430   0.000476  -0.094881
    12  C    0.007045  -0.106674  -0.014605  -0.051191   0.003219   0.452490
    13  N   -0.110127   0.494421  -0.073479  -0.031375  -0.002562  -0.056746
    14  H    0.368953  -0.027680   0.006122  -0.000987   0.000026   0.000445
    15  H    0.369249  -0.028236   0.008433   0.000751  -0.000333   0.000840
    16  H    0.000003  -0.000547   0.000900  -0.039099   0.413335   0.000509
    17  H   -0.000267   0.000669   0.005747  -0.070346   0.422430   0.013817
    18  H    0.000003  -0.000547   0.000900  -0.039099   0.413335   0.000509
    19  H    0.000000  -0.000001  -0.000001  -0.000056  -0.000022  -0.001068
    20  H    0.000000  -0.000001  -0.000001  -0.000056  -0.000022  -0.001068
    21  H   -0.000000   0.000001  -0.000000  -0.000009  -0.000000  -0.000462
    22  H   -0.000000   0.000001  -0.000000  -0.000009  -0.000000  -0.000462
    23  H   -0.000000  -0.000000   0.000000  -0.000000  -0.000000   0.000002
    24  H    0.000019   0.005774  -0.001602   0.000972  -0.000124  -0.059723
               7          8          9         10         11         12
     1  N   -0.000028  -0.000002  -0.000000   0.000000  -0.000001   0.007045
     2  C    0.003746  -0.000092   0.000016   0.000000   0.000098  -0.106674
     3  N    0.002683  -0.000255   0.000029  -0.000002   0.000162  -0.014605
     4  C   -0.040523  -0.005411   0.000046   0.000062  -0.012430  -0.051191
     5  C   -0.023088   0.000381  -0.000133   0.000003   0.000476   0.003219
     6  C    0.328666  -0.138747   0.008886   0.003521  -0.094881   0.452490
     7  C    4.476281   0.369597  -0.043601   0.001951   0.636732  -0.053824
     8  O    0.369597   8.016565   0.199228  -0.042839  -0.077931   0.020825
     9  C   -0.043601   0.199228   4.933540   0.277069  -0.006113  -0.002029
    10  C    0.001951  -0.042839   0.277069   5.017219   0.003768  -0.000678
    11  O    0.636732  -0.077931  -0.006113   0.003768   7.910848   0.005354
    12  C   -0.053824   0.020825  -0.002029  -0.000678   0.005354   4.827158
    13  N    0.005643  -0.000064  -0.000040   0.000010  -0.000302   0.540809
    14  H   -0.000003   0.000000   0.000000  -0.000000   0.000000   0.001037
    15  H   -0.000008   0.000000  -0.000000   0.000000   0.000000  -0.001061
    16  H   -0.004564  -0.000087  -0.000001   0.000001  -0.001453   0.000784
    17  H    0.000592   0.000044  -0.000005  -0.000000   0.002298  -0.000484
    18  H   -0.004564  -0.000087  -0.000001   0.000001  -0.001453   0.000784
    19  H   -0.006649  -0.036177   0.424844  -0.038242   0.004846   0.000342
    20  H   -0.006649  -0.036177   0.424844  -0.038242   0.004846   0.000342
    21  H   -0.000171   0.001469  -0.036637   0.409181  -0.000083   0.000152
    22  H   -0.000171   0.001469  -0.036637   0.409181  -0.000083   0.000152
    23  H    0.000176   0.004595  -0.042749   0.412118   0.000132   0.000010
    24  H   -0.008792   0.009923  -0.000878  -0.000637   0.000192   0.433628
              13         14         15         16         17         18
     1  N   -0.110127   0.368953   0.369249   0.000003  -0.000267   0.000003
     2  C    0.494421  -0.027680  -0.028236  -0.000547   0.000669  -0.000547
     3  N   -0.073479   0.006122   0.008433   0.000900   0.005747   0.000900
     4  C   -0.031375  -0.000987   0.000751  -0.039099  -0.070346  -0.039099
     5  C   -0.002562   0.000026  -0.000333   0.413335   0.422430   0.413335
     6  C   -0.056746   0.000445   0.000840   0.000509   0.013817   0.000509
     7  C    0.005643  -0.000003  -0.000008  -0.004564   0.000592  -0.004564
     8  O   -0.000064   0.000000   0.000000  -0.000087   0.000044  -0.000087
     9  C   -0.000040   0.000000  -0.000000  -0.000001  -0.000005  -0.000001
    10  C    0.000010  -0.000000   0.000000   0.000001  -0.000000   0.000001
    11  O   -0.000302   0.000000   0.000000  -0.001453   0.002298  -0.001453
    12  C    0.540809   0.001037  -0.001061   0.000784  -0.000484   0.000784
    13  N    6.531911   0.008001   0.006160   0.000170   0.000384   0.000170
    14  H    0.008001   0.399798  -0.022764  -0.000001   0.000003  -0.000001
    15  H    0.006160  -0.022764   0.400037   0.000007   0.000129   0.000007
    16  H    0.000170  -0.000001   0.000007   0.511845  -0.021704  -0.027756
    17  H    0.000384   0.000003   0.000129  -0.021704   0.520863  -0.021704
    18  H    0.000170  -0.000001   0.000007  -0.027756  -0.021704   0.511845
    19  H    0.000005  -0.000000  -0.000000  -0.000013  -0.000001   0.000044
    20  H    0.000005  -0.000000  -0.000000   0.000044  -0.000001  -0.000013
    21  H    0.000001   0.000000   0.000000   0.000000   0.000000  -0.000000
    22  H    0.000001   0.000000   0.000000  -0.000000   0.000000   0.000000
    23  H    0.000000  -0.000000  -0.000000   0.000000  -0.000000   0.000000
    24  H   -0.025676  -0.000115   0.000018   0.000016   0.000009   0.000016
              19         20         21         22         23         24
     1  N    0.000000   0.000000  -0.000000  -0.000000  -0.000000   0.000019
     2  C   -0.000001  -0.000001   0.000001   0.000001  -0.000000   0.005774
     3  N   -0.000001  -0.000001  -0.000000  -0.000000   0.000000  -0.001602
     4  C   -0.000056  -0.000056  -0.000009  -0.000009  -0.000000   0.000972
     5  C   -0.000022  -0.000022  -0.000000  -0.000000  -0.000000  -0.000124
     6  C   -0.001068  -0.001068  -0.000462  -0.000462   0.000002  -0.059723
     7  C   -0.006649  -0.006649  -0.000171  -0.000171   0.000176  -0.008792
     8  O   -0.036177  -0.036177   0.001469   0.001469   0.004595   0.009923
     9  C    0.424844   0.424844  -0.036637  -0.036637  -0.042749  -0.000878
    10  C   -0.038242  -0.038242   0.409181   0.409181   0.412118  -0.000637
    11  O    0.004846   0.004846  -0.000083  -0.000083   0.000132   0.000192
    12  C    0.000342   0.000342   0.000152   0.000152   0.000010   0.433628
    13  N    0.000005   0.000005   0.000001   0.000001   0.000000  -0.025676
    14  H   -0.000000  -0.000000   0.000000   0.000000  -0.000000  -0.000115
    15  H   -0.000000  -0.000000   0.000000   0.000000  -0.000000   0.000018
    16  H   -0.000013   0.000044   0.000000  -0.000000   0.000000   0.000016
    17  H   -0.000001  -0.000001   0.000000   0.000000  -0.000000   0.000009
    18  H    0.000044  -0.000013  -0.000000   0.000000   0.000000   0.000016
    19  H    0.557770  -0.045921  -0.008544   0.007802  -0.001921   0.000095
    20  H   -0.045921   0.557770   0.007802  -0.008544  -0.001921   0.000095
    21  H   -0.008544   0.007802   0.535022  -0.030088  -0.022977  -0.000061
    22  H    0.007802  -0.008544  -0.030088   0.535022  -0.022977  -0.000061
    23  H   -0.001921  -0.001921  -0.022977  -0.022977   0.533929   0.000051
    24  H    0.000095   0.000095  -0.000061  -0.000061   0.000051   0.475044
 Mulliken charges:
               1
     1  N   -0.502766
     2  C    0.411912
     3  N   -0.297671
     4  C    0.165322
     5  C   -0.456378
     6  C   -0.068295
     7  C    0.366570
     8  O   -0.286228
     9  C   -0.099678
    10  C   -0.413444
    11  O   -0.375023
    12  C   -0.063585
    13  N   -0.287320
    14  H    0.267166
    15  H    0.266773
    16  H    0.167612
    17  H    0.147528
    18  H    0.167612
    19  H    0.142867
    20  H    0.142867
    21  H    0.145404
    22  H    0.145404
    23  H    0.141531
    24  H    0.171820
 Sum of Mulliken charges =   0.00000
 Mulliken charges with hydrogens summed into heavy atoms:
               1
     1  N    0.031173
     2  C    0.411912
     3  N   -0.297671
     4  C    0.165322
     5  C    0.026374
     6  C   -0.068295
     7  C    0.366570
     8  O   -0.286228
     9  C    0.186056
    10  C    0.018895
    11  O   -0.375023
    12  C    0.108234
    13  N   -0.287320
 Electronic spatial extent (au):  <R**2>=           3014.8276
 Charge=              0.0000 electrons
 Dipole moment (field-independent basis, Debye):
    X=              1.5675    Y=             -0.5082    Z=             -0.0000  Tot=              1.6478
 Quadrupole moment (field-independent basis, Debye-Ang):
   XX=            -70.7659   YY=            -65.3703   ZZ=            -77.0965
   XY=             11.1262   XZ=              0.0000   YZ=             -0.0000
 Traceless Quadrupole moment (field-independent basis, Debye-Ang):
   XX=              0.3117   YY=              5.7073   ZZ=             -6.0189
   XY=             11.1262   XZ=              0.0000   YZ=             -0.0000
 Octapole moment (field-independent basis, Debye-Ang**2):
  XXX=             59.9330  YYY=            -12.8933  ZZZ=              0.0000  XYY=              2.1214
  XXY=             27.0363  XXZ=             -0.0000  XZZ=             -7.8240  YZZ=             -5.0602
  YYZ=             -0.0000  XYZ=              0.0000
 Hexadecapole moment (field-independent basis, Debye-Ang**3):
 XXXX=          -1466.1516 YYYY=          -2057.8830 ZZZZ=            -97.6521 XXXY=           -298.6530
 XXXZ=              0.0000 YYYX=           -374.5041 YYYZ=             -0.0000 ZZZX=              0.0000
 ZZZY=             -0.0000 XXYY=           -481.0899 XXZZ=           -308.2190 YYZZ=           -387.9103
 XXYZ=             -0.0000 YYXZ=              0.0000 ZZXY=           -178.5929
 N-N= 7.841676725711D+02 E-N=-3.029656857106D+03  KE= 6.230061142608D+02
 Symmetry A'   KE= 5.978992919021D+02
 Symmetry A"   KE= 2.510682235866D+01
 Unable to Open any file for archive entry.
 1\1\GINC-COMPUTE-0-28\SP\RM062X\def2TZVP\C8H11N3O2\ZTAN64\14-Aug-2024\
 0\\# M062X/def2tzvp int=(grid=ultrafine) nmr=giao guess=read geom=chec
 k\\pyrmd1.xyz\\0,1\N,0,-3.9053355855,2.1470235794,0.2084852819\C,0,-2.
 7654746669,1.4282659404,0.0988249227\N,0,-2.8927348849,0.1593517931,-0
 .3391801345\C,0,-1.7795415879,-0.5671151014,-0.4544595183\C,0,-1.96493
 41452,-1.9738748116,-0.9451075369\C,0,-0.5172155094,-0.0126550851,-0.1
 252263749\C,0,0.7395977568,-0.7763724013,-0.2365313688\O,0,1.813883126
 6,-0.0345860312,0.133737236\C,0,3.0899021315,-0.7027636252,0.056510093
 1\C,0,4.144160261,0.2877860611,0.5075094532\O,0,0.8420902725,-1.931606
 1859,-0.6103537104\C,0,-0.5219941634,1.3185156625,0.3184723875\N,0,-1.
 6184321288,2.0559517497,0.4393264319\H,0,-3.8579418412,3.0980967465,0.
 5312957507\H,0,-4.7821741915,1.7191991428,-0.0344520157\H,0,-1.5797711
 231,-2.6931494952,-0.2179465251\H,0,-3.026383741,-2.1472048028,-1.1242
 019399\H,0,-1.3921937203,-2.1451414336,-1.8600424587\H,0,3.2526101547,
 -1.0389129147,-0.9721195876\H,0,3.0626288902,-1.5939438671,0.691020307
 6\H,0,4.1501095316,1.1709633815,-0.1374011243\H,0,3.9590526791,0.61279
 00948,1.5351547165\H,0,5.1338855585,-0.1767283935,0.4655462745\H,0,0.4
 160571811,1.7961388698,0.585021128\\Version=ES64L-G16RevC.01\State=1-A
 '\HF=-626.2037283\RMSD=1.900e-09\Dipole=-0.0920254,0.6118259,0.1936694
 \Quadrupole=9.8435763,-5.1892951,-4.6542812,-3.7595599,0.3809499,-0.66
 78626\PG=CS [SG(C8H5N3O2),X(H6)]\\@
 The archive entry for this job was punched.


 THE CAUTIOUS SELDOM ERR...CONFUCIUS                   
 Job cpu time:       0 days  0 hours 32 minutes  5.5 seconds.
 Elapsed time:       0 days  0 hours  2 minutes 10.2 seconds.
 File lengths (MBytes):  RWF=    128 Int=      0 D2E=      0 Chk=     21 Scr=      1
 Normal termination of Gaussian 16 at Wed Aug 14 20:23:55 2024.
 
 
-----Kestrel cluster job statistics-----
Time info:

real	9m8.141s
user	142m2.916s
sys	0m17.680s
 
Disk space usage:
21M	/scratch/362985.kestrel.chem.wisc.edu
