 Entering Gaussian System, Link 0=/share/apps/gaussian/g16/g16
 Initial command:
 /share/apps/gaussian/g16/l1.exe "/scratch/363001.kestrel.chem.wisc.edu/Gau-90532.inp" -scrdir="/scratch/363001.kestrel.chem.wisc.edu/"
 Entering Link 1 = /share/apps/gaussian/g16/l1.exe PID=     90533.
  
 Copyright (c) 1988-2019, Gaussian, Inc.  All Rights Reserved.
  
 This is part of the Gaussian(R) 16 program.  It is based on
 the Gaussian(R) 09 system (copyright 2009, Gaussian, Inc.),
 the Gaussian(R) 03 system (copyright 2003, Gaussian, Inc.),
 the Gaussian(R) 98 system (copyright 1998, Gaussian, Inc.),
 the Gaussian(R) 94 system (copyright 1995, Gaussian, Inc.),
 the Gaussian 92(TM) system (copyright 1992, Gaussian, Inc.),
 the Gaussian 90(TM) system (copyright 1990, Gaussian, Inc.),
 the Gaussian 88(TM) system (copyright 1988, Gaussian, Inc.),
 the Gaussian 86(TM) system (copyright 1986, Carnegie Mellon
 University), and the Gaussian 82(TM) system (copyright 1983,
 Carnegie Mellon University). Gaussian is a federally registered
 trademark of Gaussian, Inc.
  
 This software contains proprietary and confidential information,
 including trade secrets, belonging to Gaussian, Inc.
  
 This software is provided under written license and may be
 used, copied, transmitted, or stored only in accord with that
 written license.
  
 The following legend is applicable only to US Government
 contracts under FAR:
  
                    RESTRICTED RIGHTS LEGEND
  
 Use, reproduction and disclosure by the US Government is
 subject to restrictions as set forth in subparagraphs (a)
 and (c) of the Commercial Computer Software - Restricted
 Rights clause in FAR 52.227-19.
  
 Gaussian, Inc.
 340 Quinnipiac St., Bldg. 40, Wallingford CT 06492
  
  
 ---------------------------------------------------------------
 Warning -- This program may not be used in any manner that
 competes with the business of Gaussian, Inc. or will provide
 assistance to any competitor of Gaussian, Inc.  The licensee
 of this program is prohibited from giving any competitor of
 Gaussian, Inc. access to this program.  By using this program,
 the user acknowledges that Gaussian, Inc. is engaged in the
 business of creating and licensing software in the field of
 computational chemistry and represents and warrants to the
 licensee that it is not a competitor of Gaussian, Inc. and that
 it will not use this program in any manner prohibited above.
 ---------------------------------------------------------------
  

 Cite this work as:
 Gaussian 16, Revision C.01,
 M. J. Frisch, G. W. Trucks, H. B. Schlegel, G. E. Scuseria, 
 M. A. Robb, J. R. Cheeseman, G. Scalmani, V. Barone, 
 G. A. Petersson, H. Nakatsuji, X. Li, M. Caricato, A. V. Marenich, 
 J. Bloino, B. G. Janesko, R. Gomperts, B. Mennucci, H. P. Hratchian, 
 J. V. Ortiz, A. F. Izmaylov, J. L. Sonnenberg, D. Williams-Young, 
 F. Ding, F. Lipparini, F. Egidi, J. Goings, B. Peng, A. Petrone, 
 T. Henderson, D. Ranasinghe, V. G. Zakrzewski, J. Gao, N. Rega, 
 G. Zheng, W. Liang, M. Hada, M. Ehara, K. Toyota, R. Fukuda, 
 J. Hasegawa, M. Ishida, T. Nakajima, Y. Honda, O. Kitao, H. Nakai, 
 T. Vreven, K. Throssell, J. A. Montgomery, Jr., J. E. Peralta, 
 F. Ogliaro, M. J. Bearpark, J. J. Heyd, E. N. Brothers, K. N. Kudin, 
 V. N. Staroverov, T. A. Keith, R. Kobayashi, J. Normand, 
 K. Raghavachari, A. P. Rendell, J. C. Burant, S. S. Iyengar, 
 J. Tomasi, M. Cossi, J. M. Millam, M. Klene, C. Adamo, R. Cammi, 
 J. W. Ochterski, R. L. Martin, K. Morokuma, O. Farkas, 
 J. B. Foresman, and D. J. Fox, Gaussian, Inc., Wallingford CT, 2019.
 
 ******************************************
 Gaussian 16:  ES64L-G16RevC.01  3-Jul-2019
                14-Aug-2024 
 ******************************************
 %nprocs=16
 Will use up to   16 processors via shared memory.
 %mem=16GB
 %chk=pyrz2_conf-2.chk
 ----------------------------------------------------------------------
 # B3LYP/6-31G(d,p) symmetry=loose empiricaldispersion=GD3BJ int=(grid=
 ultrafine) opt freq=noraman
 ----------------------------------------------------------------------
 1/18=20,19=15,26=4,38=1/1,3;
 2/9=110,12=2,17=4,18=3,40=1/2;
 3/5=1,6=6,7=101,11=2,25=1,30=1,71=1,74=-5,75=-5,124=41/1,2,3;
 4//1;
 5/5=2,38=5/2;
 6/7=2,8=2,9=2,10=2,28=1/1;
 7//1,2,3,16;
 1/18=20,19=15,26=4/3(2);
 2/9=110/2;
 99//99;
 2/9=110/2;
 3/5=1,6=6,7=101,11=2,25=1,30=1,71=1,74=-5,75=-5,124=41/1,2,3;
 4/5=5,16=3,69=1/1;
 5/5=2,38=5/2;
 7//1,2,3,16;
 1/18=20,19=15,26=4/3(-5);
 2/9=110/2;
 6/7=2,8=2,9=2,10=2,19=2,28=1/1;
 99/9=1/99;
 ---------
 pyrz2.xyz
 ---------
 Symbolic Z-matrix:
 Charge =  0 Multiplicity = 1
 Cl                   -4.1518    1.2901   -0.2954 
 C                    -2.4829    0.8575   -0.1714 
 C                    -2.0766   -0.4804   -0.2227 
 C                    -3.0566   -1.6329   -0.3886 
 N                    -0.7643   -0.8171   -0.125 
 C                     0.1641    0.17      0.0252 
 C                     1.5806   -0.3279    0.1219 
 O                     2.5114    0.6462    0.2764 
 C                     3.89      0.3124    0.3813 
 O                     1.8819   -1.5236    0.0663 
 C                    -0.2632    1.5155    0.0751 
 N                     0.589     2.6015    0.2246 
 N                    -1.5723    1.8506   -0.0225 
 H                    -2.556    -2.6028   -0.4071 
 H                    -3.6121   -1.5263   -1.321 
 H                    -3.7724   -1.6426    0.4341 
 H                     4.4875    1.2161    0.5 
 H                     4.2351   -0.2089   -0.5133 
 H                     4.0717   -0.3317    1.2433 
 H                     0.2009    3.5308    0.2508 
 H                     1.5796    2.416     0.3037 
 

 GradGradGradGradGradGradGradGradGradGradGradGradGradGradGradGradGradGrad
 Berny optimization.
 Initialization pass.
                           ----------------------------
                           !    Initial Parameters    !
                           ! (Angstroms and Degrees)  !
 --------------------------                            --------------------------
 ! Name  Definition              Value          Derivative Info.                !
 --------------------------------------------------------------------------------
 ! R1    R(1,2)                  1.7285         estimate D2E/DX2                !
 ! R2    R(2,3)                  1.3992         estimate D2E/DX2                !
 ! R3    R(2,13)                 1.3556         estimate D2E/DX2                !
 ! R4    R(3,4)                  1.5219         estimate D2E/DX2                !
 ! R5    R(3,5)                  1.3583         estimate D2E/DX2                !
 ! R6    R(4,14)                 1.0916         estimate D2E/DX2                !
 ! R7    R(4,15)                 1.0906         estimate D2E/DX2                !
 ! R8    R(4,16)                 1.0905         estimate D2E/DX2                !
 ! R9    R(5,6)                  1.3634         estimate D2E/DX2                !
 ! R10   R(6,7)                  1.5046         estimate D2E/DX2                !
 ! R11   R(6,11)                 1.4126         estimate D2E/DX2                !
 ! R12   R(7,8)                  1.3561         estimate D2E/DX2                !
 ! R13   R(7,10)                 1.2343         estimate D2E/DX2                !
 ! R14   R(8,9)                  1.4223         estimate D2E/DX2                !
 ! R15   R(9,17)                 1.0898         estimate D2E/DX2                !
 ! R16   R(9,18)                 1.0914         estimate D2E/DX2                !
 ! R17   R(9,19)                 1.0913         estimate D2E/DX2                !
 ! R18   R(11,12)                1.3885         estimate D2E/DX2                !
 ! R19   R(11,13)                1.3548         estimate D2E/DX2                !
 ! R20   R(12,20)                1.0074         estimate D2E/DX2                !
 ! R21   R(12,21)                1.0109         estimate D2E/DX2                !
 ! A1    A(1,2,3)              121.1349         estimate D2E/DX2                !
 ! A2    A(1,2,13)             118.2359         estimate D2E/DX2                !
 ! A3    A(3,2,13)             120.6292         estimate D2E/DX2                !
 ! A4    A(2,3,4)              122.76           estimate D2E/DX2                !
 ! A5    A(2,3,5)              120.993          estimate D2E/DX2                !
 ! A6    A(4,3,5)              116.247          estimate D2E/DX2                !
 ! A7    A(3,4,14)             112.2956         estimate D2E/DX2                !
 ! A8    A(3,4,15)             110.3148         estimate D2E/DX2                !
 ! A9    A(3,4,16)             110.3135         estimate D2E/DX2                !
 ! A10   A(14,4,15)            107.8152         estimate D2E/DX2                !
 ! A11   A(14,4,16)            107.8111         estimate D2E/DX2                !
 ! A12   A(15,4,16)            108.1509         estimate D2E/DX2                !
 ! A13   A(3,5,6)              119.0998         estimate D2E/DX2                !
 ! A14   A(5,6,7)              114.1155         estimate D2E/DX2                !
 ! A15   A(5,6,11)             119.1777         estimate D2E/DX2                !
 ! A16   A(7,6,11)             126.7068         estimate D2E/DX2                !
 ! A17   A(6,7,8)              114.57           estimate D2E/DX2                !
 ! A18   A(6,7,10)             123.1947         estimate D2E/DX2                !
 ! A19   A(8,7,10)             122.2353         estimate D2E/DX2                !
 ! A20   A(7,8,9)              120.3375         estimate D2E/DX2                !
 ! A21   A(8,9,17)             110.171          estimate D2E/DX2                !
 ! A22   A(8,9,18)             110.9851         estimate D2E/DX2                !
 ! A23   A(8,9,19)             110.987          estimate D2E/DX2                !
 ! A24   A(17,9,18)            108.1787         estimate D2E/DX2                !
 ! A25   A(17,9,19)            108.1855         estimate D2E/DX2                !
 ! A26   A(18,9,19)            108.2338         estimate D2E/DX2                !
 ! A27   A(6,11,12)            124.2721         estimate D2E/DX2                !
 ! A28   A(6,11,13)            121.6901         estimate D2E/DX2                !
 ! A29   A(12,11,13)           114.0377         estimate D2E/DX2                !
 ! A30   A(11,12,20)           119.1983         estimate D2E/DX2                !
 ! A31   A(11,12,21)           117.7956         estimate D2E/DX2                !
 ! A32   A(20,12,21)           123.0061         estimate D2E/DX2                !
 ! A33   A(2,13,11)            118.4102         estimate D2E/DX2                !
 ! D1    D(1,2,3,4)              0.0043         estimate D2E/DX2                !
 ! D2    D(1,2,3,5)            179.9984         estimate D2E/DX2                !
 ! D3    D(13,2,3,4)          -179.9948         estimate D2E/DX2                !
 ! D4    D(13,2,3,5)            -0.0007         estimate D2E/DX2                !
 ! D5    D(1,2,13,11)          179.9975         estimate D2E/DX2                !
 ! D6    D(3,2,13,11)           -0.0034         estimate D2E/DX2                !
 ! D7    D(2,3,4,14)           179.9906         estimate D2E/DX2                !
 ! D8    D(2,3,4,15)            59.699          estimate D2E/DX2                !
 ! D9    D(2,3,4,16)           -59.724          estimate D2E/DX2                !
 ! D10   D(5,3,4,14)            -0.0037         estimate D2E/DX2                !
 ! D11   D(5,3,4,15)          -120.2953         estimate D2E/DX2                !
 ! D12   D(5,3,4,16)           120.2817         estimate D2E/DX2                !
 ! D13   D(2,3,5,6)              0.004          estimate D2E/DX2                !
 ! D14   D(4,3,5,6)            179.9984         estimate D2E/DX2                !
 ! D15   D(3,5,6,7)            179.9942         estimate D2E/DX2                !
 ! D16   D(3,5,6,11)            -0.0031         estimate D2E/DX2                !
 ! D17   D(5,6,7,8)           -179.772          estimate D2E/DX2                !
 ! D18   D(5,6,7,10)             0.2277         estimate D2E/DX2                !
 ! D19   D(11,6,7,8)             0.2251         estimate D2E/DX2                !
 ! D20   D(11,6,7,10)         -179.7752         estimate D2E/DX2                !
 ! D21   D(5,6,11,12)         -179.9866         estimate D2E/DX2                !
 ! D22   D(5,6,11,13)           -0.0011         estimate D2E/DX2                !
 ! D23   D(7,6,11,12)            0.0165         estimate D2E/DX2                !
 ! D24   D(7,6,11,13)         -179.998          estimate D2E/DX2                !
 ! D25   D(6,7,8,9)            179.9885         estimate D2E/DX2                !
 ! D26   D(10,7,8,9)            -0.0112         estimate D2E/DX2                !
 ! D27   D(7,8,9,17)          -179.9943         estimate D2E/DX2                !
 ! D28   D(7,8,9,18)            60.2118         estimate D2E/DX2                !
 ! D29   D(7,8,9,19)           -60.1907         estimate D2E/DX2                !
 ! D30   D(6,11,12,20)        -179.9858         estimate D2E/DX2                !
 ! D31   D(6,11,12,21)          -0.0618         estimate D2E/DX2                !
 ! D32   D(13,11,12,20)          0.0277         estimate D2E/DX2                !
 ! D33   D(13,11,12,21)        179.9517         estimate D2E/DX2                !
 ! D34   D(6,11,13,2)            0.0043         estimate D2E/DX2                !
 ! D35   D(12,11,13,2)         179.9912         estimate D2E/DX2                !
 --------------------------------------------------------------------------------
 Trust Radius=3.00D-01 FncErr=1.00D-07 GrdErr=1.00D-06 EigMax=2.50D+02 EigMin=1.00D-04
 Number of steps in this run=     99 maximum allowed number of steps=    126.
 GradGradGradGradGradGradGradGradGradGradGradGradGradGradGradGradGradGrad

                          Input orientation:                          
 ---------------------------------------------------------------------
 Center     Atomic      Atomic             Coordinates (Angstroms)
 Number     Number       Type             X           Y           Z
 ---------------------------------------------------------------------
      1         17           0       -4.151800    1.290100   -0.295400
      2          6           0       -2.482900    0.857500   -0.171400
      3          6           0       -2.076600   -0.480400   -0.222700
      4          6           0       -3.056600   -1.632900   -0.388600
      5          7           0       -0.764300   -0.817100   -0.125000
      6          6           0        0.164100    0.170000    0.025200
      7          6           0        1.580600   -0.327900    0.121900
      8          8           0        2.511400    0.646200    0.276400
      9          6           0        3.890000    0.312400    0.381300
     10          8           0        1.881900   -1.523600    0.066300
     11          6           0       -0.263200    1.515500    0.075100
     12          7           0        0.589000    2.601500    0.224600
     13          7           0       -1.572300    1.850600   -0.022500
     14          1           0       -2.556000   -2.602800   -0.407100
     15          1           0       -3.612100   -1.526300   -1.321000
     16          1           0       -3.772400   -1.642600    0.434100
     17          1           0        4.487500    1.216100    0.500000
     18          1           0        4.235100   -0.208900   -0.513300
     19          1           0        4.071700   -0.331700    1.243300
     20          1           0        0.200900    3.530800    0.250800
     21          1           0        1.579600    2.416000    0.303700
 ---------------------------------------------------------------------
                    Distance matrix (angstroms):
                    1          2          3          4          5
     1  Cl   0.000000
     2  C    1.728510   0.000000
     3  C    2.728811   1.399174   0.000000
     4  C    3.122832   2.564839   1.521900   0.000000
     5  N    3.993055   2.400005   1.358324   2.447377   0.000000
     6  C    4.470392   2.741882   2.346319   3.714107   1.363398
     7  C    5.970969   4.243021   3.676563   4.844302   2.408076
     8  O    6.718616   5.018785   4.750587   6.053028   3.610066
     9  C    8.129229   6.420005   6.049270   7.254805   4.816079
    10  O    6.667329   4.977712   4.103841   4.960611   2.745562
    11  C    3.912708   2.328260   2.713065   4.234445   2.394194
    12  N    4.946247   3.554563   4.099220   5.621081   3.693300
    13  N    2.653762   1.355585   2.393316   3.804201   2.789264
    14  H    4.208768   3.469088   2.183669   1.091627   2.545289
    15  H    3.045528   2.877356   2.158224   1.090557   3.169124
    16  H    3.045791   2.877489   2.158201   1.090550   3.169023
    17  H    8.676154   7.011836   6.818197   8.112944   5.666210
    18  H    8.522592   6.810700   6.324217   7.430492   5.051206
    19  H    8.521959   6.810165   6.322409   7.427576   5.049233
    20  H    4.925959   3.811505   4.636910   6.138724   4.469572
    21  H    5.871586   4.377048   4.694042   6.194128   4.016290
                    6          7          8          9         10
     6  C    0.000000
     7  C    1.504569   0.000000
     8  O    2.408254   1.356145   0.000000
     9  C    3.745586   2.410519   1.422310   0.000000
    10  O    2.412635   1.234330   2.269018   2.739085   0.000000
    11  C    1.412602   2.607664   2.914551   4.334775   3.719901
    12  N    2.476387   3.094382   2.742536   4.020091   4.325864
    13  N    2.416977   3.835035   4.268082   5.689098   4.829556
    14  H    3.908228   4.750418   6.058194   7.118348   4.591703
    15  H    4.353088   5.521074   6.690941   7.909497   5.666449
    16  H    4.353016   5.520916   6.689515   7.908046   5.667499
    17  H    4.473427   3.313150   2.068757   1.089848   3.805680
    18  H    4.123905   2.732034   2.079895   1.091401   2.757158
    19  H    4.123689   2.731873   2.079837   1.091295   2.757024
    20  H    3.368564   4.099970   3.695941   4.897406   5.329799
    21  H    2.669404   2.749916   2.000297   3.125556   3.958307
                   11         12         13         14         15
    11  C    0.000000
    12  N    1.388521   0.000000
    13  N    1.354829   2.301332   0.000000
    14  H    4.738127   6.113494   4.576937   0.000000
    15  H    4.734636   6.089077   4.153353   1.763353   0.000000
    16  H    4.734655   6.089178   4.153477   1.763301   1.766238
    17  H    4.779051   4.146502   6.115290   8.063357   8.743015
    18  H    4.853295   4.662284   6.181288   7.201463   7.997904
    19  H    4.854709   4.665899   6.182186   7.197786   8.188009
    20  H    2.075498   1.007426   2.458049   6.756802   6.525625
    21  H    2.063751   1.010918   3.218782   6.541925   6.718268
                   16         17         18         19         20
    16  H    0.000000
    17  H    8.740850   0.000000
    18  H    8.189818   1.766666   0.000000
    19  H    7.993946   1.766655   1.768452   0.000000
    20  H    6.525701   4.877999   5.553735   5.557612   0.000000
    21  H    6.718120   3.151853   3.822207   3.826652   1.773807
                   21
    21  H    0.000000
 Stoichiometry    C7H8ClN3O2
 Framework group  C1[X(C7H8ClN3O2)]
 Deg. of freedom    57
 Full point group                 C1      NOp   1
 Largest Abelian subgroup         C1      NOp   1
 Largest concise Abelian subgroup C1      NOp   1
                         Standard orientation:                         
 ---------------------------------------------------------------------
 Center     Atomic      Atomic             Coordinates (Angstroms)
 Number     Number       Type             X           Y           Z
 ---------------------------------------------------------------------
      1         17           0        3.663839   -0.655081    0.000669
      2          6           0        1.967760   -0.321823    0.000096
      3          6           0        1.488787    0.992815    0.000512
      4          6           0        2.409378    2.204711    0.001386
      5          7           0        0.155304    1.251399    0.000026
      6          6           0       -0.722423    0.208113   -0.000796
      7          6           0       -2.169006    0.621786   -0.001128
      8          8           0       -3.050267   -0.408986    0.002963
      9          6           0       -4.450137   -0.157331    0.003386
     10          8           0       -2.534748    1.800680   -0.004802
     11          6           0       -0.221994   -1.112878   -0.001188
     12          7           0       -1.018015   -2.250569   -0.002288
     13          7           0        1.108203   -1.370046   -0.000789
     14          1           0        1.855615    3.145452    0.001442
     15          1           0        3.049620    2.194470   -0.881394
     16          1           0        3.048662    2.193890    0.884844
     17          1           0       -5.001015   -1.097698    0.006997
     18          1           0       -4.746036    0.407232   -0.882543
     19          1           0       -4.744428    0.413184    0.885898
     20          1           0       -0.579206   -3.157406   -0.002281
     21          1           0       -2.020997   -2.124144   -0.001880
 ---------------------------------------------------------------------
 Rotational constants (GHZ):           1.5868058           0.3895966           0.3140217
 Standard basis: 6-31G(d,p) (6D, 7F)
 There are   239 symmetry adapted cartesian basis functions of A   symmetry.
 There are   239 symmetry adapted basis functions of A   symmetry.
   239 basis functions,   444 primitive gaussians,   239 cartesian basis functions
    52 alpha electrons       52 beta electrons
       nuclear repulsion energy       872.1423791829 Hartrees.
 NAtoms=   21 NActive=   21 NUniq=   21 SFac= 1.00D+00 NAtFMM=   60 NAOKFM=F Big=F
 Integral buffers will be    131072 words long.
 Raffenetti 2 integral format.
 Two-electron integral symmetry is turned on.
 Nuclear repulsion after empirical dispersion term =      872.1020795403 Hartrees.
 One-electron integrals computed using PRISM.
 NBasis=   239 RedAO= T EigKep=  9.42D-04  NBF=   239
 NBsUse=   239 1.00D-06 EigRej= -1.00D+00 NBFU=   239
 ExpMin= 1.43D-01 ExpMax= 2.52D+04 ExpMxC= 3.78D+03 IAcc=3 IRadAn=         5 AccDes= 0.00D+00
 Harris functional with IExCor=  402 and IRadAn=       5 diagonalized for initial guess.
 HarFok:  IExCor=  402 AccDes= 0.00D+00 IRadAn=         5 IDoV= 1 UseB2=F ITyADJ=14
 ICtDFT=  3500011 ScaDFX=  1.000000  1.000000  1.000000  1.000000
 FoFCou: FMM=F IPFlag=           0 FMFlag=      100000 FMFlg1=           0
         NFxFlg=           0 DoJE=T BraDBF=F KetDBF=T FulRan=T
         wScrn=  0.000000 ICntrl=       500 IOpCl=  0 I1Cent=   200000004 NGrid=           0
         NMat0=    1 NMatS0=      1 NMatT0=    0 NMatD0=    1 NMtDS0=    0 NMtDT0=    0
 Petite list used in FoFCou.
 Requested convergence on RMS density matrix=1.00D-08 within 128 cycles.
 Requested convergence on MAX density matrix=1.00D-06.
 Requested convergence on             energy=1.00D-06.
 No special actions if energy rises.
 Integral accuracy reduced to 1.0D-05 until final iterations.
 Initial convergence to 1.0D-05 achieved.  Increase integral accuracy.
 SCF Done:  E(RB3LYP) =  -1046.52124716     A.U. after   15 cycles
            NFock= 15  Conv=0.59D-08     -V/T= 2.0069

 **********************************************************************

            Population analysis using the SCF Density.

 **********************************************************************

 Orbital symmetries:
       Occupied  (A) (A) (A) (A) (A) (A) (A) (A) (A) (A) (A) (A)
                 (A) (A) (A) (A) (A) (A) (A) (A) (A) (A) (A) (A)
                 (A) (A) (A) (A) (A) (A) (A) (A) (A) (A) (A) (A)
                 (A) (A) (A) (A) (A) (A) (A) (A) (A) (A) (A) (A)
                 (A) (A) (A) (A)
       Virtual   (A) (A) (A) (A) (A) (A) (A) (A) (A) (A) (A) (A)
                 (A) (A) (A) (A) (A) (A) (A) (A) (A) (A) (A) (A)
                 (A) (A) (A) (A) (A) (A) (A) (A) (A) (A) (A) (A)
                 (A) (A) (A) (A) (A) (A) (A) (A) (A) (A) (A) (A)
                 (A) (A) (A) (A) (A) (A) (A) (A) (A) (A) (A) (A)
                 (A) (A) (A) (A) (A) (A) (A) (A) (A) (A) (A) (A)
                 (A) (A) (A) (A) (A) (A) (A) (A) (A) (A) (A) (A)
                 (A) (A) (A) (A) (A) (A) (A) (A) (A) (A) (A) (A)
                 (A) (A) (A) (A) (A) (A) (A) (A) (A) (A) (A) (A)
                 (A) (A) (A) (A) (A) (A) (A) (A) (A) (A) (A) (A)
                 (A) (A) (A) (A) (A) (A) (A) (A) (A) (A) (A) (A)
                 (A) (A) (A) (A) (A) (A) (A) (A) (A) (A) (A) (A)
                 (A) (A) (A) (A) (A) (A) (A) (A) (A) (A) (A) (A)
                 (A) (A) (A) (A) (A) (A) (A) (A) (A) (A) (A) (A)
                 (A) (A) (A) (A) (A) (A) (A) (A) (A) (A) (A) (A)
                 (A) (A) (A) (A) (A) (A) (A)
 The electronic state is 1-A.
 Alpha  occ. eigenvalues -- -101.56437 -19.21244 -19.13688 -14.35936 -14.35856
 Alpha  occ. eigenvalues --  -14.35611 -10.32909 -10.29835 -10.29156 -10.25598
 Alpha  occ. eigenvalues --  -10.24842 -10.24441 -10.18583  -9.48109  -7.24503
 Alpha  occ. eigenvalues --   -7.23561  -7.23467  -1.11220  -1.01158  -0.99659
 Alpha  occ. eigenvalues --   -0.92815  -0.90869  -0.85723  -0.78909  -0.75085
 Alpha  occ. eigenvalues --   -0.70625  -0.66750  -0.63884  -0.59244  -0.56690
 Alpha  occ. eigenvalues --   -0.53626  -0.52209  -0.49616  -0.49380  -0.47427
 Alpha  occ. eigenvalues --   -0.45691  -0.45674  -0.43720  -0.41627  -0.40613
 Alpha  occ. eigenvalues --   -0.39972  -0.38749  -0.36599  -0.36417  -0.33983
 Alpha  occ. eigenvalues --   -0.33387  -0.30862  -0.30846  -0.29172  -0.27449
 Alpha  occ. eigenvalues --   -0.26725  -0.22857
 Alpha virt. eigenvalues --   -0.07533  -0.02176   0.03285   0.03416   0.08485
 Alpha virt. eigenvalues --    0.10227   0.11016   0.12557   0.13904   0.13919
 Alpha virt. eigenvalues --    0.15407   0.16657   0.17328   0.18474   0.19723
 Alpha virt. eigenvalues --    0.21833   0.23704   0.25764   0.28290   0.29938
 Alpha virt. eigenvalues --    0.32261   0.35479   0.37387   0.38773   0.41890
 Alpha virt. eigenvalues --    0.43878   0.44505   0.46508   0.47831   0.49096
 Alpha virt. eigenvalues --    0.49713   0.50375   0.51965   0.54399   0.54980
 Alpha virt. eigenvalues --    0.55912   0.57280   0.57378   0.59754   0.62422
 Alpha virt. eigenvalues --    0.62532   0.64355   0.64878   0.65154   0.66715
 Alpha virt. eigenvalues --    0.69616   0.71475   0.72811   0.75012   0.75361
 Alpha virt. eigenvalues --    0.77563   0.79632   0.80720   0.82013   0.82718
 Alpha virt. eigenvalues --    0.84693   0.85395   0.85518   0.85954   0.86154
 Alpha virt. eigenvalues --    0.87237   0.88323   0.89045   0.90783   0.92050
 Alpha virt. eigenvalues --    0.94536   0.95344   0.96516   0.96600   0.98608
 Alpha virt. eigenvalues --    0.99660   1.03417   1.05235   1.06451   1.07430
 Alpha virt. eigenvalues --    1.09328   1.17060   1.18798   1.21588   1.25335
 Alpha virt. eigenvalues --    1.26094   1.26891   1.30409   1.30531   1.31251
 Alpha virt. eigenvalues --    1.36711   1.37055   1.39114   1.41905   1.44386
 Alpha virt. eigenvalues --    1.44744   1.48564   1.49671   1.53616   1.53818
 Alpha virt. eigenvalues --    1.55909   1.61759   1.64971   1.66765   1.72319
 Alpha virt. eigenvalues --    1.72799   1.73831   1.75888   1.78207   1.80968
 Alpha virt. eigenvalues --    1.82754   1.84190   1.85062   1.85425   1.88485
 Alpha virt. eigenvalues --    1.89732   1.93130   1.94632   1.96108   1.99471
 Alpha virt. eigenvalues --    2.01678   2.01983   2.04486   2.04564   2.04637
 Alpha virt. eigenvalues --    2.06184   2.07620   2.10124   2.12420   2.14466
 Alpha virt. eigenvalues --    2.15052   2.16625   2.17534   2.19003   2.24171
 Alpha virt. eigenvalues --    2.25587   2.30800   2.31426   2.32244   2.35784
 Alpha virt. eigenvalues --    2.37525   2.39576   2.43268   2.47472   2.48749
 Alpha virt. eigenvalues --    2.50622   2.54517   2.57369   2.57456   2.60632
 Alpha virt. eigenvalues --    2.61961   2.64226   2.65114   2.66878   2.67363
 Alpha virt. eigenvalues --    2.70905   2.74846   2.76901   2.79774   2.82201
 Alpha virt. eigenvalues --    2.83333   2.84120   2.86926   2.87873   2.93064
 Alpha virt. eigenvalues --    2.94370   2.99247   3.05117   3.14217   3.16822
 Alpha virt. eigenvalues --    3.18893   3.24306   3.37465   3.40108   3.42355
 Alpha virt. eigenvalues --    3.43226   3.45887   3.50020   3.60053   3.92878
 Alpha virt. eigenvalues --    4.02080   4.04181   4.04419   4.14252   4.28766
 Alpha virt. eigenvalues --    4.35469   4.36344   4.41620   4.47362   4.53480
 Alpha virt. eigenvalues --    4.61108   4.76207
          Condensed to atoms (all electrons):
               1          2          3          4          5          6
     1  Cl  16.827301   0.266384  -0.076727   0.003698   0.003101   0.000597
     2  C    0.266384   5.073717   0.391943  -0.085021  -0.034293  -0.039663
     3  C   -0.076727   0.391943   4.776158   0.371862   0.445347  -0.048279
     4  C    0.003698  -0.085021   0.371862   5.031139  -0.080113   0.007665
     5  N    0.003101  -0.034293   0.445347  -0.080113   6.883164   0.415766
     6  C    0.000597  -0.039663  -0.048279   0.007665   0.415766   5.133173
     7  C    0.000023  -0.000174   0.007288  -0.000124  -0.072761   0.293878
     8  O   -0.000000  -0.000005  -0.000022   0.000000   0.001531  -0.083537
     9  C    0.000000   0.000000   0.000001  -0.000000  -0.000062   0.006818
    10  O   -0.000000  -0.000027   0.000467   0.000006  -0.001262  -0.069229
    11  C    0.003583  -0.053254  -0.024422   0.001076  -0.057740   0.338661
    12  N   -0.000100   0.005089   0.000787   0.000008   0.003755  -0.082019
    13  N   -0.073189   0.402433  -0.040513   0.004472  -0.041591  -0.049126
    14  H    0.000183   0.005558  -0.020105   0.366560   0.003626  -0.000047
    15  H    0.001601  -0.002554  -0.028165   0.374602   0.001616  -0.000162
    16  H    0.001601  -0.002556  -0.028168   0.374593   0.001618  -0.000161
    17  H   -0.000000   0.000000  -0.000000   0.000000   0.000001   0.000031
    18  H    0.000000   0.000000  -0.000000   0.000000   0.000002  -0.000058
    19  H    0.000000   0.000000  -0.000000   0.000000   0.000002  -0.000061
    20  H   -0.000040  -0.000056  -0.000031  -0.000001  -0.000074   0.006049
    21  H    0.000003  -0.000142  -0.000019  -0.000000  -0.000013  -0.007641
               7          8          9         10         11         12
     1  Cl   0.000023  -0.000000   0.000000  -0.000000   0.003583  -0.000100
     2  C   -0.000174  -0.000005   0.000000  -0.000027  -0.053254   0.005089
     3  C    0.007288  -0.000022   0.000001   0.000467  -0.024422   0.000787
     4  C   -0.000124   0.000000  -0.000000   0.000006   0.001076   0.000008
     5  N   -0.072761   0.001531  -0.000062  -0.001262  -0.057740   0.003755
     6  C    0.293878  -0.083537   0.006818  -0.069229   0.338661  -0.082019
     7  C    4.443173   0.231631  -0.017900   0.548569  -0.056769  -0.003455
     8  O    0.231631   8.295914   0.215754  -0.084138   0.004818  -0.020789
     9  C   -0.017900   0.215754   4.713949   0.006366  -0.000606   0.000503
    10  O    0.548569  -0.084138   0.006366   8.056340   0.003283  -0.000030
    11  C   -0.056769   0.004818  -0.000606   0.003283   4.624945   0.318910
    12  N   -0.003455  -0.020789   0.000503  -0.000030   0.318910   6.870223
    13  N    0.003639   0.000033   0.000001  -0.000023   0.455836  -0.100962
    14  H   -0.000035   0.000000  -0.000000   0.000005  -0.000011  -0.000000
    15  H    0.000003  -0.000000   0.000000  -0.000000   0.000010  -0.000000
    16  H    0.000003  -0.000000   0.000000  -0.000000   0.000010  -0.000000
    17  H    0.003559  -0.029626   0.387593   0.000425  -0.000033   0.000119
    18  H   -0.003823  -0.031470   0.386697   0.005056   0.000023  -0.000035
    19  H   -0.003829  -0.031450   0.386730   0.005057   0.000023  -0.000035
    20  H   -0.000271   0.000461  -0.000015   0.000001  -0.014832   0.331372
    21  H    0.001685   0.031310  -0.001130   0.000227  -0.017996   0.330081
              13         14         15         16         17         18
     1  Cl  -0.073189   0.000183   0.001601   0.001601  -0.000000   0.000000
     2  C    0.402433   0.005558  -0.002554  -0.002556   0.000000   0.000000
     3  C   -0.040513  -0.020105  -0.028165  -0.028168  -0.000000  -0.000000
     4  C    0.004472   0.366560   0.374602   0.374593   0.000000   0.000000
     5  N   -0.041591   0.003626   0.001616   0.001618   0.000001   0.000002
     6  C   -0.049126  -0.000047  -0.000162  -0.000161   0.000031  -0.000058
     7  C    0.003639  -0.000035   0.000003   0.000003   0.003559  -0.003823
     8  O    0.000033   0.000000  -0.000000  -0.000000  -0.029626  -0.031470
     9  C    0.000001  -0.000000   0.000000   0.000000   0.387593   0.386697
    10  O   -0.000023   0.000005  -0.000000  -0.000000   0.000425   0.005056
    11  C    0.455836  -0.000011   0.000010   0.000010  -0.000033   0.000023
    12  N   -0.100962  -0.000000  -0.000000  -0.000000   0.000119  -0.000035
    13  N    6.917285  -0.000086   0.000004   0.000004  -0.000000   0.000000
    14  H   -0.000086   0.555518  -0.025785  -0.025793   0.000000  -0.000000
    15  H    0.000004  -0.025785   0.580271  -0.031660  -0.000000   0.000000
    16  H    0.000004  -0.025793  -0.031660   0.580306  -0.000000  -0.000000
    17  H   -0.000000   0.000000  -0.000000  -0.000000   0.588623  -0.036025
    18  H    0.000000  -0.000000   0.000000  -0.000000  -0.036025   0.577558
    19  H    0.000000  -0.000000  -0.000000   0.000000  -0.036006  -0.036341
    20  H    0.004636   0.000000   0.000000   0.000000  -0.000004   0.000001
    21  H    0.004107   0.000000  -0.000000  -0.000000  -0.000474   0.000188
              19         20         21
     1  Cl   0.000000  -0.000040   0.000003
     2  C    0.000000  -0.000056  -0.000142
     3  C   -0.000000  -0.000031  -0.000019
     4  C    0.000000  -0.000001  -0.000000
     5  N    0.000002  -0.000074  -0.000013
     6  C   -0.000061   0.006049  -0.007641
     7  C   -0.003829  -0.000271   0.001685
     8  O   -0.031450   0.000461   0.031310
     9  C    0.386730  -0.000015  -0.001130
    10  O    0.005057   0.000001   0.000227
    11  C    0.000023  -0.014832  -0.017996
    12  N   -0.000035   0.331372   0.330081
    13  N    0.000000   0.004636   0.004107
    14  H   -0.000000   0.000000   0.000000
    15  H   -0.000000   0.000000  -0.000000
    16  H    0.000000   0.000000  -0.000000
    17  H   -0.036006  -0.000004  -0.000474
    18  H   -0.036341   0.000001   0.000188
    19  H    0.577428   0.000001   0.000189
    20  H    0.000001   0.410119  -0.020055
    21  H    0.000189  -0.020055   0.387696
 Mulliken charges:
               1
     1  Cl   0.041983
     2  C    0.072622
     3  C    0.272598
     4  C   -0.370422
     5  N   -0.471620
     6  C    0.177345
     7  C    0.625689
     8  O   -0.500414
     9  C   -0.084697
    10  O   -0.471093
    11  C    0.474486
    12  N   -0.653422
    13  N   -0.486960
    14  H    0.140413
    15  H    0.130219
    16  H    0.130205
    17  H    0.121819
    18  H    0.138229
    19  H    0.138293
    20  H    0.282742
    21  H    0.291985
 Sum of Mulliken charges =  -0.00000
 Mulliken charges with hydrogens summed into heavy atoms:
               1
     1  Cl   0.041983
     2  C    0.072622
     3  C    0.272598
     4  C    0.030416
     5  N   -0.471620
     6  C    0.177345
     7  C    0.625689
     8  O   -0.500414
     9  C    0.313644
    10  O   -0.471093
    11  C    0.474486
    12  N   -0.078696
    13  N   -0.486960
 Electronic spatial extent (au):  <R**2>=           3267.3688
 Charge=             -0.0000 electrons
 Dipole moment (field-independent basis, Debye):
    X=             -2.1240    Y=             -2.8183    Z=              0.0073  Tot=              3.5291
 Quadrupole moment (field-independent basis, Debye-Ang):
   XX=            -67.3773   YY=            -82.0508   ZZ=            -80.6512
   XY=             13.4987   XZ=             -0.0224   YZ=              0.0228
 Traceless Quadrupole moment (field-independent basis, Debye-Ang):
   XX=              9.3158   YY=             -5.3577   ZZ=             -3.9581
   XY=             13.4987   XZ=             -0.0224   YZ=              0.0228
 Octapole moment (field-independent basis, Debye-Ang**2):
  XXX=            -86.1864  YYY=            -35.1334  ZZZ=             -0.0008  XYY=              3.6326
  XXY=            -12.9836  XXZ=              0.1009  XZZ=             -5.0166  YZZ=              2.5549
  YYZ=              0.0302  XYZ=             -0.0536
 Hexadecapole moment (field-independent basis, Debye-Ang**3):
 XXXX=          -2733.4811 YYYY=           -791.6250 ZZZZ=            -89.0230 XXXY=             64.1495
 XXXZ=             -0.4096 YYYX=             65.2750 YYYZ=              0.0982 ZZZX=              0.0244
 ZZZY=             -0.0298 XXYY=           -689.5850 XXZZ=           -535.0279 YYZZ=           -165.4641
 XXYZ=              0.1149 YYXZ=             -0.0934 ZZXY=             -7.7128
 N-N= 8.721020795403D+02 E-N=-4.204356692008D+03  KE= 1.039349684013D+03
 Calling FoFJK, ICntrl=      2127 FMM=F ISym2X=0 I1Cent= 0 IOpClX= 0 NMat=1 NMatS=1 NMatT=0.
 ***** Axes restored to original set *****
 -------------------------------------------------------------------
 Center     Atomic                   Forces (Hartrees/Bohr)
 Number     Number              X              Y              Z
 -------------------------------------------------------------------
      1       17          -0.003729341    0.003164377   -0.000129760
      2        6           0.047070376    0.022923299    0.005815306
      3        6           0.012450601   -0.033681036   -0.001106485
      4        6           0.004019906    0.006227401    0.000787276
      5        7          -0.005740169    0.027880163    0.001315200
      6        6          -0.010799355   -0.021132258   -0.002341773
      7        6           0.007500475   -0.044899471   -0.002466484
      8        8          -0.009371596    0.020977534    0.000590713
      9        6           0.008814553   -0.015167750   -0.000311750
     10        8          -0.006580896    0.036855357    0.001982739
     11        6           0.004301033    0.037337612    0.002868035
     12        7          -0.006974565   -0.026074399   -0.002372610
     13        7          -0.022144109   -0.021906375   -0.003472864
     14        1           0.005175862    0.004064766    0.000738081
     15        1          -0.003532510    0.000700682   -0.001341279
     16        1          -0.003733346    0.000562801    0.000765034
     17        1          -0.008126866    0.005540605   -0.000361145
     18        1          -0.001942700   -0.002043040   -0.001361834
     19        1          -0.002127390   -0.002217051    0.000740410
     20        1          -0.000976499   -0.002804998   -0.000271175
     21        1          -0.003553465    0.003691781   -0.000065636
 -------------------------------------------------------------------
 Cartesian Forces:  Max     0.047070376 RMS     0.014479459

 GradGradGradGradGradGradGradGradGradGradGradGradGradGradGradGradGradGrad
 Berny optimization.
 FormGI is forming the generalized inverse of G from B-inverse, IUseBI=4.
 Internal  Forces:  Max     0.037397320 RMS     0.008960523
 Search for a local minimum.
 Step number   1 out of a maximum of   99
 All quantities printed in internal units (Hartrees-Bohrs-Radians)
 Mixed Optimization -- RFO/linear search
 Second derivative matrix not updated -- first step.
 ITU=  0
     Eigenvalues ---    0.00476   0.00706   0.01220   0.01375   0.01397
     Eigenvalues ---    0.01527   0.01844   0.01844   0.01968   0.02021
     Eigenvalues ---    0.02149   0.02179   0.02253   0.02272   0.06958
     Eigenvalues ---    0.07187   0.10108   0.10204   0.16000   0.16000
     Eigenvalues ---    0.16000   0.16000   0.16000   0.16000   0.16000
     Eigenvalues ---    0.16000   0.25000   0.25000   0.25000   0.25000
     Eigenvalues ---    0.25000   0.25000   0.25000   0.25000   0.25000
     Eigenvalues ---    0.25000   0.30184   0.31903   0.32667   0.34625
     Eigenvalues ---    0.34651   0.34663   0.34748   0.34749   0.34830
     Eigenvalues ---    0.41464   0.42114   0.44963   0.45819   0.46406
     Eigenvalues ---    0.47577   0.49330   0.51815   0.53305   0.53704
     Eigenvalues ---    0.53734   0.89306
 RFO step:  Lambda=-1.71453535D-02 EMin= 4.76254901D-03
 Linear search not attempted -- first point.
 Iteration  1 RMS(Cart)=  0.05626770 RMS(Int)=  0.00061878
 Iteration  2 RMS(Cart)=  0.00115209 RMS(Int)=  0.00012004
 Iteration  3 RMS(Cart)=  0.00000022 RMS(Int)=  0.00012004
 Variable       Old X    -DE/DX   Delta X   Delta X   Delta X     New X
                                 (Linear)    (Quad)   (Total)
    R1        3.26641   0.00440   0.00000   0.01280   0.01280   3.27921
    R2        2.64406   0.00614   0.00000   0.01198   0.01211   2.65616
    R3        2.56168  -0.03533   0.00000  -0.06393  -0.06387   2.49781
    R4        2.87597  -0.01010   0.00000  -0.03166  -0.03166   2.84432
    R5        2.56686  -0.02656   0.00000  -0.04878  -0.04870   2.51816
    R6        2.06288  -0.00125   0.00000  -0.00344  -0.00344   2.05943
    R7        2.06085   0.00301   0.00000   0.00827   0.00827   2.06912
    R8        2.06084   0.00302   0.00000   0.00829   0.00829   2.06913
    R9        2.57645  -0.02371   0.00000  -0.04358  -0.04363   2.53282
   R10        2.84322  -0.01090   0.00000  -0.03243  -0.03243   2.81080
   R11        2.66943   0.00542   0.00000   0.01297   0.01284   2.68227
   R12        2.56274  -0.00374   0.00000  -0.00675  -0.00675   2.55599
   R13        2.33255  -0.03740   0.00000  -0.04109  -0.04109   2.29146
   R14        2.68778  -0.00011   0.00000  -0.00026  -0.00026   2.68752
   R15        2.05952   0.00010   0.00000   0.00027   0.00027   2.05979
   R16        2.06245   0.00148   0.00000   0.00407   0.00407   2.06651
   R17        2.06225   0.00154   0.00000   0.00423   0.00423   2.06648
   R18        2.62392  -0.02705   0.00000  -0.05488  -0.05488   2.56904
   R19        2.56026  -0.01240   0.00000  -0.02178  -0.02186   2.53840
   R20        1.90376  -0.00222   0.00000  -0.00461  -0.00461   1.89915
   R21        1.91036  -0.00416   0.00000  -0.00876  -0.00876   1.90160
    A1        2.11420  -0.00443   0.00000  -0.01542  -0.01551   2.09869
    A2        2.06361  -0.01141   0.00000  -0.04155  -0.04163   2.02197
    A3        2.10538   0.01585   0.00000   0.05697   0.05714   2.16252
    A4        2.14257   0.00230   0.00000   0.00993   0.00983   2.15240
    A5        2.11173  -0.00937   0.00000  -0.03768  -0.03748   2.07425
    A6        2.02889   0.00706   0.00000   0.02775   0.02765   2.05654
    A7        1.95993  -0.00969   0.00000  -0.05544  -0.05534   1.90458
    A8        1.92536   0.00259   0.00000   0.01494   0.01491   1.94027
    A9        1.92533   0.00259   0.00000   0.01498   0.01496   1.94029
   A10        1.88173   0.00354   0.00000   0.01927   0.01936   1.90109
   A11        1.88166   0.00354   0.00000   0.01932   0.01941   1.90107
   A12        1.88759  -0.00233   0.00000  -0.01175  -0.01188   1.87571
   A13        2.07868   0.00010   0.00000  -0.00005  -0.00001   2.07867
   A14        1.99169  -0.00146   0.00000  -0.00664  -0.00655   1.98514
   A15        2.08004   0.00650   0.00000   0.02672   0.02654   2.10658
   A16        2.21145  -0.00505   0.00000  -0.02008  -0.01999   2.19146
   A17        1.99962  -0.00954   0.00000  -0.03571  -0.03571   1.96392
   A18        2.15015   0.00785   0.00000   0.02938   0.02938   2.17953
   A19        2.13341   0.00169   0.00000   0.00633   0.00633   2.13974
   A20        2.10029  -0.02495   0.00000  -0.09341  -0.09341   2.00687
   A21        1.92285  -0.01342   0.00000  -0.07719  -0.07764   1.84521
   A22        1.93706  -0.00030   0.00000  -0.00097  -0.00125   1.93581
   A23        1.93709  -0.00031   0.00000  -0.00107  -0.00135   1.93574
   A24        1.88807   0.00656   0.00000   0.03569   0.03524   1.92331
   A25        1.88819   0.00655   0.00000   0.03560   0.03515   1.92334
   A26        1.88904   0.00154   0.00000   0.01135   0.01121   1.90025
   A27        2.16896  -0.00083   0.00000  -0.00441  -0.00431   2.16465
   A28        2.12389  -0.00591   0.00000  -0.01950  -0.01970   2.10419
   A29        1.99033   0.00674   0.00000   0.02391   0.02401   2.01435
   A30        2.08040  -0.00443   0.00000  -0.02501  -0.02501   2.05539
   A31        2.05592   0.00507   0.00000   0.02860   0.02860   2.08452
   A32        2.14686  -0.00064   0.00000  -0.00359  -0.00359   2.14327
   A33        2.06665  -0.00718   0.00000  -0.02645  -0.02649   2.04016
    D1        0.00008  -0.00000   0.00000  -0.00001  -0.00001   0.00006
    D2        3.14156   0.00000   0.00000   0.00008   0.00008  -3.14155
    D3       -3.14150  -0.00001   0.00000  -0.00014  -0.00014   3.14155
    D4       -0.00001  -0.00000   0.00000  -0.00005  -0.00005  -0.00006
    D5        3.14155  -0.00000   0.00000  -0.00009  -0.00009   3.14146
    D6       -0.00006   0.00000   0.00000   0.00003   0.00003  -0.00003
    D7        3.14143  -0.00000   0.00000   0.00002   0.00002   3.14145
    D8        1.04194   0.00020   0.00000   0.00226   0.00234   1.04429
    D9       -1.04238  -0.00019   0.00000  -0.00213  -0.00221  -1.04459
   D10       -0.00006  -0.00000   0.00000  -0.00006  -0.00006  -0.00013
   D11       -2.09955   0.00020   0.00000   0.00218   0.00226  -2.09729
   D12        2.09931  -0.00019   0.00000  -0.00221  -0.00230   2.09702
   D13        0.00007  -0.00000   0.00000  -0.00000  -0.00000   0.00007
   D14        3.14157   0.00000   0.00000   0.00008   0.00008  -3.14154
   D15        3.14149   0.00001   0.00000   0.00034   0.00034  -3.14135
   D16       -0.00005   0.00000   0.00000   0.00006   0.00006   0.00001
   D17       -3.13761  -0.00002   0.00000  -0.00085  -0.00085  -3.13846
   D18        0.00397  -0.00002   0.00000  -0.00078  -0.00078   0.00319
   D19        0.00393  -0.00001   0.00000  -0.00055  -0.00055   0.00337
   D20       -3.13767  -0.00001   0.00000  -0.00048  -0.00048  -3.13815
   D21       -3.14136  -0.00001   0.00000  -0.00012  -0.00012  -3.14148
   D22       -0.00002  -0.00000   0.00000  -0.00008  -0.00008  -0.00010
   D23        0.00029  -0.00002   0.00000  -0.00043  -0.00043  -0.00015
   D24       -3.14156  -0.00001   0.00000  -0.00039  -0.00039   3.14123
   D25        3.14139   0.00001   0.00000   0.00017   0.00017   3.14156
   D26       -0.00020   0.00000   0.00000   0.00010   0.00010  -0.00010
   D27       -3.14149   0.00001   0.00000   0.00008   0.00007  -3.14142
   D28        1.05089   0.00076   0.00000   0.00647   0.00620   1.05710
   D29       -1.05053  -0.00077   0.00000  -0.00650  -0.00623  -1.05676
   D30       -3.14135   0.00000   0.00000   0.00009   0.00009  -3.14126
   D31       -0.00108  -0.00002   0.00000  -0.00045  -0.00045  -0.00153
   D32        0.00048   0.00000   0.00000   0.00005   0.00005   0.00054
   D33        3.14075  -0.00002   0.00000  -0.00048  -0.00048   3.14027
   D34        0.00008   0.00000   0.00000   0.00003   0.00003   0.00011
   D35        3.14144   0.00000   0.00000   0.00006   0.00006   3.14150
         Item               Value     Threshold  Converged?
 Maximum Force            0.037397     0.000450     NO 
 RMS     Force            0.008961     0.000300     NO 
 Maximum Displacement     0.206847     0.001800     NO 
 RMS     Displacement     0.057126     0.001200     NO 
 Predicted change in Energy=-9.020819D-03
 GradGradGradGradGradGradGradGradGradGradGradGradGradGradGradGradGradGrad

                          Input orientation:                          
 ---------------------------------------------------------------------
 Center     Atomic      Atomic             Coordinates (Angstroms)
 Number     Number       Type             X           Y           Z
 ---------------------------------------------------------------------
      1         17           0       -4.078115    1.302544   -0.288674
      2          6           0       -2.406525    0.853414   -0.165046
      3          6           0       -2.031114   -0.499996   -0.219886
      4          6           0       -3.016826   -1.625485   -0.384561
      5          7           0       -0.739637   -0.813404   -0.122101
      6          6           0        0.160155    0.168976    0.025311
      7          6           0        1.563644   -0.314020    0.121848
      8          8           0        2.449995    0.696296    0.273815
      9          6           0        3.810114    0.292521    0.371862
     10          8           0        1.901474   -1.477555    0.072567
     11          6           0       -0.251087    1.526498    0.077230
     12          7           0        0.602020    2.574678    0.224577
     13          7           0       -1.550982    1.850580   -0.020730
     14          1           0       -2.478189   -2.572781   -0.397787
     15          1           0       -3.580228   -1.524278   -1.317948
     16          1           0       -3.740996   -1.640213    0.436564
     17          1           0        4.383523    1.212097    0.488750
     18          1           0        4.126097   -0.237262   -0.531101
     19          1           0        3.962241   -0.359769    1.236265
     20          1           0        0.208146    3.498921    0.249788
     21          1           0        1.589890    2.400738    0.304958
 ---------------------------------------------------------------------
                    Distance matrix (angstroms):
                    1          2          3          4          5
     1  Cl   0.000000
     2  C    1.735285   0.000000
     3  C    2.728387   1.405582   0.000000
     4  C    3.115907   2.562342   1.505148   0.000000
     5  N    3.956060   2.357677   1.332553   2.431861   0.000000
     6  C    4.398466   2.663182   2.304193   3.671688   1.340309
     7  C    5.883133   4.148187   3.615751   4.791356   2.369389
     8  O    6.580285   4.878839   4.664246   5.975806   3.551014
     9  C    7.980014   6.264940   5.924373   7.131482   4.708217
    10  O    6.604160   4.903951   4.062807   4.941713   2.730286
    11  C    3.850998   2.271046   2.713568   4.218715   2.398657
    12  N    4.877029   3.487964   4.072415   5.577496   3.660509
    13  N    2.599719   1.321786   2.407363   3.789999   2.786641
    14  H    4.194020   3.434838   2.127900   1.089805   2.488769
    15  H    3.049298   2.891398   2.157463   1.094932   3.162965
    16  H    3.049498   2.891527   2.157480   1.094937   3.162891
    17  H    8.497758   6.830875   6.676901   7.973689   5.542794
    18  H    8.350980   6.633153   6.170667   7.278048   4.916766
    19  H    8.350811   6.632998   6.169307   7.275747   4.915140
    20  H    4.846241   3.742632   4.607192   6.087888   4.430885
    21  H    5.803853   4.311200   4.669196   6.156926   3.992466
                    6          7          8          9         10
     6  C    0.000000
     7  C    1.487409   0.000000
     8  O    2.362877   1.352572   0.000000
     9  C    3.668455   2.340305   1.422172   0.000000
    10  O    2.396974   1.212588   2.251001   2.620239   0.000000
    11  C    1.419395   2.585101   2.832618   4.254746   3.695656
    12  N    2.454048   3.046285   2.635480   3.939772   4.258202
    13  N    2.399563   3.795619   4.174559   5.596699   4.796315
    14  H    3.828459   4.659231   5.951883   6.953062   4.538964
    15  H    4.319944   5.476966   6.620290   7.795728   5.655508
    16  H    4.319870   5.476956   6.619225   7.794801   5.656538
    17  H    4.374896   3.227285   2.012655   1.089991   3.683477
    18  H    4.025334   2.645448   2.080562   1.093552   2.617573
    19  H    4.025150   2.645238   2.080498   1.093534   2.617327
    20  H    3.337848   4.048736   3.589034   4.823907   5.259665
    21  H    2.665166   2.721054   1.909417   3.062426   3.897724
                   11         12         13         14         15
    11  C    0.000000
    12  N    1.359479   0.000000
    13  N    1.343262   2.284712   0.000000
    14  H    4.689318   6.030866   4.535196   0.000000
    15  H    4.726196   6.055742   4.146116   1.777792   0.000000
    16  H    4.726166   6.055744   4.146193   1.777782   1.765673
    17  H    4.663455   4.028174   5.990458   7.886339   8.612388
    18  H    4.758220   4.571343   6.070320   7.006355   7.852578
    19  H    4.759570   4.574449   6.071352   7.003334   8.047914
    20  H    2.032517   1.004986   2.425849   6.670930   6.483988
    21  H    2.050696   1.006282   3.205281   6.463668   6.691016
                   16         17         18         19         20
    16  H    0.000000
    17  H    8.610820   0.000000
    18  H    8.049584   1.790812   0.000000
    19  H    7.849772   1.790816   1.779168   0.000000
    20  H    6.483927   4.766596   5.469843   5.473194   0.000000
    21  H    6.690662   3.041551   3.753716   3.757098   1.765861
                   21
    21  H    0.000000
 Stoichiometry    C7H8ClN3O2
 Framework group  C1[X(C7H8ClN3O2)]
 Deg. of freedom    57
 Full point group                 C1      NOp   1
 Largest Abelian subgroup         C1      NOp   1
 Largest concise Abelian subgroup C1      NOp   1
                         Standard orientation:                         
 ---------------------------------------------------------------------
 Center     Atomic      Atomic             Coordinates (Angstroms)
 Number     Number       Type             X           Y           Z
 ---------------------------------------------------------------------
      1         17           0        3.606509   -0.660851    0.000260
      2          6           0        1.906454   -0.312961   -0.000052
      3          6           0        1.456243    1.018568    0.000469
      4          6           0        2.382814    2.204712    0.001227
      5          7           0        0.144604    1.253731    0.000266
      6          6           0       -0.703666    0.216010   -0.000345
      7          6           0       -2.136814    0.614097   -0.000834
      8          8           0       -2.970430   -0.451044    0.002465
      9          6           0       -4.355802   -0.129617    0.002213
     10          8           0       -2.538678    1.758154   -0.003887
     11          6           0       -0.217322   -1.117463   -0.000765
     12          7           0       -1.015192   -2.218184   -0.001516
     13          7           0        1.103347   -1.362788   -0.000671
     14          1           0        1.791183    3.119943    0.001372
     15          1           0        3.030770    2.200868   -0.881390
     16          1           0        3.030177    2.200230    0.884283
     17          1           0       -4.880659   -1.084916    0.005251
     18          1           0       -4.623011    0.445149   -0.888910
     19          1           0       -4.622056    0.450310    0.890251
     20          1           0       -0.569946   -3.119157   -0.001464
     21          1           0       -2.015000   -2.104229   -0.000465
 ---------------------------------------------------------------------
 Rotational constants (GHZ):           1.6052375           0.4031783           0.3235491
 Standard basis: 6-31G(d,p) (6D, 7F)
 There are   239 symmetry adapted cartesian basis functions of A   symmetry.
 There are   239 symmetry adapted basis functions of A   symmetry.
   239 basis functions,   444 primitive gaussians,   239 cartesian basis functions
    52 alpha electrons       52 beta electrons
       nuclear repulsion energy       882.6920479117 Hartrees.
 NAtoms=   21 NActive=   21 NUniq=   21 SFac= 1.00D+00 NAtFMM=   60 NAOKFM=F Big=F
 Integral buffers will be    131072 words long.
 Raffenetti 2 integral format.
 Two-electron integral symmetry is turned on.
 Nuclear repulsion after empirical dispersion term =      882.6512012760 Hartrees.
 One-electron integrals computed using PRISM.
 NBasis=   239 RedAO= T EigKep=  8.94D-04  NBF=   239
 NBsUse=   239 1.00D-06 EigRej= -1.00D+00 NBFU=   239
 Initial guess from the checkpoint file:  "pyrz2_conf-2.chk"
 B after Tr=     0.000000   -0.000000   -0.000000
         Rot=    1.000000   -0.000000   -0.000004   -0.000626 Ang=  -0.07 deg.
 ExpMin= 1.43D-01 ExpMax= 2.52D+04 ExpMxC= 3.78D+03 IAcc=3 IRadAn=         5 AccDes= 0.00D+00
 Harris functional with IExCor=  402 and IRadAn=       5 diagonalized for initial guess.
 HarFok:  IExCor=  402 AccDes= 0.00D+00 IRadAn=         5 IDoV= 1 UseB2=F ITyADJ=14
 ICtDFT=  3500011 ScaDFX=  1.000000  1.000000  1.000000  1.000000
 FoFCou: FMM=F IPFlag=           0 FMFlag=      100000 FMFlg1=           0
         NFxFlg=           0 DoJE=T BraDBF=F KetDBF=T FulRan=T
         wScrn=  0.000000 ICntrl=       500 IOpCl=  0 I1Cent=   200000004 NGrid=           0
         NMat0=    1 NMatS0=      1 NMatT0=    0 NMatD0=    1 NMtDS0=    0 NMtDT0=    0
 Petite list used in FoFCou.
 Requested convergence on RMS density matrix=1.00D-08 within 128 cycles.
 Requested convergence on MAX density matrix=1.00D-06.
 Requested convergence on             energy=1.00D-06.
 No special actions if energy rises.
 Integral accuracy reduced to 1.0D-05 until final iterations.
 Initial convergence to 1.0D-05 achieved.  Increase integral accuracy.
 SCF Done:  E(RB3LYP) =  -1046.53024986     A.U. after   13 cycles
            NFock= 13  Conv=0.58D-08     -V/T= 2.0064
 Calling FoFJK, ICntrl=      2127 FMM=F ISym2X=0 I1Cent= 0 IOpClX= 0 NMat=1 NMatS=1 NMatT=0.
 ***** Axes restored to original set *****
 -------------------------------------------------------------------
 Center     Atomic                   Forces (Hartrees/Bohr)
 Number     Number              X              Y              Z
 -------------------------------------------------------------------
      1       17          -0.008433478    0.000723666   -0.000728686
      2        6           0.012543793    0.009197259    0.001761946
      3        6          -0.002000267   -0.012383918   -0.001001548
      4        6          -0.000329563    0.001860981    0.000096548
      5        7          -0.002988384    0.009216603    0.000323109
      6        6           0.000045408   -0.008313562   -0.000536593
      7        6          -0.006414757   -0.012124818   -0.001457751
      8        8           0.001646698    0.006208555    0.000587896
      9        6           0.010963769   -0.001300856    0.000916624
     10        8           0.000250688    0.005051844    0.000390997
     11        6           0.010603903    0.011575472    0.001747203
     12        7          -0.003290228   -0.004708358   -0.000627167
     13        7          -0.009378251   -0.008028331   -0.001391781
     14        1           0.000986210    0.000275007    0.000107352
     15        1          -0.000752056   -0.000063245    0.000419507
     16        1          -0.000662482    0.000002772   -0.000554573
     17        1           0.000341009   -0.000001424    0.000033954
     18        1          -0.000905807   -0.000065930    0.000760852
     19        1          -0.000745040    0.000047923   -0.000908930
     20        1          -0.000592724    0.001006860    0.000017360
     21        1          -0.000888440    0.001823501    0.000043681
 -------------------------------------------------------------------
 Cartesian Forces:  Max     0.012543793 RMS     0.004832216

 GradGradGradGradGradGradGradGradGradGradGradGradGradGradGradGradGradGrad
 Berny optimization.
 Using GEDIIS/GDIIS optimizer.
 FormGI is forming the generalized inverse of G from B-inverse, IUseBI=4.
 Internal  Forces:  Max     0.011210558 RMS     0.003254110
 Search for a local minimum.
 Step number   2 out of a maximum of   99
 All quantities printed in internal units (Hartrees-Bohrs-Radians)
 Mixed Optimization -- RFO/linear search
 Update second derivatives using D2CorX and points    1    2
 DE= -9.00D-03 DEPred=-9.02D-03 R= 9.98D-01
 TightC=F SS=  1.41D+00  RLast= 2.29D-01 DXNew= 5.0454D-01 6.8557D-01
 Trust test= 9.98D-01 RLast= 2.29D-01 DXMaxT set to 5.05D-01
 ITU=  1  0
 Use linear search instead of GDIIS.
     Eigenvalues ---    0.00476   0.00706   0.01209   0.01349   0.01397
     Eigenvalues ---    0.01540   0.01844   0.01844   0.01968   0.02019
     Eigenvalues ---    0.02148   0.02177   0.02252   0.02272   0.07086
     Eigenvalues ---    0.07257   0.10187   0.10665   0.15001   0.16000
     Eigenvalues ---    0.16000   0.16000   0.16000   0.16000   0.16000
     Eigenvalues ---    0.16147   0.21731   0.25000   0.25000   0.25000
     Eigenvalues ---    0.25000   0.25000   0.25000   0.25000   0.25000
     Eigenvalues ---    0.29003   0.30120   0.32101   0.33905   0.34628
     Eigenvalues ---    0.34657   0.34692   0.34749   0.34829   0.34993
     Eigenvalues ---    0.40367   0.41941   0.44487   0.45803   0.46397
     Eigenvalues ---    0.47223   0.49342   0.50872   0.52150   0.53673
     Eigenvalues ---    0.61079   0.88153
 RFO step:  Lambda=-2.93573441D-03 EMin= 4.76254901D-03
 Quartic linear search produced a step of  0.01935.
 Iteration  1 RMS(Cart)=  0.05941080 RMS(Int)=  0.00068739
 Iteration  2 RMS(Cart)=  0.00122438 RMS(Int)=  0.00001796
 Iteration  3 RMS(Cart)=  0.00000053 RMS(Int)=  0.00001796
 Variable       Old X    -DE/DX   Delta X   Delta X   Delta X     New X
                                 (Linear)    (Quad)   (Total)
    R1        3.27921   0.00836   0.00025   0.02774   0.02799   3.30720
    R2        2.65616   0.00279   0.00023   0.00702   0.00724   2.66340
    R3        2.49781  -0.00601  -0.00124  -0.02132  -0.02258   2.47523
    R4        2.84432  -0.00106  -0.00061  -0.00826  -0.00888   2.83544
    R5        2.51816  -0.00117  -0.00094  -0.01004  -0.01098   2.50718
    R6        2.05943   0.00025  -0.00007   0.00020   0.00014   2.05957
    R7        2.06912   0.00002   0.00016   0.00130   0.00146   2.07059
    R8        2.06913   0.00002   0.00016   0.00130   0.00146   2.07059
    R9        2.53282   0.00050  -0.00084  -0.00524  -0.00606   2.52676
   R10        2.81080   0.00558  -0.00063   0.01281   0.01218   2.82297
   R11        2.68227   0.00824   0.00025   0.02205   0.02232   2.70459
   R12        2.55599   0.01121  -0.00013   0.02011   0.01998   2.57597
   R13        2.29146  -0.00479  -0.00080  -0.01168  -0.01247   2.27899
   R14        2.68752   0.00966  -0.00001   0.02316   0.02316   2.71067
   R15        2.05979   0.00018   0.00001   0.00057   0.00057   2.06036
   R16        2.06651  -0.00086   0.00008  -0.00189  -0.00181   2.06470
   R17        2.06648  -0.00085   0.00008  -0.00184  -0.00176   2.06472
   R18        2.56904  -0.00450  -0.00106  -0.01783  -0.01889   2.55015
   R19        2.53840   0.00704  -0.00042   0.01039   0.00996   2.54836
   R20        1.89915   0.00116  -0.00009   0.00183   0.00174   1.90089
   R21        1.90160  -0.00118  -0.00017  -0.00393  -0.00410   1.89750
    A1        2.09869  -0.00276  -0.00030  -0.01222  -0.01250   2.08620
    A2        2.02197   0.00214  -0.00081   0.00365   0.00286   2.02484
    A3        2.16252   0.00062   0.00111   0.00857   0.00963   2.17215
    A4        2.15240   0.00065   0.00019   0.00543   0.00562   2.15802
    A5        2.07425  -0.00457  -0.00073  -0.02667  -0.02740   2.04685
    A6        2.05654   0.00392   0.00054   0.02124   0.02178   2.07832
    A7        1.90458  -0.00156  -0.00107  -0.01731  -0.01835   1.88624
    A8        1.94027   0.00080   0.00029   0.00694   0.00723   1.94751
    A9        1.94029   0.00080   0.00029   0.00694   0.00724   1.94753
   A10        1.90109   0.00048   0.00037   0.00621   0.00662   1.90770
   A11        1.90107   0.00048   0.00038   0.00624   0.00664   1.90771
   A12        1.87571  -0.00098  -0.00023  -0.00866  -0.00891   1.86680
   A13        2.07867   0.00837  -0.00000   0.03325   0.03331   2.11198
   A14        1.98514  -0.00237  -0.00013  -0.01174  -0.01189   1.97325
   A15        2.10658  -0.00452   0.00051  -0.01186  -0.01130   2.09528
   A16        2.19146   0.00690  -0.00039   0.02360   0.02319   2.21466
   A17        1.96392   0.00670  -0.00069   0.02169   0.02100   1.98492
   A18        2.17953  -0.00145   0.00057  -0.00148  -0.00092   2.17862
   A19        2.13974  -0.00525   0.00012  -0.02021  -0.02009   2.11965
   A20        2.00687   0.00153  -0.00181  -0.00766  -0.00947   1.99740
   A21        1.84521   0.00107  -0.00150  -0.00294  -0.00447   1.84074
   A22        1.93581  -0.00093  -0.00002  -0.00694  -0.00700   1.92881
   A23        1.93574  -0.00093  -0.00003  -0.00692  -0.00699   1.92875
   A24        1.92331   0.00048   0.00068   0.00970   0.01036   1.93367
   A25        1.92334   0.00047   0.00068   0.00965   0.01031   1.93365
   A26        1.90025  -0.00013   0.00022  -0.00224  -0.00208   1.89817
   A27        2.16465   0.00766  -0.00008   0.02883   0.02875   2.19340
   A28        2.10419  -0.00544  -0.00038  -0.02209  -0.02246   2.08172
   A29        2.01435  -0.00222   0.00046  -0.00674  -0.00628   2.00807
   A30        2.05539  -0.00123  -0.00048  -0.01134  -0.01182   2.04357
   A31        2.08452   0.00218   0.00055   0.01779   0.01834   2.10287
   A32        2.14327  -0.00095  -0.00007  -0.00645  -0.00652   2.13675
   A33        2.04016   0.00554  -0.00051   0.01880   0.01823   2.05839
    D1        0.00006  -0.00000  -0.00000  -0.00013  -0.00013  -0.00007
    D2       -3.14155  -0.00000   0.00000  -0.00014  -0.00014   3.14150
    D3        3.14155   0.00000  -0.00000   0.00000   0.00000   3.14155
    D4       -0.00006  -0.00000  -0.00000  -0.00000  -0.00000  -0.00006
    D5        3.14146   0.00000  -0.00000   0.00009   0.00009   3.14155
    D6       -0.00003  -0.00000   0.00000  -0.00004  -0.00003  -0.00006
    D7        3.14145  -0.00000   0.00000  -0.00000  -0.00000   3.14145
    D8        1.04429  -0.00008   0.00005  -0.00082  -0.00076   1.04353
    D9       -1.04459   0.00009  -0.00004   0.00085   0.00079  -1.04380
   D10       -0.00013  -0.00000  -0.00000   0.00001   0.00000  -0.00012
   D11       -2.09729  -0.00008   0.00004  -0.00082  -0.00075  -2.09804
   D12        2.09702   0.00009  -0.00004   0.00086   0.00080   2.09781
   D13        0.00007   0.00000  -0.00000   0.00005   0.00005   0.00012
   D14       -3.14154   0.00000   0.00000   0.00005   0.00005  -3.14149
   D15       -3.14135   0.00000   0.00001   0.00014   0.00014  -3.14121
   D16        0.00001  -0.00000   0.00000  -0.00007  -0.00007  -0.00006
   D17       -3.13846  -0.00000  -0.00002  -0.00017  -0.00019  -3.13865
   D18        0.00319  -0.00001  -0.00002  -0.00114  -0.00115   0.00204
   D19        0.00337   0.00000  -0.00001   0.00005   0.00004   0.00342
   D20       -3.13815  -0.00001  -0.00001  -0.00091  -0.00092  -3.13908
   D21       -3.14148   0.00000  -0.00000   0.00012   0.00012  -3.14136
   D22       -0.00010   0.00000  -0.00000   0.00003   0.00003  -0.00007
   D23       -0.00015  -0.00000  -0.00001  -0.00012  -0.00013  -0.00028
   D24        3.14123  -0.00000  -0.00001  -0.00021  -0.00022   3.14101
   D25        3.14156  -0.00000   0.00000  -0.00036  -0.00035   3.14121
   D26       -0.00010   0.00001   0.00000   0.00058   0.00058   0.00048
   D27       -3.14142   0.00000   0.00000   0.00000   0.00000  -3.14142
   D28        1.05710  -0.00071   0.00012  -0.00613  -0.00598   1.05112
   D29       -1.05676   0.00071  -0.00012   0.00609   0.00594  -1.05082
   D30       -3.14126   0.00000   0.00000   0.00012   0.00012  -3.14114
   D31       -0.00153  -0.00001  -0.00001  -0.00034  -0.00035  -0.00188
   D32        0.00054   0.00000   0.00000   0.00020   0.00021   0.00074
   D33        3.14027  -0.00000  -0.00001  -0.00026  -0.00026   3.14000
   D34        0.00011   0.00000   0.00000   0.00002   0.00002   0.00013
   D35        3.14150  -0.00000   0.00000  -0.00006  -0.00005   3.14145
         Item               Value     Threshold  Converged?
 Maximum Force            0.011211     0.000450     NO 
 RMS     Force            0.003254     0.000300     NO 
 Maximum Displacement     0.238707     0.001800     NO 
 RMS     Displacement     0.059767     0.001200     NO 
 Predicted change in Energy=-1.492238D-03
 GradGradGradGradGradGradGradGradGradGradGradGradGradGradGradGradGradGrad

                          Input orientation:                          
 ---------------------------------------------------------------------
 Center     Atomic      Atomic             Coordinates (Angstroms)
 Number     Number       Type             X           Y           Z
 ---------------------------------------------------------------------
      1         17           0       -4.103179    1.276878   -0.292913
      2          6           0       -2.409959    0.853107   -0.165397
      3          6           0       -2.027063   -0.502212   -0.219674
      4          6           0       -2.997931   -1.634441   -0.383456
      5          7           0       -0.732111   -0.772694   -0.118719
      6          6           0        0.166630    0.206312    0.028452
      7          6           0        1.569908   -0.297065    0.123428
      8          8           0        2.497439    0.689910    0.277456
      9          6           0        3.850658    0.223380    0.370858
     10          8           0        1.889719   -1.458806    0.073575
     11          6           0       -0.261891    1.570916    0.079237
     12          7           0        0.543697    2.643869    0.223807
     13          7           0       -1.576528    1.853485   -0.022878
     14          1           0       -2.432393   -2.566055   -0.393175
     15          1           0       -3.566534   -1.546145   -1.315908
     16          1           0       -3.726944   -1.661772    0.434087
     17          1           0        4.459760    1.119877    0.489301
     18          1           0        4.131771   -0.319659   -0.534594
     19          1           0        3.967936   -0.441448    1.229943
     20          1           0        0.103245    3.548006    0.243526
     21          1           0        1.537370    2.527057    0.308744
 ---------------------------------------------------------------------
                    Distance matrix (angstroms):
                    1          2          3          4          5
     1  Cl   0.000000
     2  C    1.750096   0.000000
     3  C    2.735102   1.409413   0.000000
     4  C    3.115373   2.565376   1.500451   0.000000
     5  N    3.949074   2.336788   1.326745   2.438572   0.000000
     6  C    4.413690   2.663594   2.318590   3.684085   1.337104
     7  C    5.902081   4.152789   3.619117   4.786508   2.363081
     8  O    6.651166   4.930041   4.705253   6.003208   3.567375
     9  C    8.050713   6.315018   5.951707   7.136081   4.715254
    10  O    6.597962   4.887666   4.042554   4.912112   2.716932
    11  C    3.870458   2.278001   2.739167   4.239612   2.398499
    12  N    4.871255   3.475973   4.086968   5.587113   3.663047
    13  N    2.605640   1.309838   2.406453   3.783653   2.760261
    14  H    4.191624   3.426814   2.110413   1.089877   2.486449
    15  H    3.050240   2.901336   2.159050   1.095707   3.172608
    16  H    3.050532   2.901456   2.159070   1.095711   3.172551
    17  H    8.600025   6.905999   6.724037   7.997819   5.559410
    18  H    8.391766   6.656269   6.169581   7.251492   4.902606
    19  H    8.391343   6.655853   6.168070   7.249109   4.900924
    20  H    4.810383   3.707545   4.599677   6.071915   4.415596
    21  H    5.808677   4.313736   4.707533   6.194042   4.027607
                    6          7          8          9         10
     6  C    0.000000
     7  C    1.493854   0.000000
     8  O    2.393437   1.363143   0.000000
     9  C    3.699945   2.352425   1.434425   0.000000
    10  O    2.396599   1.205987   2.242292   2.600655   0.000000
    11  C    1.431207   2.616638   2.903337   4.337506   3.716002
    12  N    2.474273   3.116453   2.763682   4.100778   4.320449
    13  N    2.398836   3.813965   4.247507   5.680371   4.795356
    14  H    3.823442   4.629645   5.945949   6.916750   4.486035
    15  H    4.337617   5.478589   6.656615   7.809683   5.631074
    16  H    4.337534   5.478648   6.655666   7.808832   5.631880
    17  H    4.413382   3.239263   2.020012   1.090294   3.664361
    18  H    4.039308   2.645117   2.085593   1.092593   2.587339
    19  H    4.038948   2.644949   2.085561   1.092601   2.586733
    20  H    3.349208   4.117050   3.728542   5.011233   5.318697
    21  H    2.709861   2.830382   2.073118   3.265285   4.008311
                   11         12         13         14         15
    11  C    0.000000
    12  N    1.349482   0.000000
    13  N    1.348533   2.276162   0.000000
    14  H    4.695613   6.031674   4.516853   0.000000
    15  H    4.752174   6.068026   4.146026   1.782675   0.000000
    16  H    4.752134   6.068042   4.146099   1.782681   1.761131
    17  H    4.760837   4.210532   6.102235   7.865534   8.647997
    18  H    4.822378   4.715076   6.129362   6.939348   7.834451
    19  H    4.823398   4.717722   6.130037   6.936330   8.029318
    20  H    2.017226   1.005908   2.400835   6.649556   6.469118
    21  H    2.050419   1.004113   3.203128   6.495498   6.729064
                   16         17         18         19         20
    16  H    0.000000
    17  H    8.646545   0.000000
    18  H    8.031128   1.796720   0.000000
    19  H    7.831587   1.796713   1.776307   0.000000
    20  H    6.469038   4.993539   5.638557   5.641330   0.000000
    21  H    6.728670   3.248556   3.942833   3.945666   1.761620
                   21
    21  H    0.000000
 Stoichiometry    C7H8ClN3O2
 Framework group  C1[X(C7H8ClN3O2)]
 Deg. of freedom    57
 Full point group                 C1      NOp   1
 Largest Abelian subgroup         C1      NOp   1
 Largest concise Abelian subgroup C1      NOp   1
                         Standard orientation:                         
 ---------------------------------------------------------------------
 Center     Atomic      Atomic             Coordinates (Angstroms)
 Number     Number       Type             X           Y           Z
 ---------------------------------------------------------------------
      1         17           0        3.629391   -0.616393    0.000219
      2          6           0        1.907867   -0.301444    0.000035
      3          6           0        1.445222    1.029872    0.000419
      4          6           0        2.352223    2.225155    0.001073
      5          7           0        0.131756    1.217110    0.000154
      6          6           0       -0.711899    0.179760   -0.000312
      7          6           0       -2.147438    0.593069   -0.001072
      8          8           0       -3.019801   -0.454371    0.002118
      9          6           0       -4.403080   -0.074745    0.001941
     10          8           0       -2.535367    1.734959   -0.003282
     11          6           0       -0.202997   -1.157914   -0.000606
     12          7           0       -0.947806   -2.283241   -0.001331
     13          7           0        1.130914   -1.355966   -0.000492
     14          1           0        1.731236    3.120815    0.001107
     15          1           0        3.004483    2.236669   -0.879267
     16          1           0        3.003890    2.236185    0.881864
     17          1           0       -4.961568   -1.011133    0.004851
     18          1           0       -4.638306    0.514363   -0.887654
     19          1           0       -4.637157    0.519175    0.888646
     20          1           0       -0.453800   -3.159488   -0.001054
     21          1           0       -1.950530   -2.230455   -0.000092
 ---------------------------------------------------------------------
 Rotational constants (GHZ):           1.5936022           0.3991019           0.3204454
 Standard basis: 6-31G(d,p) (6D, 7F)
 There are   239 symmetry adapted cartesian basis functions of A   symmetry.
 There are   239 symmetry adapted basis functions of A   symmetry.
   239 basis functions,   444 primitive gaussians,   239 cartesian basis functions
    52 alpha electrons       52 beta electrons
       nuclear repulsion energy       879.5987609901 Hartrees.
 NAtoms=   21 NActive=   21 NUniq=   21 SFac= 1.00D+00 NAtFMM=   60 NAOKFM=F Big=F
 Integral buffers will be    131072 words long.
 Raffenetti 2 integral format.
 Two-electron integral symmetry is turned on.
 Nuclear repulsion after empirical dispersion term =      879.5581861561 Hartrees.
 One-electron integrals computed using PRISM.
 NBasis=   239 RedAO= T EigKep=  8.81D-04  NBF=   239
 NBsUse=   239 1.00D-06 EigRej= -1.00D+00 NBFU=   239
 Initial guess from the checkpoint file:  "pyrz2_conf-2.chk"
 B after Tr=    -0.000000   -0.000000   -0.000000
         Rot=    0.999995    0.000017    0.000005   -0.003313 Ang=   0.38 deg.
 ExpMin= 1.43D-01 ExpMax= 2.52D+04 ExpMxC= 3.78D+03 IAcc=3 IRadAn=         5 AccDes= 0.00D+00
 Harris functional with IExCor=  402 and IRadAn=       5 diagonalized for initial guess.
 HarFok:  IExCor=  402 AccDes= 0.00D+00 IRadAn=         5 IDoV= 1 UseB2=F ITyADJ=14
 ICtDFT=  3500011 ScaDFX=  1.000000  1.000000  1.000000  1.000000
 FoFCou: FMM=F IPFlag=           0 FMFlag=      100000 FMFlg1=           0
         NFxFlg=           0 DoJE=T BraDBF=F KetDBF=T FulRan=T
         wScrn=  0.000000 ICntrl=       500 IOpCl=  0 I1Cent=   200000004 NGrid=           0
         NMat0=    1 NMatS0=      1 NMatT0=    0 NMatD0=    1 NMtDS0=    0 NMtDT0=    0
 Petite list used in FoFCou.
 Requested convergence on RMS density matrix=1.00D-08 within 128 cycles.
 Requested convergence on MAX density matrix=1.00D-06.
 Requested convergence on             energy=1.00D-06.
 No special actions if energy rises.
 Integral accuracy reduced to 1.0D-05 until final iterations.
 Initial convergence to 1.0D-05 achieved.  Increase integral accuracy.
 SCF Done:  E(RB3LYP) =  -1046.53093731     A.U. after   12 cycles
            NFock= 12  Conv=0.49D-08     -V/T= 2.0065
 Calling FoFJK, ICntrl=      2127 FMM=F ISym2X=0 I1Cent= 0 IOpClX= 0 NMat=1 NMatS=1 NMatT=0.
 ***** Axes restored to original set *****
 -------------------------------------------------------------------
 Center     Atomic                   Forces (Hartrees/Bohr)
 Number     Number              X              Y              Z
 -------------------------------------------------------------------
      1       17          -0.004116847    0.000294699   -0.000359143
      2        6           0.001362643    0.002108880    0.000261968
      3        6          -0.001656948   -0.000543952   -0.000180843
      4        6           0.000128755   -0.000465224   -0.000018573
      5        7          -0.000464608   -0.000198550   -0.000063100
      6        6           0.000413104    0.001761537    0.000118732
      7        6          -0.000270655    0.002447537    0.000247183
      8        8          -0.004049447    0.006958992    0.000058071
      9        6           0.002264686    0.000549603    0.000256350
     10        8          -0.000358708   -0.006174371   -0.000493528
     11        6           0.002891576   -0.004680082   -0.000043564
     12        7           0.001891299   -0.001244890    0.000083553
     13        7          -0.001384960   -0.000673905   -0.000166799
     14        1          -0.000594914   -0.000861694   -0.000111050
     15        1           0.000475693    0.000039226    0.000377499
     16        1           0.000537330    0.000083192   -0.000277828
     17        1           0.000163857   -0.000600316   -0.000028001
     18        1          -0.000124817    0.000281086    0.000321348
     19        1          -0.000069109    0.000328597   -0.000304590
     20        1           0.000749691    0.001092059    0.000148598
[...]
                 (A) (A) (A) (A)
       Virtual   (A) (A) (A) (A) (A) (A) (A) (A) (A) (A) (A) (A)
                 (A) (A) (A) (A) (A) (A) (A) (A) (A) (A) (A) (A)
                 (A) (A) (A) (A) (A) (A) (A) (A) (A) (A) (A) (A)
                 (A) (A) (A) (A) (A) (A) (A) (A) (A) (A) (A) (A)
                 (A) (A) (A) (A) (A) (A) (A) (A) (A) (A) (A) (A)
                 (A) (A) (A) (A) (A) (A) (A) (A) (A) (A) (A) (A)
                 (A) (A) (A) (A) (A) (A) (A) (A) (A) (A) (A) (A)
                 (A) (A) (A) (A) (A) (A) (A) (A) (A) (A) (A) (A)
                 (A) (A) (A) (A) (A) (A) (A) (A) (A) (A) (A) (A)
                 (A) (A) (A) (A) (A) (A) (A) (A) (A) (A) (A) (A)
                 (A) (A) (A) (A) (A) (A) (A) (A) (A) (A) (A) (A)
                 (A) (A) (A) (A) (A) (A) (A) (A) (A) (A) (A) (A)
                 (A) (A) (A) (A) (A) (A) (A) (A) (A) (A) (A) (A)
                 (A) (A) (A) (A) (A) (A) (A) (A) (A) (A) (A) (A)
                 (A) (A) (A) (A) (A) (A) (A) (A) (A) (A) (A) (A)
                 (A) (A) (A) (A) (A) (A) (A) (A) (A) (A) (A) (A)
                 (A) (A) (A) (A) (A) (A) (A) (A) (A) (A) (A) (A)
                 (A) (A) (A) (A) (A) (A) (A) (A) (A) (A) (A) (A)
                 (A) (A) (A) (A) (A) (A) (A) (A) (A) (A) (A) (A)
                 (A) (A) (A) (A) (A) (A) (A) (A) (A) (A) (A) (A)
                 (A) (A) (A) (A) (A) (A) (A) (A) (A) (A) (A) (A)
                 (A) (A) (A) (A) (A) (A) (A) (A) (A) (A) (A) (A)
                 (A) (A) (A) (A) (A) (A) (A) (A) (A) (A) (A) (A)
                 (A) (A) (A) (A) (A) (A) (A) (A) (A) (A) (A) (A)
                 (A) (A) (A) (A) (A) (A) (A) (A) (A) (A) (A) (A)
                 (A) (A) (A) (A) (A) (A) (A) (A) (A) (A) (A) (A)
                 (A) (A) (A) (A) (A) (A) (A) (A) (A) (A) (A) (A)
                 (A) (A) (A) (A) (A) (A) (A) (A) (A) (A) (A) (A)
                 (A) (A) (A) (A) (A) (A) (A) (A) (A) (A) (A) (A)
                 (A) (A) (A) (A) (A) (A) (A) (A) (A) (A) (A) (A)
                 (A) (A) (A) (A) (A) (A) (A) (A) (A) (A) (A) (A)
                 (A) (A) (A) (A) (A) (A) (A) (A) (A) (A) (A) (A)
                 (A) (A) (A) (A) (A) (A) (A) (A) (A) (A) (A) (A)
                 (A) (A) (A) (A) (A) (A) (A) (A) (A)
 The electronic state is 1-A.
 Alpha  occ. eigenvalues -- -102.65572 -19.68872 -19.62245 -14.77790 -14.77762
 Alpha  occ. eigenvalues --  -14.77751 -10.68468 -10.65638 -10.65272 -10.60398
 Alpha  occ. eigenvalues --  -10.60142 -10.59822 -10.53871  -9.81830  -7.54017
 Alpha  occ. eigenvalues --   -7.53527  -7.53483  -1.24291  -1.14852  -1.12780
 Alpha  occ. eigenvalues --   -1.05632  -1.02600  -0.95437  -0.89190  -0.84252
 Alpha  occ. eigenvalues --   -0.80232  -0.75614  -0.73436  -0.67981  -0.65425
 Alpha  occ. eigenvalues --   -0.62607  -0.60732  -0.58155  -0.57199  -0.56108
 Alpha  occ. eigenvalues --   -0.54436  -0.52647  -0.51109  -0.49033  -0.47892
 Alpha  occ. eigenvalues --   -0.47402  -0.46224  -0.44805  -0.43726  -0.41885
 Alpha  occ. eigenvalues --   -0.40888  -0.39022  -0.38743  -0.36549  -0.36282
 Alpha  occ. eigenvalues --   -0.33554  -0.28316
 Alpha virt. eigenvalues --   -0.04345   0.00613   0.05809   0.06869   0.07316
 Alpha virt. eigenvalues --    0.08032   0.08318   0.10446   0.10984   0.12569
 Alpha virt. eigenvalues --    0.14715   0.15044   0.15547   0.16274   0.17123
 Alpha virt. eigenvalues --    0.18730   0.20061   0.20457   0.21210   0.21526
 Alpha virt. eigenvalues --    0.23467   0.23565   0.25052   0.25882   0.26210
 Alpha virt. eigenvalues --    0.26342   0.27999   0.28151   0.28888   0.30369
 Alpha virt. eigenvalues --    0.31624   0.32293   0.33421   0.33527   0.34284
 Alpha virt. eigenvalues --    0.35050   0.35614   0.36206   0.37718   0.39199
 Alpha virt. eigenvalues --    0.40304   0.40461   0.40573   0.40816   0.41998
 Alpha virt. eigenvalues --    0.42841   0.44461   0.44576   0.45971   0.46148
 Alpha virt. eigenvalues --    0.47339   0.47644   0.48970   0.49809   0.50568
 Alpha virt. eigenvalues --    0.50825   0.51157   0.52093   0.52604   0.53474
 Alpha virt. eigenvalues --    0.53813   0.54286   0.55433   0.56597   0.58688
 Alpha virt. eigenvalues --    0.59284   0.60414   0.60891   0.60898   0.62704
 Alpha virt. eigenvalues --    0.63070   0.63331   0.65768   0.66034   0.66981
 Alpha virt. eigenvalues --    0.68432   0.69417   0.69618   0.71615   0.72134
 Alpha virt. eigenvalues --    0.72789   0.73530   0.74414   0.76932   0.77515
 Alpha virt. eigenvalues --    0.77769   0.80745   0.80980   0.82389   0.84247
 Alpha virt. eigenvalues --    0.85229   0.85625   0.88503   0.88967   0.91734
 Alpha virt. eigenvalues --    0.91780   0.92360   0.94492   0.96048   0.96232
 Alpha virt. eigenvalues --    0.97276   0.99604   1.02969   1.03362   1.04959
 Alpha virt. eigenvalues --    1.05952   1.09910   1.10934   1.11869   1.13504
 Alpha virt. eigenvalues --    1.14075   1.14447   1.21369   1.23660   1.25057
 Alpha virt. eigenvalues --    1.26330   1.27364   1.29406   1.32614   1.34322
 Alpha virt. eigenvalues --    1.36187   1.37430   1.38342   1.42690   1.46511
 Alpha virt. eigenvalues --    1.46605   1.48667   1.48734   1.49757   1.50280
 Alpha virt. eigenvalues --    1.51311   1.51559   1.53640   1.54065   1.55915
 Alpha virt. eigenvalues --    1.56411   1.56439   1.57097   1.57640   1.58857
 Alpha virt. eigenvalues --    1.60918   1.60952   1.61557   1.62741   1.64333
 Alpha virt. eigenvalues --    1.64655   1.66677   1.70432   1.72008   1.72204
 Alpha virt. eigenvalues --    1.72483   1.74817   1.75034   1.77570   1.78641
 Alpha virt. eigenvalues --    1.80140   1.80914   1.83293   1.83386   1.83998
 Alpha virt. eigenvalues --    1.84540   1.87313   1.87629   1.88419   1.88800
 Alpha virt. eigenvalues --    1.90532   1.91957   1.94799   1.95404   1.97044
 Alpha virt. eigenvalues --    1.98508   2.01086   2.01843   2.04737   2.05023
 Alpha virt. eigenvalues --    2.05100   2.07237   2.07530   2.09014   2.09785
 Alpha virt. eigenvalues --    2.11921   2.12810   2.13297   2.14049   2.16048
 Alpha virt. eigenvalues --    2.16264   2.17852   2.19839   2.21269   2.21973
 Alpha virt. eigenvalues --    2.23375   2.25374   2.25560   2.27676   2.28448
 Alpha virt. eigenvalues --    2.30383   2.31614   2.33345   2.34311   2.34613
 Alpha virt. eigenvalues --    2.34972   2.36365   2.37656   2.38003   2.40091
 Alpha virt. eigenvalues --    2.40206   2.40709   2.41481   2.42050   2.46606
 Alpha virt. eigenvalues --    2.51605   2.52689   2.54549   2.55465   2.55912
 Alpha virt. eigenvalues --    2.56393   2.59308   2.61742   2.63748   2.63906
 Alpha virt. eigenvalues --    2.67056   2.67145   2.69383   2.72455   2.73647
 Alpha virt. eigenvalues --    2.77781   2.78503   2.79326   2.81215   2.83456
 Alpha virt. eigenvalues --    2.84332   2.85934   2.87107   2.87842   2.89395
 Alpha virt. eigenvalues --    2.92310   2.95060   2.96273   2.99387   3.00088
 Alpha virt. eigenvalues --    3.01362   3.03831   3.03881   3.04793   3.04871
 Alpha virt. eigenvalues --    3.06718   3.08128   3.09241   3.11587   3.12096
 Alpha virt. eigenvalues --    3.12528   3.14630   3.16111   3.16887   3.17781
 Alpha virt. eigenvalues --    3.18094   3.18611   3.20811   3.21567   3.22817
 Alpha virt. eigenvalues --    3.23993   3.24248   3.27026   3.28390   3.28448
 Alpha virt. eigenvalues --    3.31530   3.31662   3.32267   3.33358   3.34342
 Alpha virt. eigenvalues --    3.35505   3.36054   3.37400   3.37621   3.38527
 Alpha virt. eigenvalues --    3.39071   3.40926   3.43003   3.43261   3.44654
 Alpha virt. eigenvalues --    3.49503   3.51323   3.52569   3.53464   3.55217
 Alpha virt. eigenvalues --    3.56809   3.56826   3.62901   3.64082   3.66631
 Alpha virt. eigenvalues --    3.69498   3.70162   3.73145   3.74965   3.74993
 Alpha virt. eigenvalues --    3.75866   3.79875   3.83513   3.84855   3.88509
 Alpha virt. eigenvalues --    3.93111   3.96051   4.00266   4.00298   4.02967
 Alpha virt. eigenvalues --    4.03828   4.06521   4.10165   4.11337   4.15021
 Alpha virt. eigenvalues --    4.15477   4.16661   4.20803   4.22309   4.22769
 Alpha virt. eigenvalues --    4.23584   4.24016   4.25932   4.31012   4.31188
 Alpha virt. eigenvalues --    4.38519   4.44231   4.46686   4.48473   4.50255
 Alpha virt. eigenvalues --    4.53289   4.55757   4.60485   4.62296   4.65376
 Alpha virt. eigenvalues --    4.69631   4.71588   4.72371   4.75031   4.78238
 Alpha virt. eigenvalues --    4.79778   4.84943   4.93182   4.95213   5.00567
 Alpha virt. eigenvalues --    5.00770   5.02685   5.06221   5.10287   5.11279
 Alpha virt. eigenvalues --    5.12661   5.14448   5.15967   5.18457   5.18517
 Alpha virt. eigenvalues --    5.23995   5.25512   5.27848   5.28371   5.30761
 Alpha virt. eigenvalues --    5.33628   5.37600   5.41708   5.47933   5.49369
 Alpha virt. eigenvalues --    5.52280   5.52993   5.55372   5.64291   5.65143
 Alpha virt. eigenvalues --    5.66667   5.69549   5.72560   5.83289   5.87334
 Alpha virt. eigenvalues --    5.91220   5.92362   6.05801   6.07778   6.14556
 Alpha virt. eigenvalues --    6.15452   6.35027   6.37456   6.41975   6.56217
 Alpha virt. eigenvalues --    6.62297   6.73144   6.73999   6.84730   6.90123
 Alpha virt. eigenvalues --    7.03322   7.11419   7.27500   7.37757  10.80818
 Alpha virt. eigenvalues --   10.88013  11.40322  22.42802  22.51703  22.72041
 Alpha virt. eigenvalues --   23.06052  23.14807  23.27903  23.48267  25.87804
 Alpha virt. eigenvalues --   32.18418  32.58016  32.88521  44.07900  44.27983
          Condensed to atoms (all electrons):
               1          2          3          4          5          6
     1  Cl  16.833937   0.371612  -0.088626   0.013970   0.006395  -0.001319
     2  C    0.371612   4.777132   0.432919  -0.095734  -0.048290  -0.043599
     3  C   -0.088626   0.432919   5.148321   0.232665   0.528392  -0.094927
     4  C    0.013970  -0.095734   0.232665   5.159768  -0.071792   0.001297
     5  N    0.006395  -0.048290   0.528392  -0.071792   6.389002   0.486380
     6  C   -0.001319  -0.043599  -0.094927   0.001297   0.486380   5.369956
     7  C   -0.000103   0.001925  -0.005198  -0.002534  -0.049391   0.252001
     8  O   -0.000001   0.000617  -0.001083  -0.000034   0.002238  -0.149030
     9  C   -0.000000  -0.000011   0.000057  -0.000001  -0.000191   0.008855
    10  O   -0.000000   0.000272  -0.001207  -0.000535  -0.010964  -0.106310
    11  C    0.003408  -0.051700  -0.042452   0.003981  -0.065343   0.428068
    12  N   -0.000290   0.001296   0.002037   0.000188   0.004737  -0.073472
    13  N   -0.082876   0.559157  -0.066721   0.006842  -0.008343  -0.044666
    14  H    0.000721   0.005188  -0.065290   0.429411   0.010025  -0.000174
    15  H    0.000526  -0.000924  -0.041334   0.407250   0.001053  -0.000139
    16  H    0.000527  -0.000926  -0.041330   0.407249   0.001050  -0.000135
    17  H   -0.000000  -0.000004   0.000009   0.000000   0.000026   0.003396
    18  H    0.000000   0.000002  -0.000011  -0.000000  -0.000045  -0.001464
    19  H    0.000000   0.000002  -0.000011  -0.000000  -0.000044  -0.001475
    20  H   -0.000256   0.000734   0.000498  -0.000014  -0.000487   0.005979
    21  H    0.000014  -0.000562   0.000197   0.000004   0.000142   0.001149
               7          8          9         10         11         12
     1  Cl  -0.000103  -0.000001  -0.000000  -0.000000   0.003408  -0.000290
     2  C    0.001925   0.000617  -0.000011   0.000272  -0.051700   0.001296
     3  C   -0.005198  -0.001083   0.000057  -0.001207  -0.042452   0.002037
     4  C   -0.002534  -0.000034  -0.000001  -0.000535   0.003981   0.000188
     5  N   -0.049391   0.002238  -0.000191  -0.010964  -0.065343   0.004737
     6  C    0.252001  -0.149030   0.008855  -0.106310   0.428068  -0.073472
     7  C    4.477250   0.353067  -0.050309   0.717586  -0.040384  -0.005514
     8  O    0.353067   8.123303   0.200220  -0.088827   0.015113  -0.031190
     9  C   -0.050309   0.200220   4.844817   0.004577  -0.000834   0.001134
    10  O    0.717586  -0.088827   0.004577   7.782507   0.001411  -0.000062
    11  C   -0.040384   0.015113  -0.000834   0.001411   4.611071   0.365391
    12  N   -0.005514  -0.031190   0.001134  -0.000062   0.365391   6.619890
    13  N    0.001461  -0.000505  -0.000006  -0.000140   0.488689  -0.113984
    14  H   -0.000131   0.000006  -0.000000   0.000185   0.000231  -0.000007
    15  H    0.000013  -0.000000   0.000000  -0.000000   0.000111  -0.000005
    16  H    0.000014  -0.000000   0.000000  -0.000000   0.000108  -0.000006
    17  H    0.005356  -0.032730   0.393773   0.001920  -0.000771   0.000497
    18  H   -0.008236  -0.032537   0.422409   0.002784   0.000207  -0.000118
    19  H   -0.008241  -0.032518   0.422405   0.002787   0.000198  -0.000116
    20  H   -0.000171   0.001248  -0.000035   0.000016  -0.032565   0.365986
    21  H   -0.009636   0.014059  -0.000478   0.000376  -0.030588   0.380047
              13         14         15         16         17         18
     1  Cl  -0.082876   0.000721   0.000526   0.000527  -0.000000   0.000000
     2  C    0.559157   0.005188  -0.000924  -0.000926  -0.000004   0.000002
     3  C   -0.066721  -0.065290  -0.041334  -0.041330   0.000009  -0.000011
     4  C    0.006842   0.429411   0.407250   0.407249   0.000000  -0.000000
     5  N   -0.008343   0.010025   0.001053   0.001050   0.000026  -0.000045
     6  C   -0.044666  -0.000174  -0.000139  -0.000135   0.003396  -0.001464
     7  C    0.001461  -0.000131   0.000013   0.000014   0.005356  -0.008236
     8  O   -0.000505   0.000006  -0.000000  -0.000000  -0.032730  -0.032537
     9  C   -0.000006  -0.000000   0.000000   0.000000   0.393773   0.422409
    10  O   -0.000140   0.000185  -0.000000  -0.000000   0.001920   0.002784
    11  C    0.488689   0.000231   0.000111   0.000108  -0.000771   0.000207
    12  N   -0.113984  -0.000007  -0.000005  -0.000006   0.000497  -0.000118
    13  N    6.478365  -0.000405   0.000045   0.000045  -0.000001   0.000001
    14  H   -0.000405   0.490485  -0.018322  -0.018324  -0.000000  -0.000000
    15  H    0.000045  -0.018322   0.528950  -0.037898  -0.000000   0.000000
    16  H    0.000045  -0.018324  -0.037898   0.528955  -0.000000  -0.000000
    17  H   -0.000001  -0.000000  -0.000000  -0.000000   0.542238  -0.026251
    18  H    0.000001  -0.000000   0.000000  -0.000000  -0.026251   0.520500
    19  H    0.000001  -0.000000  -0.000000   0.000000  -0.026246  -0.037677
    20  H    0.010306   0.000001   0.000000   0.000000  -0.000022   0.000001
    21  H    0.003901  -0.000000  -0.000000  -0.000000  -0.001160   0.000220
              19         20         21
     1  Cl   0.000000  -0.000256   0.000014
     2  C    0.000002   0.000734  -0.000562
     3  C   -0.000011   0.000498   0.000197
     4  C   -0.000000  -0.000014   0.000004
     5  N   -0.000044  -0.000487   0.000142
     6  C   -0.001475   0.005979   0.001149
     7  C   -0.008241  -0.000171  -0.009636
     8  O   -0.032518   0.001248   0.014059
     9  C    0.422405  -0.000035  -0.000478
    10  O    0.002787   0.000016   0.000376
    11  C    0.000198  -0.032565  -0.030588
    12  N   -0.000116   0.365986   0.380047
    13  N    0.000001   0.010306   0.003901
    14  H   -0.000000   0.000001  -0.000000
    15  H   -0.000000   0.000000  -0.000000
    16  H    0.000000   0.000000  -0.000000
    17  H   -0.026246  -0.000022  -0.001160
    18  H   -0.037677   0.000001   0.000220
    19  H    0.520502   0.000001   0.000217
    20  H    0.000001   0.407135  -0.020206
    21  H    0.000217  -0.020206   0.377801
 Mulliken charges:
               1
     1  Cl  -0.057639
     2  C    0.090895
     3  C    0.103095
     4  C   -0.491981
     5  N   -0.174550
     6  C   -0.040369
     7  C    0.371174
     8  O   -0.341415
     9  C   -0.246379
    10  O   -0.306376
    11  C    0.346649
    12  N   -0.516440
    13  N   -0.231165
    14  H    0.166402
    15  H    0.160675
    16  H    0.160672
    17  H    0.139969
    18  H    0.160215
    19  H    0.160217
    20  H    0.261850
    21  H    0.284504
 Sum of Mulliken charges =  -0.00000
 Mulliken charges with hydrogens summed into heavy atoms:
               1
     1  Cl  -0.057639
     2  C    0.090895
     3  C    0.103095
     4  C   -0.004233
     5  N   -0.174550
     6  C   -0.040369
     7  C    0.371174
     8  O   -0.341415
     9  C    0.214021
    10  O   -0.306376
    11  C    0.346649
    12  N    0.029914
    13  N   -0.231165
 Electronic spatial extent (au):  <R**2>=           3207.9784
 Charge=             -0.0000 electrons
 Dipole moment (field-independent basis, Debye):
    X=             -2.0221    Y=             -2.8049    Z=              0.0034  Tot=              3.4578
 Quadrupole moment (field-independent basis, Debye-Ang):
   XX=            -71.0322   YY=            -82.3337   ZZ=            -82.1177
   XY=             13.4096   XZ=             -0.0064   YZ=             -0.0050
 Traceless Quadrupole moment (field-independent basis, Debye-Ang):
   XX=              7.4623   YY=             -3.8392   ZZ=             -3.6231
   XY=             13.4096   XZ=             -0.0064   YZ=             -0.0050
 Octapole moment (field-independent basis, Debye-Ang**2):
  XXX=            -78.0244  YYY=            -36.9203  ZZZ=              0.0020  XYY=              3.7659
  XXY=            -10.7426  XXZ=              0.0172  XZZ=             -4.1509  YZZ=              2.5099
  YYZ=              0.0286  XYZ=              0.0030
 Hexadecapole moment (field-independent basis, Debye-Ang**3):
 XXXX=          -2783.6796 YYYY=           -806.9032 ZZZZ=            -96.2142 XXXY=             59.8026
 XXXZ=             -0.0564 YYYX=             66.5504 YYYZ=             -0.0585 ZZZX=              0.0024
 ZZZY=             -0.0097 XXYY=           -685.7907 XXZZ=           -532.3574 YYZZ=           -170.3533
 XXYZ=             -0.0020 YYXZ=             -0.0421 ZZXY=             -8.0222
 N-N= 8.794710222445D+02 E-N=-4.222307547366D+03  KE= 1.043093578252D+03
 Unable to Open any file for archive entry.
 1\1\GINC-COMPUTE-0-27\SP\RM062X\def2TZVP\C7H8Cl1N3O2\ZTAN64\14-Aug-202
 4\0\\# M062X/def2tzvp int=(grid=ultrafine) nmr=giao guess=read geom=ch
 eck\\pyrz2.xyz\\0,1\Cl,0,-4.1048743891,1.2942697451,-0.2921681571\C,0,
 -2.4054528646,0.8550080581,-0.1649111212\C,0,-2.0393178201,-0.50870889
 46,-0.2214406774\C,0,-3.0225457513,-1.630578267,-0.386092815\N,0,-0.74
 66753582,-0.7948809915,-0.1214142057\C,0,0.1638162745,0.1749068314,0.0
 265386381\C,0,1.5677351959,-0.3167330794,0.1232256354\O,0,2.4713898152
 ,0.7005706038,0.2744650191\C,0,3.8415138738,0.2748690548,0.3724386798\
 O,0,1.9070952098,-1.475639476,0.077279225\C,0,-0.2438797652,1.54069214
 75,0.0793496754\N,0,0.5841893345,2.5980790545,0.2252451865\N,0,-1.5585
 361793,1.8419022105,-0.0216773688\H,0,-2.4764712832,-2.5742452715,-0.3
 98294392\H,0,-3.5896556313,-1.5310450542,-1.3173769135\H,0,-3.75051785
 53,-1.6467481894,0.43159166\H,0,4.4259836924,1.1871767988,0.4872626138
 \H,0,4.137931516,-0.2633926,-0.5300907558\H,0,3.9751126693,-0.38122963
 98,1.2348952988\H,0,0.1705115896,3.5154353375,0.2488477477\H,0,1.57624
 77265,2.4527916214,0.3080270268\\Version=ES64L-G16RevC.01\State=1-A\HF
 =-1046.4765545\RMSD=1.479e-09\Dipole=0.8506341,1.0511106,0.1492817\Qua
 drupole=6.5264581,-4.0203464,-2.5061117,9.3380366,1.4722643,0.7755017\
 PG=C01 [X(C7H8Cl1N3O2)]\\@
 The archive entry for this job was punched.


 BLESSED ARE THOSE WHO NOUGHT EXPECT,
 FOR THEY SHALL NOT BE DISAPPOINTED..  WALCOT - ODE TO PITT
 Job cpu time:       0 days  0 hours 29 minutes 29.8 seconds.
 Elapsed time:       0 days  0 hours  1 minutes 57.7 seconds.
 File lengths (MBytes):  RWF=    120 Int=      0 D2E=      0 Chk=     20 Scr=      1
 Normal termination of Gaussian 16 at Wed Aug 14 20:42:45 2024.
 
 
-----Kestrel cluster job statistics-----
Time info:

real	9m59.913s
user	156m31.319s
sys	0m18.201s
 
Disk space usage:
20M	/scratch/363001.kestrel.chem.wisc.edu
