 Entering Gaussian System, Link 0=/share/apps/gaussian/g16/g16
 Initial command:
 /share/apps/gaussian/g16/l1.exe "/scratch/362975.kestrel.chem.wisc.edu/Gau-160704.inp" -scrdir="/scratch/362975.kestrel.chem.wisc.edu/"
 Entering Link 1 = /share/apps/gaussian/g16/l1.exe PID=    160705.
  
 Copyright (c) 1988-2019, Gaussian, Inc.  All Rights Reserved.
  
 This is part of the Gaussian(R) 16 program.  It is based on
 the Gaussian(R) 09 system (copyright 2009, Gaussian, Inc.),
 the Gaussian(R) 03 system (copyright 2003, Gaussian, Inc.),
 the Gaussian(R) 98 system (copyright 1998, Gaussian, Inc.),
 the Gaussian(R) 94 system (copyright 1995, Gaussian, Inc.),
 the Gaussian 92(TM) system (copyright 1992, Gaussian, Inc.),
 the Gaussian 90(TM) system (copyright 1990, Gaussian, Inc.),
 the Gaussian 88(TM) system (copyright 1988, Gaussian, Inc.),
 the Gaussian 86(TM) system (copyright 1986, Carnegie Mellon
 University), and the Gaussian 82(TM) system (copyright 1983,
 Carnegie Mellon University). Gaussian is a federally registered
 trademark of Gaussian, Inc.
  
 This software contains proprietary and confidential information,
 including trade secrets, belonging to Gaussian, Inc.
  
 This software is provided under written license and may be
 used, copied, transmitted, or stored only in accord with that
 written license.
  
 The following legend is applicable only to US Government
 contracts under FAR:
  
                    RESTRICTED RIGHTS LEGEND
  
 Use, reproduction and disclosure by the US Government is
 subject to restrictions as set forth in subparagraphs (a)
 and (c) of the Commercial Computer Software - Restricted
 Rights clause in FAR 52.227-19.
  
 Gaussian, Inc.
 340 Quinnipiac St., Bldg. 40, Wallingford CT 06492
  
  
 ---------------------------------------------------------------
 Warning -- This program may not be used in any manner that
 competes with the business of Gaussian, Inc. or will provide
 assistance to any competitor of Gaussian, Inc.  The licensee
 of this program is prohibited from giving any competitor of
 Gaussian, Inc. access to this program.  By using this program,
 the user acknowledges that Gaussian, Inc. is engaged in the
 business of creating and licensing software in the field of
 computational chemistry and represents and warrants to the
 licensee that it is not a competitor of Gaussian, Inc. and that
 it will not use this program in any manner prohibited above.
 ---------------------------------------------------------------
  

 Cite this work as:
 Gaussian 16, Revision C.01,
 M. J. Frisch, G. W. Trucks, H. B. Schlegel, G. E. Scuseria, 
 M. A. Robb, J. R. Cheeseman, G. Scalmani, V. Barone, 
 G. A. Petersson, H. Nakatsuji, X. Li, M. Caricato, A. V. Marenich, 
 J. Bloino, B. G. Janesko, R. Gomperts, B. Mennucci, H. P. Hratchian, 
 J. V. Ortiz, A. F. Izmaylov, J. L. Sonnenberg, D. Williams-Young, 
 F. Ding, F. Lipparini, F. Egidi, J. Goings, B. Peng, A. Petrone, 
 T. Henderson, D. Ranasinghe, V. G. Zakrzewski, J. Gao, N. Rega, 
 G. Zheng, W. Liang, M. Hada, M. Ehara, K. Toyota, R. Fukuda, 
 J. Hasegawa, M. Ishida, T. Nakajima, Y. Honda, O. Kitao, H. Nakai, 
 T. Vreven, K. Throssell, J. A. Montgomery, Jr., J. E. Peralta, 
 F. Ogliaro, M. J. Bearpark, J. J. Heyd, E. N. Brothers, K. N. Kudin, 
 V. N. Staroverov, T. A. Keith, R. Kobayashi, J. Normand, 
 K. Raghavachari, A. P. Rendell, J. C. Burant, S. S. Iyengar, 
 J. Tomasi, M. Cossi, J. M. Millam, M. Klene, C. Adamo, R. Cammi, 
 J. W. Ochterski, R. L. Martin, K. Morokuma, O. Farkas, 
 J. B. Foresman, and D. J. Fox, Gaussian, Inc., Wallingford CT, 2019.
 
 ******************************************
 Gaussian 16:  ES64L-G16RevC.01  3-Jul-2019
                14-Aug-2024 
 ******************************************
 %nprocs=16
 Will use up to   16 processors via shared memory.
 %mem=16GB
 %chk=pyrd6_conf-3.chk
 ----------------------------------------------------------------------
 # B3LYP/6-31G(d,p) symmetry=loose empiricaldispersion=GD3BJ int=(grid=
 ultrafine) opt freq=noraman
 ----------------------------------------------------------------------
 1/18=20,19=15,26=4,38=1/1,3;
 2/9=110,12=2,17=4,18=3,40=1/2;
 3/5=1,6=6,7=101,11=2,25=1,30=1,71=1,74=-5,75=-5,124=41/1,2,3;
 4//1;
 5/5=2,38=5/2;
 6/7=2,8=2,9=2,10=2,28=1/1;
 7//1,2,3,16;
 1/18=20,19=15,26=4/3(2);
 2/9=110/2;
 99//99;
 2/9=110/2;
 3/5=1,6=6,7=101,11=2,25=1,30=1,71=1,74=-5,75=-5,124=41/1,2,3;
 4/5=5,16=3,69=1/1;
 5/5=2,38=5/2;
 7//1,2,3,16;
 1/18=20,19=15,26=4/3(-5);
 2/9=110/2;
 6/7=2,8=2,9=2,10=2,19=2,28=1/1;
 99/9=1/99;
 ---------
 pyrd6.xyz
 ---------
 Symbolic Z-matrix:
 Charge =  0 Multiplicity = 1
 Br                    2.1921   -2.0347   -3.3458 
 C                     2.5481   -1.049    -1.7582 
 C                     3.864    -0.9392   -1.3088 
 C                     4.122    -0.2124   -0.1443 
 C                     5.5373   -0.0811    0.3827 
 C                     3.0544    0.3739    0.5413 
 C                     1.7571    0.2219    0.0418 
 N                     0.7334    0.8498    0.7679 
 C                    -0.6483    0.7365    0.7061 
 O                    -1.0699   -0.1818   -0.1964 
 C                    -2.4348   -0.4975   -0.48 
 C                    -2.3355   -1.5723   -1.573 
 C                    -3.1973    0.7225   -1.0357 
 C                    -3.1488   -1.0888    0.7524 
 O                    -1.3888    1.4009    1.4245 
 N                     1.51     -0.4766   -1.1006 
 H                     4.662    -1.4111   -1.862 
 H                     6.1511   -0.9303    0.0802 
 H                     5.9983    0.8371    0.018 
 H                     5.5442   -0.0647    1.4731 
 H                     3.236     0.9349    1.4462 
 H                     1.0378    1.4675    1.498 
 H                    -1.8084   -1.1952   -2.4503 
 H                    -1.7804   -2.4428   -1.2216 
 H                    -3.3192   -1.9125   -1.8961 
 H                    -2.6644    1.1674   -1.876 
 H                    -3.3174    1.5014   -0.2829 
 H                    -4.1938    0.4474   -1.3802 
 H                    -4.1427   -1.4567    0.4991 
 H                    -2.582    -1.9198    1.172 
 H                    -3.2683   -0.3493    1.544 
 

 GradGradGradGradGradGradGradGradGradGradGradGradGradGradGradGradGradGrad
 Berny optimization.
 Initialization pass.
                           ----------------------------
                           !    Initial Parameters    !
                           ! (Angstroms and Degrees)  !
 --------------------------                            --------------------------
 ! Name  Definition              Value          Derivative Info.                !
 --------------------------------------------------------------------------------
 ! R1    R(1,2)                  1.9023         estimate D2E/DX2                !
 ! R2    R(2,3)                  1.3949         estimate D2E/DX2                !
 ! R3    R(2,16)                 1.3556         estimate D2E/DX2                !
 ! R4    R(3,4)                  1.3967         estimate D2E/DX2                !
 ! R5    R(3,17)                 1.0796         estimate D2E/DX2                !
 ! R6    R(4,5)                  1.5159         estimate D2E/DX2                !
 ! R7    R(4,6)                  1.3977         estimate D2E/DX2                !
 ! R8    R(5,18)                 1.0906         estimate D2E/DX2                !
 ! R9    R(5,19)                 1.0902         estimate D2E/DX2                !
 ! R10   R(5,20)                 1.0905         estimate D2E/DX2                !
 ! R11   R(6,7)                  1.3984         estimate D2E/DX2                !
 ! R12   R(6,21)                 1.0801         estimate D2E/DX2                !
 ! R13   R(7,8)                  1.4034         estimate D2E/DX2                !
 ! R14   R(7,16)                 1.3616         estimate D2E/DX2                !
 ! R15   R(8,9)                  1.3877         estimate D2E/DX2                !
 ! R16   R(8,22)                 1.0036         estimate D2E/DX2                !
 ! R17   R(9,10)                 1.3548         estimate D2E/DX2                !
 ! R18   R(9,15)                 1.2271         estimate D2E/DX2                !
 ! R19   R(10,11)                1.4294         estimate D2E/DX2                !
 ! R20   R(11,12)                1.5361         estimate D2E/DX2                !
 ! R21   R(11,13)                1.5423         estimate D2E/DX2                !
 ! R22   R(11,14)                1.5422         estimate D2E/DX2                !
 ! R23   R(12,23)                1.0907         estimate D2E/DX2                !
 ! R24   R(12,24)                1.0906         estimate D2E/DX2                !
 ! R25   R(12,25)                1.0899         estimate D2E/DX2                !
 ! R26   R(13,26)                1.09           estimate D2E/DX2                !
 ! R27   R(13,27)                1.0899         estimate D2E/DX2                !
 ! R28   R(13,28)                1.0897         estimate D2E/DX2                !
 ! R29   R(14,29)                1.0897         estimate D2E/DX2                !
 ! R30   R(14,30)                1.0899         estimate D2E/DX2                !
 ! R31   R(14,31)                1.0898         estimate D2E/DX2                !
 ! A1    A(1,2,3)              119.0924         estimate D2E/DX2                !
 ! A2    A(1,2,16)             118.706          estimate D2E/DX2                !
 ! A3    A(3,2,16)             122.2016         estimate D2E/DX2                !
 ! A4    A(2,3,4)              118.9364         estimate D2E/DX2                !
 ! A5    A(2,3,17)             119.8564         estimate D2E/DX2                !
 ! A6    A(4,3,17)             121.2071         estimate D2E/DX2                !
 ! A7    A(3,4,5)              120.4884         estimate D2E/DX2                !
 ! A8    A(3,4,6)              119.0877         estimate D2E/DX2                !
 ! A9    A(5,4,6)              120.4154         estimate D2E/DX2                !
 ! A10   A(4,5,18)             111.1975         estimate D2E/DX2                !
 ! A11   A(4,5,19)             110.5748         estimate D2E/DX2                !
 ! A12   A(4,5,20)             110.7815         estimate D2E/DX2                !
 ! A13   A(18,5,19)            108.9668         estimate D2E/DX2                !
 ! A14   A(18,5,20)            106.5877         estimate D2E/DX2                !
 ! A15   A(19,5,20)            108.6103         estimate D2E/DX2                !
 ! A16   A(4,6,7)              119.1954         estimate D2E/DX2                !
 ! A17   A(4,6,21)             120.0278         estimate D2E/DX2                !
 ! A18   A(7,6,21)             120.7768         estimate D2E/DX2                !
 ! A19   A(6,7,8)              116.3127         estimate D2E/DX2                !
 ! A20   A(6,7,16)             121.5867         estimate D2E/DX2                !
 ! A21   A(8,7,16)             122.0892         estimate D2E/DX2                !
 ! A22   A(7,8,9)              131.8149         estimate D2E/DX2                !
 ! A23   A(7,8,22)             115.5005         estimate D2E/DX2                !
 ! A24   A(9,8,22)             112.621          estimate D2E/DX2                !
 ! A25   A(8,9,10)             113.2561         estimate D2E/DX2                !
 ! A26   A(8,9,15)             122.0423         estimate D2E/DX2                !
 ! A27   A(10,9,15)            124.6927         estimate D2E/DX2                !
 ! A28   A(9,10,11)            125.3824         estimate D2E/DX2                !
 ! A29   A(10,11,12)           103.5318         estimate D2E/DX2                !
 ! A30   A(10,11,13)           111.6466         estimate D2E/DX2                !
 ! A31   A(10,11,14)           111.6071         estimate D2E/DX2                !
 ! A32   A(12,11,13)           109.2118         estimate D2E/DX2                !
 ! A33   A(12,11,14)           109.2849         estimate D2E/DX2                !
 ! A34   A(13,11,14)           111.2442         estimate D2E/DX2                !
 ! A35   A(11,12,23)           111.2007         estimate D2E/DX2                !
 ! A36   A(11,12,24)           111.2304         estimate D2E/DX2                !
 ! A37   A(11,12,25)           111.7772         estimate D2E/DX2                !
 ! A38   A(23,12,24)           106.8071         estimate D2E/DX2                !
 ! A39   A(23,12,25)           107.7974         estimate D2E/DX2                !
 ! A40   A(24,12,25)           107.805          estimate D2E/DX2                !
 ! A41   A(11,13,26)           111.0355         estimate D2E/DX2                !
 ! A42   A(11,13,27)           111.7735         estimate D2E/DX2                !
 ! A43   A(11,13,28)           111.4897         estimate D2E/DX2                !
 ! A44   A(26,13,27)           107.1379         estimate D2E/DX2                !
 ! A45   A(26,13,28)           107.8441         estimate D2E/DX2                !
 ! A46   A(27,13,28)           107.3391         estimate D2E/DX2                !
 ! A47   A(11,14,29)           111.4686         estimate D2E/DX2                !
 ! A48   A(11,14,30)           111.0528         estimate D2E/DX2                !
 ! A49   A(11,14,31)           111.7802         estimate D2E/DX2                !
 ! A50   A(29,14,30)           107.8432         estimate D2E/DX2                !
 ! A51   A(29,14,31)           107.333          estimate D2E/DX2                !
 ! A52   A(30,14,31)           107.142          estimate D2E/DX2                !
 ! A53   A(2,16,7)             118.9878         estimate D2E/DX2                !
 ! D1    D(1,2,3,4)            179.8691         estimate D2E/DX2                !
 ! D2    D(1,2,3,17)            -0.0013         estimate D2E/DX2                !
 ! D3    D(16,2,3,4)            -0.172          estimate D2E/DX2                !
 ! D4    D(16,2,3,17)          179.9575         estimate D2E/DX2                !
 ! D5    D(1,2,16,7)           179.5179         estimate D2E/DX2                !
 ! D6    D(3,2,16,7)            -0.4411         estimate D2E/DX2                !
 ! D7    D(2,3,4,5)            179.439          estimate D2E/DX2                !
 ! D8    D(2,3,4,6)              0.4962         estimate D2E/DX2                !
 ! D9    D(17,3,4,5)            -0.6924         estimate D2E/DX2                !
 ! D10   D(17,3,4,6)          -179.6352         estimate D2E/DX2                !
 ! D11   D(3,4,5,18)           -26.9891         estimate D2E/DX2                !
 ! D12   D(3,4,5,19)            94.2048         estimate D2E/DX2                !
 ! D13   D(3,4,5,20)          -145.328          estimate D2E/DX2                !
 ! D14   D(6,4,5,18)           151.9396         estimate D2E/DX2                !
 ! D15   D(6,4,5,19)           -86.8664         estimate D2E/DX2                !
 ! D16   D(6,4,5,20)            33.6007         estimate D2E/DX2                !
 ! D17   D(3,4,6,7)             -0.2198         estimate D2E/DX2                !
 ! D18   D(3,4,6,21)           179.6823         estimate D2E/DX2                !
 ! D19   D(5,4,6,7)           -179.1634         estimate D2E/DX2                !
 ! D20   D(5,4,6,21)             0.7387         estimate D2E/DX2                !
 ! D21   D(4,6,7,8)           -179.1968         estimate D2E/DX2                !
 ! D22   D(4,6,7,16)            -0.4034         estimate D2E/DX2                !
 ! D23   D(21,6,7,8)             0.9019         estimate D2E/DX2                !
 ! D24   D(21,6,7,16)          179.6953         estimate D2E/DX2                !
 ! D25   D(6,7,8,9)           -167.7657         estimate D2E/DX2                !
 ! D26   D(6,7,8,22)             9.0718         estimate D2E/DX2                !
 ! D27   D(16,7,8,9)            13.4475         estimate D2E/DX2                !
 ! D28   D(16,7,8,22)         -169.715          estimate D2E/DX2                !
 ! D29   D(6,7,16,2)             0.731          estimate D2E/DX2                !
 ! D30   D(8,7,16,2)           179.4544         estimate D2E/DX2                !
 ! D31   D(7,8,9,10)             2.3284         estimate D2E/DX2                !
 ! D32   D(7,8,9,15)          -178.7023         estimate D2E/DX2                !
 ! D33   D(22,8,9,10)         -174.5793         estimate D2E/DX2                !
 ! D34   D(22,8,9,15)            4.39           estimate D2E/DX2                !
 ! D35   D(8,9,10,11)         -179.3468         estimate D2E/DX2                !
 ! D36   D(15,9,10,11)           1.7158         estimate D2E/DX2                !
 ! D37   D(9,10,11,12)         179.3539         estimate D2E/DX2                !
 ! D38   D(9,10,11,13)          61.9894         estimate D2E/DX2                !
 ! D39   D(9,10,11,14)         -63.2145         estimate D2E/DX2                !
 ! D40   D(10,11,12,23)        -59.2942         estimate D2E/DX2                !
 ! D41   D(10,11,12,24)         59.6141         estimate D2E/DX2                !
 ! D42   D(10,11,12,25)       -179.8249         estimate D2E/DX2                !
 ! D43   D(13,11,12,23)         59.7611         estimate D2E/DX2                !
 ! D44   D(13,11,12,24)        178.6694         estimate D2E/DX2                !
 ! D45   D(13,11,12,25)        -60.7696         estimate D2E/DX2                !
 ! D46   D(14,11,12,23)       -178.338          estimate D2E/DX2                !
 ! D47   D(14,11,12,24)        -59.4297         estimate D2E/DX2                !
 ! D48   D(14,11,12,25)         61.1313         estimate D2E/DX2                !
 ! D49   D(10,11,13,26)         51.802          estimate D2E/DX2                !
 ! D50   D(10,11,13,27)        -67.774          estimate D2E/DX2                !
 ! D51   D(10,11,13,28)        172.0831         estimate D2E/DX2                !
 ! D52   D(12,11,13,26)        -62.0816         estimate D2E/DX2                !
 ! D53   D(12,11,13,27)        178.3423         estimate D2E/DX2                !
 ! D54   D(12,11,13,28)         58.1994         estimate D2E/DX2                !
 ! D55   D(14,11,13,26)        177.207          estimate D2E/DX2                !
 ! D56   D(14,11,13,27)         57.6309         estimate D2E/DX2                !
 ! D57   D(14,11,13,28)        -62.512          estimate D2E/DX2                !
 ! D58   D(10,11,14,29)       -172.0534         estimate D2E/DX2                !
 ! D59   D(10,11,14,30)        -51.7759         estimate D2E/DX2                !
 ! D60   D(10,11,14,31)         67.8216         estimate D2E/DX2                !
 ! D61   D(12,11,14,29)        -58.1488         estimate D2E/DX2                !
 ! D62   D(12,11,14,30)         62.1287         estimate D2E/DX2                !
 ! D63   D(12,11,14,31)       -178.2738         estimate D2E/DX2                !
 ! D64   D(13,11,14,29)         62.5196         estimate D2E/DX2                !
 ! D65   D(13,11,14,30)       -177.2028         estimate D2E/DX2                !
 ! D66   D(13,11,14,31)        -57.6054         estimate D2E/DX2                !
 --------------------------------------------------------------------------------
 Trust Radius=3.00D-01 FncErr=1.00D-07 GrdErr=1.00D-06 EigMax=2.50D+02 EigMin=1.00D-04
 Number of steps in this run=    160 maximum allowed number of steps=    186.
 GradGradGradGradGradGradGradGradGradGradGradGradGradGradGradGradGradGrad

                          Input orientation:                          
 ---------------------------------------------------------------------
 Center     Atomic      Atomic             Coordinates (Angstroms)
 Number     Number       Type             X           Y           Z
 ---------------------------------------------------------------------
      1         35           0        2.192100   -2.034700   -3.345800
      2          6           0        2.548100   -1.049000   -1.758200
      3          6           0        3.864000   -0.939200   -1.308800
      4          6           0        4.122000   -0.212400   -0.144300
      5          6           0        5.537300   -0.081100    0.382700
      6          6           0        3.054400    0.373900    0.541300
      7          6           0        1.757100    0.221900    0.041800
      8          7           0        0.733400    0.849800    0.767900
      9          6           0       -0.648300    0.736500    0.706100
     10          8           0       -1.069900   -0.181800   -0.196400
     11          6           0       -2.434800   -0.497500   -0.480000
     12          6           0       -2.335500   -1.572300   -1.573000
     13          6           0       -3.197300    0.722500   -1.035700
     14          6           0       -3.148800   -1.088800    0.752400
     15          8           0       -1.388800    1.400900    1.424500
     16          7           0        1.510000   -0.476600   -1.100600
     17          1           0        4.662000   -1.411100   -1.862000
     18          1           0        6.151100   -0.930300    0.080200
     19          1           0        5.998300    0.837100    0.018000
     20          1           0        5.544200   -0.064700    1.473100
     21          1           0        3.236000    0.934900    1.446200
     22          1           0        1.037800    1.467500    1.498000
     23          1           0       -1.808400   -1.195200   -2.450300
     24          1           0       -1.780400   -2.442800   -1.221600
     25          1           0       -3.319200   -1.912500   -1.896100
     26          1           0       -2.664400    1.167400   -1.876000
     27          1           0       -3.317400    1.501400   -0.282900
     28          1           0       -4.193800    0.447400   -1.380200
     29          1           0       -4.142700   -1.456700    0.499100
     30          1           0       -2.582000   -1.919800    1.172000
     31          1           0       -3.268300   -0.349300    1.544000
 ---------------------------------------------------------------------
                    Distance matrix (angstroms):
                    1          2          3          4          5
     1  Br   0.000000
     2  C    1.902318   0.000000
     3  C    2.853899   1.394851   0.000000
     4  C    4.158713   2.404524   1.396733   0.000000
     5  C    5.376674   3.802052   2.529316   1.515930   0.000000
     6  C    4.653435   2.751124   2.408849   1.397700   2.529223
     7  C    4.093568   2.341125   2.758859   2.411639   3.807615
     8  N    5.231699   3.644140   4.160993   3.666468   4.908402
     9  C    5.671447   4.413361   5.218107   4.937545   6.247776
    10  O    4.898224   4.034994   5.114143   5.192252   6.633294
    11  C    5.655440   5.173707   6.368429   6.571575   8.029447
    12  C    4.884239   4.915047   6.237341   6.752023   8.247995
    13  C    6.479533   6.055563   7.259324   7.432414   8.885430
    14  C    6.798175   6.225702   7.310970   7.378122   8.752169
    15  O    6.883455   5.624124   6.367017   5.952545   7.159087
    16  N    2.816711   1.355629   2.408041   2.794075   4.309959
    17  H    2.948041   2.147199   1.079594   2.163094   2.752041
    18  H    5.350781   4.046655   2.675860   2.164030   1.090595
    19  H    5.835199   4.314642   3.077479   2.155990   1.090238
    20  H    6.191871   4.515170   3.365530   2.158808   1.090545
    21  H    5.733369   3.831089   3.390672   2.151972   2.731166
    22  H    6.087710   4.383676   4.653787   3.877048   4.887490
    23  H    4.184577   4.413555   5.791777   6.438414   7.951504
    24  H    4.523221   4.578922   5.841889   6.401061   7.854944
    25  H    5.700087   5.932104   7.272592   7.831386   9.326551
    26  H    5.999946   5.665374   6.883276   7.138477   8.598160
    27  H    7.227721   6.563927   7.653856   7.635509   9.019592
    28  H    7.127701   6.916308   8.176546   8.432990   9.903607
    29  H    7.432835   7.073078   8.224570   8.382572   9.777946
    30  H    6.573869   5.971791   6.976164   7.042122   8.362227
    31  H    7.521083   6.724925   7.704294   7.581928   8.885896
                    6          7          8          9         10
     6  C    0.000000
     7  C    1.398425   0.000000
     8  N    2.380099   1.403368   0.000000
     9  C    3.724060   2.547951   1.387714   0.000000
    10  O    4.226447   2.865596   2.290407   1.354816   0.000000
    11  C    5.650992   4.285071   3.661962   2.474100   1.429352
    12  C    6.108108   4.751432   4.556811   3.656706   2.330292
    13  C    6.456950   5.094869   4.326613   3.087307   2.459271
    14  C    6.376813   5.127450   4.339342   3.096185   2.458596
    15  O    4.645083   3.632986   2.288792   1.227137   2.287783
    16  N    2.409223   1.361631   2.419450   3.064969   2.749612
    17  H    3.398007   3.837914   5.240414   6.277468   6.094266
    18  H    3.391622   4.542717   5.743967   7.028642   7.264957
    19  H    3.025714   4.285652   5.318053   6.682881   7.144479
    20  H    2.694388   4.058680   4.947465   6.291047   6.822555
    21  H    1.080066   2.160522   2.594290   3.959154   4.741933
    22  H    2.485540   2.046810   1.003623   2.001100   3.167583
    23  H    5.921028   4.575098   4.582530   3.878164   2.579230
    24  H    5.866592   4.605509   4.595489   3.886596   2.582241
    25  H    7.196619   5.837803   5.581287   4.574096   3.308119
    26  H    6.259206   4.911373   4.316957   3.304175   2.680266
    27  H    6.523067   5.243386   4.235297   2.947421   2.809253
    28  H    7.498931   6.122593   5.390135   4.123930   3.399416
    29  H    7.426380   6.150972   5.400791   4.130836   3.398704
    30  H    6.117830   4.969107   4.338878   3.318462   2.679479
    31  H    6.442434   5.276127   4.248973   2.957269   2.808916
                   11         12         13         14         15
    11  C    0.000000
    12  C    1.536133   0.000000
    13  C    1.542274   2.509482   0.000000
    14  C    1.542155   2.510521   2.545675   0.000000
    15  O    2.885335   4.326796   3.127856   3.122167   0.000000
    16  N    3.993373   4.026362   4.858058   5.051021   4.278338
    17  H    7.287603   7.005320   8.185574   8.243031   7.437782
    18  H    8.615034   8.669926   9.558743   9.325509   8.005731
    19  H    8.552563   8.819791   9.256483   9.376453   7.540912
    20  H    8.225956   8.581448   9.128394   8.782735   7.086384
    21  H    6.157921   6.814927   6.898717   6.733676   4.648269
    22  H    4.453387   5.481841   4.991065   4.961674   2.428626
    23  H    2.182028   1.090731   2.758208   3.473511   4.682934
    24  H    2.182293   1.090591   3.472937   2.757265   4.682865
    25  H    2.188545   1.089860   2.774594   2.778861   5.072617
    26  H    2.184817   2.775958   1.089964   3.497652   3.546122
    27  H    2.193954   3.475071   1.089870   2.794532   2.577753
    28  H    2.190269   2.751298   1.089666   2.828413   4.079648
    29  H    2.189891   2.751896   2.828127   1.089655   4.075072
    30  H    2.184882   2.777867   3.497754   1.089902   3.537588
    31  H    2.193915   3.475850   2.794396   1.089849   2.570992
                   16         17         18         19         20
    16  N    0.000000
    17  H    3.374629   0.000000
    18  H    4.810399   2.494139   0.000000
    19  H    4.808525   3.220947   1.775083   0.000000
    20  H    4.802954   3.703237   1.748646   1.771092   0.000000
    21  H    3.384907   4.298997   3.720583   3.111209   2.515494
    22  H    3.279515   5.719332   5.822838   5.214822   4.759821
    23  H    3.653745   6.500676   8.356270   8.436072   8.410221
    24  H    3.835012   6.555840   8.178694   8.532440   8.158832
    25  H    5.100569   7.997007   9.724045   9.901509   9.660524
    26  H    4.552977   7.766917   9.270389   8.873483   8.950735
    27  H    5.280616   8.639852   9.782510   9.344202   9.168651
    28  H    5.784919   9.061531  10.537921  10.294937  10.160325
    29  H    5.955892   9.115899  10.315759  10.408307   9.834753
    30  H    4.898163   7.870163   8.856533   9.085910   8.340694
    31  H    5.462807   8.695856   9.550150   9.466050   8.817379
                   21         22         23         24         25
    21  H    0.000000
    22  H    2.262395   0.000000
    23  H    6.720566   5.547963   0.000000
    24  H    6.609863   5.534340   1.751283   0.000000
    25  H    7.889823   6.475165   1.761867   1.761838   0.000000
    26  H    6.775381   5.017990   2.577680   3.774022   3.148802
    27  H    6.801306   4.705372   3.774434   4.335924   3.775862
    28  H    7.964177   6.057580   3.087618   3.768675   2.569087
    29  H    7.814215   6.032108   3.770451   3.084423   2.573497
    30  H    6.486418   4.968202   3.774197   2.577870   3.155433
    31  H    6.630585   4.673904   4.336045   3.774272   3.778951
                   26         27         28         29         30
    26  H    0.000000
    27  H    1.753834   0.000000
    28  H    1.761613   1.755865   0.000000
    29  H    3.835671   3.169069   2.675813   0.000000
    30  H    4.339113   3.789744   3.836047   1.761545   0.000000
    31  H    3.789654   2.600974   3.168947   1.755769   1.753814
                   31
    31  H    0.000000
 Stoichiometry    C11H15BrN2O2
 Framework group  C1[X(C11H15BrN2O2)]
 Deg. of freedom    87
 Full point group                 C1      NOp   1
 Largest Abelian subgroup         C1      NOp   1
 Largest concise Abelian subgroup C1      NOp   1
                         Standard orientation:                         
 ---------------------------------------------------------------------
 Center     Atomic      Atomic             Coordinates (Angstroms)
 Number     Number       Type             X           Y           Z
 ---------------------------------------------------------------------
      1         35           0        2.117277   -2.280610   -0.096865
      2          6           0        1.887517   -0.392800   -0.049949
      3          6           0        3.007421    0.422904    0.111459
      4          6           0        2.835300    1.808639    0.142683
      5          6           0        4.026414    2.727617    0.329146
      6          6           0        1.546618    2.336174    0.021972
      7          6           0        0.464186    1.464173   -0.131473
      8          7           0       -0.799864    2.059072   -0.264565
      9          6           0       -2.081670    1.530049   -0.211083
     10          8           0       -2.101734    0.202891    0.060538
     11          6           0       -3.277554   -0.603466    0.161945
     12          6           0       -2.726974   -2.005592    0.462954
     13          6           0       -4.058960   -0.639645   -1.167229
     14          6           0       -4.178918   -0.149113    1.327856
     15          8           0       -3.079908    2.224113   -0.377401
     16          7           0        0.636402    0.114153   -0.174209
     17          1           0        3.986628   -0.021447    0.207532
     18          1           0        4.826903    2.229376    0.877205
     19          1           0        4.410284    3.057991   -0.636315
     20          1           0        3.749583    3.606284    0.912754
     21          1           0        1.395493    3.405266    0.049292
     22          1           0       -0.798223    3.056059   -0.379769
     23          1           0       -2.060271   -2.346225   -0.330249
     24          1           0       -2.147294   -2.012323    1.386705
     25          1           0       -3.525537   -2.740182    0.565278
     26          1           0       -3.407272   -0.913590   -1.996856
     27          1           0       -4.493699    0.330539   -1.407150
     28          1           0       -4.874781   -1.361108   -1.131161
     29          1           0       -5.000669   -0.845736    1.491533
     30          1           0       -3.612070   -0.077328    2.255981
     31          1           0       -4.616676    0.831527    1.142154
 ---------------------------------------------------------------------
 Rotational constants (GHZ):           0.5136569           0.2490027           0.1756155
 Standard basis: 6-31G(d,p) (6D, 7F)
 There are   330 symmetry adapted cartesian basis functions of A   symmetry.
 There are   330 symmetry adapted basis functions of A   symmetry.
   330 basis functions,   608 primitive gaussians,   330 cartesian basis functions
    73 alpha electrons       73 beta electrons
       nuclear repulsion energy      1444.4215407736 Hartrees.
 NAtoms=   31 NActive=   31 NUniq=   31 SFac= 1.00D+00 NAtFMM=   60 NAOKFM=F Big=F
 Integral buffers will be    131072 words long.
 Raffenetti 2 integral format.
 Two-electron integral symmetry is turned on.
 Nuclear repulsion after empirical dispersion term =     1444.3619237605 Hartrees.
 One-electron integrals computed using PRISM.
 NBasis=   330 RedAO= T EigKep=  7.07D-04  NBF=   330
 NBsUse=   330 1.00D-06 EigRej= -1.00D+00 NBFU=   330
 ExpMin= 1.43D-01 ExpMax= 5.74D+05 ExpMxC= 5.74D+03 IAcc=3 IRadAn=         5 AccDes= 0.00D+00
 Harris functional with IExCor=  402 and IRadAn=       5 diagonalized for initial guess.
 HarFok:  IExCor=  402 AccDes= 0.00D+00 IRadAn=         5 IDoV= 1 UseB2=F ITyADJ=14
 ICtDFT=  3500011 ScaDFX=  1.000000  1.000000  1.000000  1.000000
 FoFCou: FMM=F IPFlag=           0 FMFlag=      100000 FMFlg1=           0
         NFxFlg=           0 DoJE=T BraDBF=F KetDBF=T FulRan=T
         wScrn=  0.000000 ICntrl=       500 IOpCl=  0 I1Cent=   200000004 NGrid=           0
         NMat0=    1 NMatS0=      1 NMatT0=    0 NMatD0=    1 NMtDS0=    0 NMtDT0=    0
 Petite list used in FoFCou.
 Requested convergence on RMS density matrix=1.00D-08 within 128 cycles.
 Requested convergence on MAX density matrix=1.00D-06.
 Requested convergence on             energy=1.00D-06.
 No special actions if energy rises.
 Integral accuracy reduced to 1.0D-05 until final iterations.
 EnCoef did   100 forward-backward iterations
 Initial convergence to 1.0D-05 achieved.  Increase integral accuracy.
 SCF Done:  E(RB3LYP) =  -3259.97745381     A.U. after   15 cycles
            NFock= 15  Conv=0.58D-08     -V/T= 2.0069

 **********************************************************************

            Population analysis using the SCF Density.

 **********************************************************************

 Orbital symmetries:
       Occupied  (A) (A) (A) (A) (A) (A) (A) (A) (A) (A) (A) (A)
                 (A) (A) (A) (A) (A) (A) (A) (A) (A) (A) (A) (A)
                 (A) (A) (A) (A) (A) (A) (A) (A) (A) (A) (A) (A)
                 (A) (A) (A) (A) (A) (A) (A) (A) (A) (A) (A) (A)
                 (A) (A) (A) (A) (A) (A) (A) (A) (A) (A) (A) (A)
                 (A) (A) (A) (A) (A) (A) (A) (A) (A) (A) (A) (A)
                 (A)
       Virtual   (A) (A) (A) (A) (A) (A) (A) (A) (A) (A) (A) (A)
                 (A) (A) (A) (A) (A) (A) (A) (A) (A) (A) (A) (A)
                 (A) (A) (A) (A) (A) (A) (A) (A) (A) (A) (A) (A)
                 (A) (A) (A) (A) (A) (A) (A) (A) (A) (A) (A) (A)
                 (A) (A) (A) (A) (A) (A) (A) (A) (A) (A) (A) (A)
                 (A) (A) (A) (A) (A) (A) (A) (A) (A) (A) (A) (A)
                 (A) (A) (A) (A) (A) (A) (A) (A) (A) (A) (A) (A)
                 (A) (A) (A) (A) (A) (A) (A) (A) (A) (A) (A) (A)
                 (A) (A) (A) (A) (A) (A) (A) (A) (A) (A) (A) (A)
                 (A) (A) (A) (A) (A) (A) (A) (A) (A) (A) (A) (A)
                 (A) (A) (A) (A) (A) (A) (A) (A) (A) (A) (A) (A)
                 (A) (A) (A) (A) (A) (A) (A) (A) (A) (A) (A) (A)
                 (A) (A) (A) (A) (A) (A) (A) (A) (A) (A) (A) (A)
                 (A) (A) (A) (A) (A) (A) (A) (A) (A) (A) (A) (A)
                 (A) (A) (A) (A) (A) (A) (A) (A) (A) (A) (A) (A)
                 (A) (A) (A) (A) (A) (A) (A) (A) (A) (A) (A) (A)
                 (A) (A) (A) (A) (A) (A) (A) (A) (A) (A) (A) (A)
                 (A) (A) (A) (A) (A) (A) (A) (A) (A) (A) (A) (A)
                 (A) (A) (A) (A) (A) (A) (A) (A) (A) (A) (A) (A)
                 (A) (A) (A) (A) (A) (A) (A) (A) (A) (A) (A) (A)
                 (A) (A) (A) (A) (A) (A) (A) (A) (A) (A) (A) (A)
                 (A) (A) (A) (A) (A)
 The electronic state is 1-A.
 Alpha  occ. eigenvalues -- -482.91216 -61.87421 -56.39541 -56.39134 -56.39129
 Alpha  occ. eigenvalues --  -19.17704 -19.12225 -14.38759 -14.34250 -10.34426
 Alpha  occ. eigenvalues --  -10.28739 -10.28380 -10.25252 -10.22998 -10.20758
 Alpha  occ. eigenvalues --  -10.20538 -10.20302 -10.16727 -10.16687 -10.16644
 Alpha  occ. eigenvalues --   -8.58589  -6.53991  -6.52729  -6.52660  -2.65566
 Alpha  occ. eigenvalues --   -2.65214  -2.65160  -2.64153  -2.64152  -1.09685
 Alpha  occ. eigenvalues --   -1.00923  -0.97649  -0.92405  -0.83209  -0.80988
 Alpha  occ. eigenvalues --   -0.79804  -0.74520  -0.72402  -0.68505  -0.68456
 Alpha  occ. eigenvalues --   -0.66290  -0.64433  -0.60795  -0.55518  -0.53312
 Alpha  occ. eigenvalues --   -0.50675  -0.50246  -0.49014  -0.47134  -0.45577
 Alpha  occ. eigenvalues --   -0.44657  -0.43833  -0.43338  -0.43186  -0.41239
 Alpha  occ. eigenvalues --   -0.40904  -0.40338  -0.39605  -0.38381  -0.38190
 Alpha  occ. eigenvalues --   -0.37958  -0.35678  -0.35112  -0.34930  -0.33439
 Alpha  occ. eigenvalues --   -0.32464  -0.29800  -0.28830  -0.28572  -0.27183
 Alpha  occ. eigenvalues --   -0.26838  -0.26399  -0.23488
 Alpha virt. eigenvalues --   -0.03512  -0.02326   0.01001   0.05237   0.07146
 Alpha virt. eigenvalues --    0.09642   0.09909   0.11797   0.12316   0.13449
 Alpha virt. eigenvalues --    0.14157   0.16025   0.16137   0.16396   0.16925
 Alpha virt. eigenvalues --    0.17318   0.17925   0.19020   0.20164   0.20341
 Alpha virt. eigenvalues --    0.21025   0.21330   0.22172   0.23421   0.23713
 Alpha virt. eigenvalues --    0.25119   0.26163   0.26827   0.28320   0.29891
 Alpha virt. eigenvalues --    0.31307   0.33183   0.37808   0.40394   0.42458
 Alpha virt. eigenvalues --    0.43261   0.45644   0.45958   0.46566   0.47038
 Alpha virt. eigenvalues --    0.47873   0.48854   0.49179   0.49542   0.50615
 Alpha virt. eigenvalues --    0.51365   0.51784   0.52878   0.53112   0.54387
 Alpha virt. eigenvalues --    0.55382   0.56524   0.57430   0.59516   0.60363
 Alpha virt. eigenvalues --    0.60944   0.61242   0.61803   0.62560   0.66180
 Alpha virt. eigenvalues --    0.66260   0.67305   0.68194   0.69642   0.70259
 Alpha virt. eigenvalues --    0.71347   0.71662   0.73409   0.75595   0.75861
 Alpha virt. eigenvalues --    0.78242   0.79034   0.80409   0.80947   0.82636
 Alpha virt. eigenvalues --    0.83863   0.84180   0.85134   0.85476   0.85937
 Alpha virt. eigenvalues --    0.86680   0.86879   0.87612   0.88293   0.88515
 Alpha virt. eigenvalues --    0.89572   0.89729   0.91424   0.92003   0.92954
 Alpha virt. eigenvalues --    0.93485   0.93838   0.96793   0.98280   0.98879
 Alpha virt. eigenvalues --    1.00878   1.01945   1.03255   1.06848   1.09578
 Alpha virt. eigenvalues --    1.10642   1.12495   1.14636   1.17815   1.19594
 Alpha virt. eigenvalues --    1.22230   1.23344   1.24640   1.26858   1.28027
 Alpha virt. eigenvalues --    1.29083   1.31586   1.34850   1.37995   1.39329
 Alpha virt. eigenvalues --    1.40223   1.41509   1.42219   1.45909   1.46371
 Alpha virt. eigenvalues --    1.48276   1.50736   1.52354   1.53591   1.54835
 Alpha virt. eigenvalues --    1.56196   1.59637   1.61911   1.63768   1.67349
 Alpha virt. eigenvalues --    1.68952   1.70347   1.71682   1.73391   1.76753
 Alpha virt. eigenvalues --    1.78234   1.79372   1.79511   1.80927   1.81454
 Alpha virt. eigenvalues --    1.83621   1.84677   1.85349   1.86924   1.87500
 Alpha virt. eigenvalues --    1.88080   1.89642   1.91864   1.93276   1.95841
 Alpha virt. eigenvalues --    1.99346   2.00686   2.02785   2.03055   2.04295
 Alpha virt. eigenvalues --    2.05389   2.05830   2.06032   2.06057   2.07264
 Alpha virt. eigenvalues --    2.08351   2.09275   2.10422   2.11330   2.12428
 Alpha virt. eigenvalues --    2.13250   2.14050   2.14959   2.15776   2.16180
 Alpha virt. eigenvalues --    2.16581   2.19136   2.19762   2.19966   2.23448
 Alpha virt. eigenvalues --    2.25437   2.29453   2.31380   2.32306   2.32729
 Alpha virt. eigenvalues --    2.33726   2.35184   2.39204   2.39578   2.40349
 Alpha virt. eigenvalues --    2.45850   2.47437   2.49383   2.49777   2.52369
 Alpha virt. eigenvalues --    2.55294   2.55955   2.57544   2.58507   2.61507
 Alpha virt. eigenvalues --    2.63607   2.63679   2.64539   2.65615   2.68062
 Alpha virt. eigenvalues --    2.69841   2.71909   2.72939   2.74429   2.75127
 Alpha virt. eigenvalues --    2.76816   2.78263   2.79759   2.81803   2.83538
 Alpha virt. eigenvalues --    2.85416   2.87764   2.88744   2.89940   2.90408
 Alpha virt. eigenvalues --    2.93952   2.95994   2.96345   2.96956   3.03296
 Alpha virt. eigenvalues --    3.03502   3.12851   3.17037   3.18051   3.18231
 Alpha virt. eigenvalues --    3.19900   3.24599   3.24775   3.27841   3.40039
 Alpha virt. eigenvalues --    3.41499   3.44275   3.44405   3.44815   3.45016
 Alpha virt. eigenvalues --    3.45699   3.53443   3.53674   3.55393   3.67527
 Alpha virt. eigenvalues --    4.08942   4.10028   4.13162   4.17807   4.20612
 Alpha virt. eigenvalues --    4.23317   4.29517   4.39665   4.42767   4.49100
 Alpha virt. eigenvalues --    4.51966   4.53964   4.57646   4.73029   4.74289
 Alpha virt. eigenvalues --    8.60674  72.83935
          Condensed to atoms (all electrons):
               1          2          3          4          5          6
     1  Br  34.943692   0.280690  -0.072502   0.003954  -0.000161   0.000509
     2  C    0.280690   4.751094   0.451218  -0.020371   0.006700  -0.050305
     3  C   -0.072502   0.451218   5.033989   0.515055  -0.055490  -0.032491
     4  C    0.003954  -0.020371   0.515055   4.656492   0.356283   0.543620
     5  C   -0.000161   0.006700  -0.055490   0.356283   5.014784  -0.056890
     6  C    0.000509  -0.050305  -0.032491   0.543620  -0.056890   5.117874
     7  C    0.003891  -0.023049  -0.043903  -0.014549   0.006014   0.431611
     8  N   -0.000065   0.003758   0.000736   0.002729  -0.000120  -0.078136
     9  C   -0.000015   0.000001   0.000001  -0.000050   0.000001   0.004197
    10  O    0.000042  -0.000163  -0.000023   0.000006   0.000000   0.000054
    11  C   -0.000008  -0.000001   0.000000  -0.000000  -0.000000  -0.000002
    12  C   -0.000113  -0.000042  -0.000000   0.000000  -0.000000   0.000001
    13  C    0.000000  -0.000001  -0.000000   0.000000   0.000000   0.000000
    14  C    0.000000   0.000000  -0.000000   0.000000   0.000000   0.000000
    15  O   -0.000000   0.000001  -0.000000   0.000000  -0.000000  -0.000167
    16  N   -0.066449   0.400809  -0.038952  -0.036887   0.000236  -0.059504
    17  H    0.000350  -0.040342   0.364784  -0.040952  -0.008927   0.006189
    18  H   -0.000008   0.000175  -0.003200  -0.028127   0.377852   0.002802
    19  H    0.000003  -0.000176  -0.001269  -0.024895   0.374418  -0.002180
    20  H    0.000002  -0.000199   0.002564  -0.028981   0.377136  -0.003866
    21  H    0.000015   0.000328   0.006285  -0.034098  -0.008695   0.352373
    22  H    0.000002  -0.000097   0.000011   0.000199  -0.000012  -0.004342
    23  H    0.000689  -0.000035   0.000001   0.000000   0.000000   0.000001
    24  H    0.000136  -0.000013  -0.000000   0.000000   0.000000   0.000000
    25  H    0.000003   0.000000   0.000000  -0.000000   0.000000   0.000000
    26  H   -0.000000  -0.000000  -0.000000   0.000000  -0.000000   0.000000
    27  H   -0.000000  -0.000000   0.000000  -0.000000   0.000000   0.000000
    28  H    0.000000   0.000000   0.000000   0.000000   0.000000   0.000000
    29  H   -0.000000  -0.000000   0.000000   0.000000   0.000000   0.000000
    30  H   -0.000000  -0.000000  -0.000000   0.000000   0.000000   0.000000
    31  H   -0.000000  -0.000000   0.000000  -0.000000   0.000000   0.000000
               7          8          9         10         11         12
     1  Br   0.003891  -0.000065  -0.000015   0.000042  -0.000008  -0.000113
     2  C   -0.023049   0.003758   0.000001  -0.000163  -0.000001  -0.000042
     3  C   -0.043903   0.000736   0.000001  -0.000023   0.000000  -0.000000
     4  C   -0.014549   0.002729  -0.000050   0.000006  -0.000000   0.000000
     5  C    0.006014  -0.000120   0.000001   0.000000  -0.000000  -0.000000
     6  C    0.431611  -0.078136   0.004197   0.000054  -0.000002   0.000001
     7  C    4.530572   0.213196  -0.009920   0.008087  -0.000184  -0.000029
     8  N    0.213196   7.116711   0.269944  -0.092218   0.004073  -0.000200
     9  C   -0.009920   0.269944   4.144058   0.294669  -0.015423   0.004168
    10  O    0.008087  -0.092218   0.294669   8.300558   0.182812  -0.054440
    11  C   -0.000184   0.004073  -0.015423   0.182812   4.609250   0.409627
    12  C   -0.000029  -0.000200   0.004168  -0.054440   0.409627   4.971775
    13  C    0.000043  -0.000406  -0.004654  -0.042379   0.378278  -0.065107
    14  C    0.000007  -0.000381  -0.004966  -0.042539   0.376883  -0.066328
    15  O    0.001970  -0.080711   0.542727  -0.075906   0.001882   0.000137
    16  N    0.441336  -0.070231   0.002526  -0.010434  -0.000393   0.000358
    17  H    0.000416   0.000011  -0.000000   0.000000   0.000000  -0.000000
    18  H   -0.000164   0.000001  -0.000000   0.000000   0.000000  -0.000000
    19  H   -0.000174   0.000003  -0.000000   0.000000  -0.000000  -0.000000
    20  H    0.000204  -0.000002   0.000000   0.000000  -0.000000   0.000000
    21  H   -0.042941  -0.004069  -0.000019  -0.000002   0.000000  -0.000000
    22  H   -0.026370   0.340042  -0.016733   0.003470  -0.000107   0.000004
    23  H    0.000035  -0.000021   0.000057  -0.000266  -0.023627   0.374232
    24  H    0.000039  -0.000022   0.000049   0.000082  -0.024285   0.373018
    25  H    0.000001   0.000002  -0.000037   0.003568  -0.029320   0.367773
    26  H    0.000005  -0.000048   0.000423   0.000230  -0.026519  -0.005952
    27  H   -0.000003   0.000037   0.001979  -0.003053  -0.023216   0.004834
    28  H   -0.000001   0.000004   0.000191   0.002849  -0.024551  -0.003366
    29  H   -0.000000   0.000004   0.000210   0.002846  -0.024508  -0.003166
    30  H    0.000008  -0.000045   0.000440   0.000200  -0.026558  -0.006057
    31  H   -0.000005   0.000035   0.001849  -0.002908  -0.023096   0.004835
              13         14         15         16         17         18
     1  Br   0.000000   0.000000  -0.000000  -0.066449   0.000350  -0.000008
     2  C   -0.000001   0.000000   0.000001   0.400809  -0.040342   0.000175
     3  C   -0.000000  -0.000000  -0.000000  -0.038952   0.364784  -0.003200
     4  C    0.000000   0.000000   0.000000  -0.036887  -0.040952  -0.028127
     5  C    0.000000   0.000000  -0.000000   0.000236  -0.008927   0.377852
     6  C    0.000000   0.000000  -0.000167  -0.059504   0.006189   0.002802
     7  C    0.000043   0.000007   0.001970   0.441336   0.000416  -0.000164
     8  N   -0.000406  -0.000381  -0.080711  -0.070231   0.000011   0.000001
     9  C   -0.004654  -0.004966   0.542727   0.002526  -0.000000  -0.000000
    10  O   -0.042379  -0.042539  -0.075906  -0.010434   0.000000   0.000000
    11  C    0.378278   0.376883   0.001882  -0.000393   0.000000   0.000000
    12  C   -0.065107  -0.066328   0.000137   0.000358  -0.000000  -0.000000
    13  C    5.017288  -0.062422  -0.004506  -0.000037   0.000000  -0.000000
    14  C   -0.062422   5.020780  -0.004430  -0.000004  -0.000000  -0.000000
    15  O   -0.004506  -0.004430   8.108729   0.000032   0.000000   0.000000
    16  N   -0.000037  -0.000004   0.000032   6.930734   0.004852   0.000007
    17  H    0.000000  -0.000000   0.000000   0.004852   0.607113   0.004567
    18  H   -0.000000  -0.000000   0.000000   0.000007   0.004567   0.576648
    19  H    0.000000   0.000000   0.000000   0.000013   0.000513  -0.026813
    20  H    0.000000   0.000000  -0.000000   0.000011   0.000069  -0.030042
    21  H    0.000000  -0.000000  -0.000011   0.004653  -0.000107   0.000038
    22  H    0.000007   0.000011   0.007847   0.002836  -0.000000   0.000000
    23  H   -0.006192   0.005455   0.000002   0.000749  -0.000000  -0.000000
    24  H    0.005607  -0.006327   0.000002   0.000227  -0.000000  -0.000000
    25  H   -0.002233  -0.002059   0.000008   0.000012  -0.000000  -0.000000
    26  H    0.371865   0.005401  -0.000074   0.000000   0.000000   0.000000
    27  H    0.376246  -0.006177   0.008588   0.000001  -0.000000  -0.000000
    28  H    0.367921  -0.001724   0.000145   0.000000  -0.000000   0.000000
    29  H   -0.001802   0.367289   0.000157   0.000000  -0.000000  -0.000000
    30  H    0.005429   0.370799  -0.000083  -0.000006   0.000000  -0.000000
    31  H   -0.006044   0.376177   0.008834   0.000000  -0.000000  -0.000000
              19         20         21         22         23         24
     1  Br   0.000003   0.000002   0.000015   0.000002   0.000689   0.000136
     2  C   -0.000176  -0.000199   0.000328  -0.000097  -0.000035  -0.000013
     3  C   -0.001269   0.002564   0.006285   0.000011   0.000001  -0.000000
     4  C   -0.024895  -0.028981  -0.034098   0.000199   0.000000   0.000000
     5  C    0.374418   0.377136  -0.008695  -0.000012   0.000000   0.000000
     6  C   -0.002180  -0.003866   0.352373  -0.004342   0.000001   0.000000
     7  C   -0.000174   0.000204  -0.042941  -0.026370   0.000035   0.000039
     8  N    0.000003  -0.000002  -0.004069   0.340042  -0.000021  -0.000022
     9  C   -0.000000   0.000000  -0.000019  -0.016733   0.000057   0.000049
    10  O    0.000000   0.000000  -0.000002   0.003470  -0.000266   0.000082
    11  C   -0.000000  -0.000000   0.000000  -0.000107  -0.023627  -0.024285
    12  C   -0.000000   0.000000  -0.000000   0.000004   0.374232   0.373018
    13  C    0.000000   0.000000   0.000000   0.000007  -0.006192   0.005607
    14  C    0.000000   0.000000  -0.000000   0.000011   0.005455  -0.006327
    15  O    0.000000  -0.000000  -0.000011   0.007847   0.000002   0.000002
    16  N    0.000013   0.000011   0.004653   0.002836   0.000749   0.000227
    17  H    0.000513   0.000069  -0.000107  -0.000000  -0.000000  -0.000000
    18  H   -0.026813  -0.030042   0.000038   0.000000  -0.000000  -0.000000
    19  H    0.567507  -0.028009   0.000739  -0.000000   0.000000  -0.000000
    20  H   -0.028009   0.582321   0.004259   0.000001  -0.000000   0.000000
    21  H    0.000739   0.004259   0.631216   0.004381  -0.000000  -0.000000
    22  H   -0.000000   0.000001   0.004381   0.404774   0.000000  -0.000000
    23  H    0.000000  -0.000000  -0.000000   0.000000   0.582315  -0.029376
    24  H   -0.000000   0.000000  -0.000000  -0.000000  -0.029376   0.594587
    25  H   -0.000000   0.000000  -0.000000  -0.000000  -0.029220  -0.029971
    26  H    0.000000  -0.000000   0.000000  -0.000000   0.003914  -0.000064
    27  H   -0.000000  -0.000000   0.000000   0.000000  -0.000036  -0.000198
    28  H   -0.000000  -0.000000   0.000000  -0.000000   0.000145  -0.000007
    29  H    0.000000   0.000000  -0.000000  -0.000000   0.000003   0.000137
    30  H    0.000000   0.000000   0.000000  -0.000001  -0.000068   0.004083
    31  H   -0.000000   0.000000   0.000000   0.000000  -0.000194  -0.000038
              25         26         27         28         29         30
     1  Br   0.000003  -0.000000  -0.000000   0.000000  -0.000000  -0.000000
     2  C    0.000000  -0.000000  -0.000000   0.000000  -0.000000  -0.000000
     3  C    0.000000  -0.000000   0.000000   0.000000   0.000000  -0.000000
     4  C   -0.000000   0.000000  -0.000000   0.000000   0.000000   0.000000
     5  C    0.000000  -0.000000   0.000000   0.000000   0.000000   0.000000
     6  C    0.000000   0.000000   0.000000   0.000000   0.000000   0.000000
     7  C    0.000001   0.000005  -0.000003  -0.000001  -0.000000   0.000008
     8  N    0.000002  -0.000048   0.000037   0.000004   0.000004  -0.000045
     9  C   -0.000037   0.000423   0.001979   0.000191   0.000210   0.000440
    10  O    0.003568   0.000230  -0.003053   0.002849   0.002846   0.000200
    11  C   -0.029320  -0.026519  -0.023216  -0.024551  -0.024508  -0.026558
    12  C    0.367773  -0.005952   0.004834  -0.003366  -0.003166  -0.006057
    13  C   -0.002233   0.371865   0.376246   0.367921  -0.001802   0.005429
    14  C   -0.002059   0.005401  -0.006177  -0.001724   0.367289   0.370799
    15  O    0.000008  -0.000074   0.008588   0.000145   0.000157  -0.000083
    16  N    0.000012   0.000000   0.000001   0.000000   0.000000  -0.000006
    17  H   -0.000000   0.000000  -0.000000  -0.000000  -0.000000   0.000000
    18  H   -0.000000   0.000000  -0.000000   0.000000  -0.000000  -0.000000
    19  H   -0.000000   0.000000  -0.000000  -0.000000   0.000000   0.000000
    20  H    0.000000  -0.000000  -0.000000  -0.000000   0.000000   0.000000
    21  H   -0.000000   0.000000   0.000000   0.000000  -0.000000   0.000000
    22  H   -0.000000  -0.000000   0.000000  -0.000000  -0.000000  -0.000001
    23  H   -0.029220   0.003914  -0.000036   0.000145   0.000003  -0.000068
    24  H   -0.029971  -0.000064  -0.000198  -0.000007   0.000137   0.004083
    25  H    0.619958   0.000145   0.000014   0.001757   0.001777   0.000132
    26  H    0.000145   0.601442  -0.030434  -0.029017  -0.000054  -0.000206
    27  H    0.000014  -0.030434   0.563083  -0.028262   0.000154  -0.000006
    28  H    0.001757  -0.029017  -0.028262   0.611010   0.001197  -0.000054
    29  H    0.001777  -0.000054   0.000154   0.001197   0.611448  -0.029307
    30  H    0.000132  -0.000206  -0.000006  -0.000054  -0.029307   0.607139
    31  H    0.000014  -0.000008   0.003115   0.000134  -0.028035  -0.030557
              31
     1  Br  -0.000000
     2  C   -0.000000
     3  C    0.000000
     4  C   -0.000000
     5  C    0.000000
     6  C    0.000000
     7  C   -0.000005
     8  N    0.000035
     9  C    0.001849
    10  O   -0.002908
    11  C   -0.023096
    12  C    0.004835
    13  C   -0.006044
    14  C    0.376177
    15  O    0.008834
    16  N    0.000000
    17  H   -0.000000
    18  H   -0.000000
    19  H   -0.000000
    20  H    0.000000
    21  H    0.000000
    22  H    0.000000
    23  H   -0.000194
    24  H   -0.000038
    25  H    0.000014
    26  H   -0.000008
    27  H    0.003115
    28  H    0.000134
    29  H   -0.028035
    30  H   -0.030557
    31  H    0.562018
 Mulliken charges:
               1
     1  Br  -0.094658
     2  C    0.240019
     3  C   -0.126814
     4  C    0.150573
     5  C   -0.383128
     6  C   -0.171350
     7  C    0.523856
     8  N   -0.624609
     9  C    0.784326
    10  O   -0.475140
    11  C    0.278992
    12  C   -0.305959
    13  C   -0.326902
    14  C   -0.325446
    15  O   -0.515173
    16  N   -0.506496
    17  H    0.101463
    18  H    0.126263
    19  H    0.140319
    20  H    0.124531
    21  H    0.085656
    22  H    0.284077
    23  H    0.121436
    24  H    0.112333
    25  H    0.097677
    26  H    0.108951
    27  H    0.133335
    28  H    0.101627
    29  H    0.101650
    30  H    0.104718
    31  H    0.133873
 Sum of Mulliken charges =  -0.00000
 Mulliken charges with hydrogens summed into heavy atoms:
               1
     1  Br  -0.094658
     2  C    0.240019
     3  C   -0.025351
     4  C    0.150573
     5  C    0.007986
     6  C   -0.085694
     7  C    0.523856
     8  N   -0.340532
     9  C    0.784326
    10  O   -0.475140
    11  C    0.278992
    12  C    0.025487
    13  C    0.017011
    14  C    0.014795
    15  O   -0.515173
    16  N   -0.506496
 Electronic spatial extent (au):  <R**2>=           5879.6929
 Charge=             -0.0000 electrons
 Dipole moment (field-independent basis, Debye):
    X=              2.7465    Y=              1.7735    Z=              0.5831  Tot=              3.3209
 Quadrupole moment (field-independent basis, Debye-Ang):
   XX=           -100.7254   YY=            -98.9537   ZZ=           -107.3240
   XY=             15.4384   XZ=             -0.8206   YZ=              0.5233
 Traceless Quadrupole moment (field-independent basis, Debye-Ang):
   XX=              1.6090   YY=              3.3807   ZZ=             -4.9896
   XY=             15.4384   XZ=             -0.8206   YZ=              0.5233
 Octapole moment (field-independent basis, Debye-Ang**2):
  XXX=             88.3018  YYY=            -39.3687  ZZZ=             -4.7046  XYY=             44.4140
  XXY=            -38.1197  XXZ=              8.8889  XZZ=             10.7818  YZZ=            -20.8575
  YYZ=             -0.5178  XYZ=             -2.2760
 Hexadecapole moment (field-independent basis, Debye-Ang**3):
 XXXX=          -4749.6092 YYYY=          -1892.8499 ZZZZ=           -316.5121 XXXY=             37.1458
 XXXZ=             -8.3435 YYYX=           -104.9988 YYYZ=              6.5253 ZZZX=             -3.0630
 ZZZY=              2.7676 XXYY=          -1177.6802 XXZZ=           -877.5643 YYZZ=           -399.1424
 XXYZ=             16.2205 YYXZ=             -8.0503 ZZXY=            -57.2049
 N-N= 1.444361923760D+03 E-N=-1.062332982021D+04  KE= 3.237608564273D+03
 Calling FoFJK, ICntrl=      2127 FMM=F ISym2X=0 I1Cent= 0 IOpClX= 0 NMat=1 NMatS=1 NMatT=0.
 ***** Axes restored to original set *****
 -------------------------------------------------------------------
 Center     Atomic                   Forces (Hartrees/Bohr)
 Number     Number              X              Y              Z
 -------------------------------------------------------------------
      1       35          -0.003779567    0.000617277    0.000235759
      2        6          -0.014879619    0.026098258    0.036920588
      3        6          -0.002835522   -0.003287917   -0.006933535
      4        6           0.001879967    0.001051875    0.006559154
      5        6          -0.006952245   -0.004235230   -0.000229394
      6        6           0.007197046   -0.004525263   -0.007201495
      7        6           0.003242144   -0.012545199   -0.020284649
      8        7          -0.005869818   -0.011244265   -0.014604034
      9        6          -0.032318842   -0.003752976   -0.001824419
     10        8           0.031352200    0.008609576    0.007670278
     11        6          -0.028073475   -0.004371251   -0.004017852
     12        6           0.006082897   -0.000539660   -0.001469381
     13        6           0.004570268    0.004715874    0.005879571
     14        6           0.004227208    0.006061344    0.004590609
     15        8           0.014807857   -0.005208984   -0.006276281
     16        7           0.010572457   -0.002921973   -0.001977239
     17        1           0.002941759   -0.001208978   -0.000511254
     18        1           0.001244101    0.000146357   -0.003278500
     19        1           0.002561306    0.002136508   -0.000624929
     20        1          -0.000466059    0.002806090    0.001983570
     21        1           0.000578781    0.001495737    0.003945692
     22        1          -0.000827035    0.003401721    0.003823563
     23        1           0.001600560    0.002681020   -0.000485543
     24        1           0.001333688   -0.000856244    0.002777307
     25        1          -0.003704535    0.001645177    0.001965777
     26        1           0.002784281   -0.001422612   -0.002955784
     27        1           0.001350879   -0.000474512    0.003199561
     28        1          -0.001328158   -0.004522639   -0.000488958
     29        1          -0.001452540   -0.000584662   -0.004471269
     30        1           0.002825402   -0.002981004   -0.001425546
     31        1           0.001334617    0.003216554   -0.000491366
 -------------------------------------------------------------------
 Cartesian Forces:  Max     0.036920588 RMS     0.008909184

 GradGradGradGradGradGradGradGradGradGradGradGradGradGradGradGradGradGrad
 Berny optimization.
 FormGI is forming the generalized inverse of G from B-inverse, IUseBI=4.
 Internal  Forces:  Max     0.035510403 RMS     0.006046308
 Search for a local minimum.
 Step number   1 out of a maximum of  160
 All quantities printed in internal units (Hartrees-Bohrs-Radians)
 Mixed Optimization -- RFO/linear search
 Second derivative matrix not updated -- first step.
 ITU=  0
     Eigenvalues ---    0.00230   0.00230   0.00288   0.00555   0.01304
     Eigenvalues ---    0.01490   0.01647   0.01753   0.01854   0.01965
     Eigenvalues ---    0.02007   0.02114   0.02123   0.02144   0.02144
     Eigenvalues ---    0.02194   0.02218   0.02289   0.04453   0.05321
     Eigenvalues ---    0.05323   0.05338   0.05381   0.05383   0.05445
     Eigenvalues ---    0.05454   0.06851   0.07097   0.07191   0.15843
     Eigenvalues ---    0.15992   0.16000   0.16000   0.16000   0.16000
     Eigenvalues ---    0.16000   0.16000   0.16000   0.16000   0.16000
     Eigenvalues ---    0.16000   0.16000   0.16000   0.16000   0.16000
     Eigenvalues ---    0.16322   0.18138   0.22004   0.23487   0.23520
     Eigenvalues ---    0.24995   0.24996   0.24998   0.24998   0.25000
     Eigenvalues ---    0.25000   0.25000   0.28318   0.28329   0.28864
     Eigenvalues ---    0.30762   0.34728   0.34744   0.34744   0.34750
     Eigenvalues ---    0.34785   0.34817   0.34824   0.34828   0.34829
     Eigenvalues ---    0.34830   0.34851   0.34853   0.35986   0.36043
     Eigenvalues ---    0.41083   0.42375   0.43859   0.45067   0.46009
     Eigenvalues ---    0.46296   0.47057   0.47719   0.51289   0.52857
     Eigenvalues ---    0.54009   0.92290
 RFO step:  Lambda=-1.57280263D-02 EMin= 2.30000000D-03
 Linear search not attempted -- first point.
 Iteration  1 RMS(Cart)=  0.07494454 RMS(Int)=  0.00113091
 Iteration  2 RMS(Cart)=  0.00224721 RMS(Int)=  0.00015698
 Iteration  3 RMS(Cart)=  0.00000260 RMS(Int)=  0.00015697
 Iteration  4 RMS(Cart)=  0.00000000 RMS(Int)=  0.00015697
 Variable       Old X    -DE/DX   Delta X   Delta X   Delta X     New X
                                 (Linear)    (Quad)   (Total)
    R1        3.59486   0.00019   0.00000   0.00097   0.00097   3.59583
    R2        2.63589  -0.00240   0.00000  -0.00551  -0.00538   2.63050
    R3        2.56177  -0.03551   0.00000  -0.06659  -0.06655   2.49522
    R4        2.63944  -0.00232   0.00000  -0.00238  -0.00229   2.63716
    R5        2.04014   0.00296   0.00000   0.00788   0.00788   2.04802
    R6        2.86469  -0.00405   0.00000  -0.01251  -0.01251   2.85218
    R7        2.64127  -0.00678   0.00000  -0.01133  -0.01137   2.62990
    R8        2.06093   0.00150   0.00000   0.00412   0.00412   2.06504
    R9        2.06025   0.00309   0.00000   0.00850   0.00850   2.06875
   R10        2.06083   0.00202   0.00000   0.00557   0.00557   2.06640
   R11        2.64264   0.00579   0.00000   0.01255   0.01242   2.65506
   R12        2.04103   0.00418   0.00000   0.01113   0.01113   2.05216
   R13        2.65198  -0.00602   0.00000  -0.01291  -0.01291   2.63908
   R14        2.57311  -0.02940   0.00000  -0.05644  -0.05654   2.51657
   R15        2.62240  -0.00565   0.00000  -0.01146  -0.01146   2.61094
   R16        1.89657   0.00462   0.00000   0.00951   0.00951   1.90608
   R17        2.56023  -0.02155   0.00000  -0.03877  -0.03877   2.52147
   R18        2.31895  -0.01543   0.00000  -0.01644  -0.01644   2.30251
   R19        2.70108   0.00698   0.00000   0.01637   0.01637   2.71746
   R20        2.90287  -0.00369   0.00000  -0.01212  -0.01212   2.89075
   R21        2.91448  -0.00703   0.00000  -0.02350  -0.02350   2.89097
   R22        2.91425  -0.00684   0.00000  -0.02287  -0.02287   2.89138
   R23        2.06118   0.00209   0.00000   0.00576   0.00576   2.06694
   R24        2.06092   0.00226   0.00000   0.00621   0.00621   2.06713
   R25        2.05954   0.00225   0.00000   0.00617   0.00617   2.06571
   R26        2.05973   0.00306   0.00000   0.00841   0.00841   2.06814
   R27        2.05956   0.00172   0.00000   0.00473   0.00473   2.06429
   R28        2.05917   0.00251   0.00000   0.00689   0.00689   2.06606
   R29        2.05915   0.00256   0.00000   0.00703   0.00703   2.06618
   R30        2.05962   0.00319   0.00000   0.00877   0.00877   2.06839
   R31        2.05952   0.00168   0.00000   0.00461   0.00461   2.06413
    A1        2.07855  -0.00148   0.00000  -0.00308  -0.00316   2.07539
    A2        2.07181  -0.01525   0.00000  -0.05492  -0.05500   2.01681
    A3        2.13282   0.01673   0.00000   0.05800   0.05817   2.19099
    A4        2.07583  -0.00650   0.00000  -0.02204  -0.02181   2.05402
    A5        2.09189   0.00447   0.00000   0.01797   0.01786   2.10975
    A6        2.11546   0.00203   0.00000   0.00407   0.00395   2.11942
    A7        2.10292   0.00395   0.00000   0.00939   0.00931   2.11223
    A8        2.07847  -0.00873   0.00000  -0.02169  -0.02167   2.05680
    A9        2.10164   0.00480   0.00000   0.01259   0.01251   2.11415
   A10        1.94076  -0.00072   0.00000  -0.00241  -0.00245   1.93831
   A11        1.92989   0.00122   0.00000   0.00204   0.00203   1.93192
   A12        1.93350   0.00003   0.00000   0.00336   0.00333   1.93683
   A13        1.90183  -0.00158   0.00000  -0.01491  -0.01494   1.88689
   A14        1.86031   0.00242   0.00000   0.02320   0.02314   1.88345
   A15        1.89561  -0.00140   0.00000  -0.01118  -0.01118   1.88443
   A16        2.08035  -0.00218   0.00000  -0.00108  -0.00124   2.07911
   A17        2.09488   0.00112   0.00000   0.00074   0.00081   2.09569
   A18        2.10795   0.00105   0.00000   0.00034   0.00042   2.10837
   A19        2.03004   0.00885   0.00000   0.03469   0.03479   2.06483
   A20        2.12209   0.00804   0.00000   0.02756   0.02735   2.14944
   A21        2.13086  -0.01689   0.00000  -0.06219  -0.06209   2.06877
   A22        2.30060  -0.00067   0.00000  -0.00277  -0.00278   2.29783
   A23        2.01586   0.00255   0.00000   0.01415   0.01415   2.03001
   A24        1.96561  -0.00187   0.00000  -0.01103  -0.01104   1.95456
   A25        1.97669  -0.00906   0.00000  -0.03404  -0.03407   1.94262
   A26        2.13004  -0.00347   0.00000  -0.01298  -0.01301   2.11703
   A27        2.17630   0.01254   0.00000   0.04725   0.04723   2.22352
   A28        2.18834  -0.02206   0.00000  -0.08302  -0.08302   2.10532
   A29        1.80697  -0.00095   0.00000  -0.00910  -0.00860   1.79837
   A30        1.94860  -0.00139   0.00000  -0.02556  -0.02561   1.92299
   A31        1.94791  -0.00103   0.00000  -0.02245  -0.02252   1.92539
   A32        1.90611   0.00204   0.00000   0.02795   0.02754   1.93365
   A33        1.90738   0.00190   0.00000   0.02783   0.02742   1.93481
   A34        1.94158  -0.00041   0.00000   0.00331   0.00213   1.94371
   A35        1.94082  -0.00183   0.00000  -0.00946  -0.00955   1.93127
   A36        1.94134  -0.00180   0.00000  -0.01016  -0.01027   1.93107
   A37        1.95088  -0.00452   0.00000  -0.02681  -0.02698   1.92390
   A38        1.86413   0.00221   0.00000   0.01461   0.01459   1.87872
   A39        1.88142   0.00339   0.00000   0.01911   0.01897   1.90039
   A40        1.88155   0.00314   0.00000   0.01608   0.01589   1.89744
   A41        1.93793  -0.00233   0.00000  -0.01363  -0.01381   1.92413
   A42        1.95082  -0.00249   0.00000  -0.01134  -0.01142   1.93940
   A43        1.94586  -0.00450   0.00000  -0.02806  -0.02832   1.91755
   A44        1.86991   0.00325   0.00000   0.02313   0.02313   1.89303
   A45        1.88223   0.00285   0.00000   0.01090   0.01054   1.89278
   A46        1.87342   0.00387   0.00000   0.02274   0.02259   1.89602
   A47        1.94549  -0.00442   0.00000  -0.02753  -0.02778   1.91771
   A48        1.93824  -0.00223   0.00000  -0.01317  -0.01335   1.92489
   A49        1.95093  -0.00257   0.00000  -0.01172  -0.01180   1.93913
   A50        1.88222   0.00275   0.00000   0.01022   0.00988   1.89210
   A51        1.87331   0.00391   0.00000   0.02320   0.02306   1.89637
   A52        1.86998   0.00320   0.00000   0.02270   0.02270   1.89268
   A53        2.07673  -0.00735   0.00000  -0.04075  -0.04082   2.03591
    D1        3.13931   0.00005   0.00000   0.00165   0.00161   3.14092
    D2       -0.00002   0.00001   0.00000   0.00052   0.00051   0.00049
    D3       -0.00300   0.00008   0.00000   0.00333   0.00335   0.00035
    D4        3.14085   0.00004   0.00000   0.00219   0.00225  -3.14009
    D5        3.13318  -0.00009   0.00000  -0.00188  -0.00193   3.13125
    D6       -0.00770  -0.00012   0.00000  -0.00357  -0.00363  -0.01133
    D7        3.13180   0.00062   0.00000   0.01816   0.01814  -3.13324
    D8        0.00866   0.00001   0.00000   0.00039   0.00053   0.00919
    D9       -0.01208   0.00067   0.00000   0.01933   0.01927   0.00719
   D10       -3.13523   0.00006   0.00000   0.00156   0.00166  -3.13356
   D11       -0.47105   0.00117   0.00000   0.00712   0.00704  -0.46401
   D12        1.64418  -0.00049   0.00000  -0.01200  -0.01208   1.63210
   D13       -2.53645  -0.00142   0.00000  -0.02248  -0.02259  -2.55904
   D14        2.65185   0.00165   0.00000   0.02477   0.02487   2.67672
   D15       -1.51611  -0.00001   0.00000   0.00565   0.00575  -1.51036
   D16        0.58644  -0.00094   0.00000  -0.00483  -0.00476   0.58168
   D17       -0.00384  -0.00017   0.00000  -0.00384  -0.00386  -0.00769
   D18        3.13605  -0.00023   0.00000  -0.00613  -0.00618   3.12987
   D19       -3.12699  -0.00077   0.00000  -0.02157  -0.02145   3.13474
   D20        0.01289  -0.00083   0.00000  -0.02385  -0.02377  -0.01088
   D21       -3.12757   0.00018   0.00000   0.00111   0.00102  -3.12656
   D22       -0.00704   0.00009   0.00000   0.00338   0.00343  -0.00361
   D23        0.01574   0.00024   0.00000   0.00341   0.00336   0.01910
   D24        3.13627   0.00015   0.00000   0.00568   0.00577  -3.14115
   D25       -2.92806  -0.00016   0.00000  -0.00753  -0.00758  -2.93565
   D26        0.15833   0.00008   0.00000   0.00103   0.00102   0.15936
   D27        0.23470  -0.00040   0.00000  -0.01099  -0.01099   0.22372
   D28       -2.96209  -0.00016   0.00000  -0.00244  -0.00238  -2.96447
   D29        0.01276   0.00002   0.00000   0.00011   0.00007   0.01283
   D30        3.13207   0.00026   0.00000   0.00376   0.00367   3.13574
   D31        0.04064  -0.00011   0.00000  -0.00264  -0.00256   0.03808
   D32       -3.11894   0.00045   0.00000   0.01141   0.01129  -3.10766
   D33       -3.04698  -0.00045   0.00000  -0.01162  -0.01149  -3.05848
   D34        0.07662   0.00011   0.00000   0.00243   0.00236   0.07898
   D35       -3.13019   0.00075   0.00000   0.02139   0.02158  -3.10861
   D36        0.02995   0.00037   0.00000   0.00767   0.00748   0.03743
   D37        3.13032   0.00006   0.00000   0.00164   0.00166   3.13197
   D38        1.08192  -0.00114   0.00000  -0.01387  -0.01375   1.06817
   D39       -1.10330   0.00126   0.00000   0.01848   0.01834  -1.08496
   D40       -1.03488   0.00005   0.00000   0.00304   0.00307  -1.03181
   D41        1.04046   0.00043   0.00000   0.00851   0.00846   1.04893
   D42       -3.13854   0.00009   0.00000   0.00358   0.00359  -3.13494
   D43        1.04303  -0.00112   0.00000  -0.01830  -0.01851   1.02452
   D44        3.11837  -0.00073   0.00000  -0.01283  -0.01312   3.10525
   D45       -1.06063  -0.00108   0.00000  -0.01776  -0.01799  -1.07862
   D46       -3.11259   0.00086   0.00000   0.02084   0.02112  -3.09146
   D47       -1.03724   0.00124   0.00000   0.02631   0.02651  -1.01073
   D48        1.06694   0.00090   0.00000   0.02139   0.02164   1.08859
   D49        0.90412   0.00142   0.00000   0.02851   0.02832   0.93244
   D50       -1.18288   0.00055   0.00000   0.01601   0.01595  -1.16693
   D51        3.00342   0.00042   0.00000   0.01412   0.01408   3.01750
   D52       -1.08353   0.00214   0.00000   0.03733   0.03731  -1.04622
   D53        3.11266   0.00127   0.00000   0.02482   0.02494   3.13760
   D54        1.01577   0.00114   0.00000   0.02294   0.02307   1.03884
   D55        3.09284  -0.00131   0.00000  -0.01792  -0.01799   3.07485
   D56        1.00585  -0.00218   0.00000  -0.03042  -0.03036   0.97549
   D57       -1.09104  -0.00231   0.00000  -0.03231  -0.03223  -1.12327
   D58       -3.00290  -0.00050   0.00000  -0.01481  -0.01479  -3.01769
   D59       -0.90366  -0.00151   0.00000  -0.02939  -0.02923  -0.93289
   D60        1.18371  -0.00068   0.00000  -0.01739  -0.01735   1.16636
   D61       -1.01489  -0.00111   0.00000  -0.02200  -0.02211  -1.03700
   D62        1.08435  -0.00213   0.00000  -0.03658  -0.03655   1.04780
   D63       -3.11146  -0.00129   0.00000  -0.02458  -0.02468  -3.13614
   D64        1.09117   0.00243   0.00000   0.03334   0.03328   1.12445
   D65       -3.09277   0.00142   0.00000   0.01876   0.01884  -3.07393
   D66       -1.00540   0.00225   0.00000   0.03077   0.03072  -0.97468
         Item               Value     Threshold  Converged?
 Maximum Force            0.035510     0.000450     NO 
 RMS     Force            0.006046     0.000300     NO 
 Maximum Displacement     0.340838     0.001800     NO 
 RMS     Displacement     0.075479     0.001200     NO 
 Predicted change in Energy=-8.405205D-03
 GradGradGradGradGradGradGradGradGradGradGradGradGradGradGradGradGradGrad

                          Input orientation:                          
 ---------------------------------------------------------------------
 Center     Atomic      Atomic             Coordinates (Angstroms)
 Number     Number       Type             X           Y           Z
 ---------------------------------------------------------------------
      1         35           0        2.011736   -1.992083   -3.237975
      2          6           0        2.459832   -1.015613   -1.667473
      3          6           0        3.795778   -0.931494   -1.285578
      4          6           0        4.095610   -0.208441   -0.130252
      5          6           0        5.519850   -0.059812    0.346678
      6          6           0        3.039185    0.369526    0.567393
      7          6           0        1.730608    0.211459    0.080914
      8          7           0        0.685338    0.813936    0.784302
      9          6           0       -0.685849    0.671589    0.691855
     10          8           0       -1.017766   -0.244300   -0.219924
     11          6           0       -2.398510   -0.523889   -0.508482
     12          6           0       -2.313524   -1.598081   -1.594264
     13          6           0       -3.091324    0.732127   -1.040302
     14          6           0       -3.102961   -1.063697    0.737881
     15          8           0       -1.438831    1.328557    1.388993
     16          7           0        1.442965   -0.467032   -1.028307
     17          1           0        4.572440   -1.411736   -1.869282
     18          1           0        6.135469   -0.898418    0.012149
     19          1           0        5.963022    0.863363   -0.040355
     20          1           0        5.565192   -0.023839    1.438637
     21          1           0        3.230195    0.930838    1.477197
     22          1           0        0.950321    1.446972    1.523514
     23          1           0       -1.764964   -1.225051   -2.463910
     24          1           0       -1.785244   -2.480958   -1.222753
     25          1           0       -3.316579   -1.896575   -1.910034
     26          1           0       -2.534639    1.140994   -1.889225
     27          1           0       -3.158522    1.501552   -0.267806
     28          1           0       -4.102031    0.485011   -1.376072
     29          1           0       -4.113842   -1.391619    0.480860
     30          1           0       -2.554391   -1.919816    1.143050
     31          1           0       -3.170765   -0.298070    1.513971
 ---------------------------------------------------------------------
                    Distance matrix (angstroms):
                    1          2          3          4          5
     1  Br   0.000000
     2  C    1.902830   0.000000
     3  C    2.849475   1.392003   0.000000
     4  C    4.145100   2.385445   1.395523   0.000000
     5  C    5.374967   3.786036   2.529132   1.509308   0.000000
     6  C    4.594962   2.692375   2.387171   1.391685   2.527201
     7  C    3.993703   2.257063   2.727374   2.411253   3.808224
     8  N    5.080530   3.536563   4.123804   3.675815   4.932287
     9  C    5.460373   4.278830   5.154133   4.930787   6.258178
    10  O    4.619660   3.844998   4.977756   5.114288   6.564715
    11  C    5.390362   5.018819   6.256135   6.512769   7.977912
    12  C    4.643802   4.809320   6.153308   6.719482   8.215551
    13  C    6.188078   5.853484   7.089427   7.305127   8.758036
    14  C    6.544422   6.060751   7.190581   7.300996   8.689861
    15  O    6.658972   5.480574   6.297800   5.941423   7.171975
    16  N    2.744434   1.320414   2.411979   2.812454   4.321736
    17  H    2.960967   2.158878   1.083765   2.167836   2.763288
    18  H    5.363263   4.042917   2.675695   2.158094   1.092774
    19  H    5.830181   4.295393   3.077180   2.155011   1.094737
    20  H    6.194492   4.502754   3.372834   2.157582   1.093492
    21  H    5.679873   3.777708   3.379510   2.151927   2.738974
    22  H    5.968709   4.304108   4.652389   3.920227   4.953377
    23  H    3.930773   4.304309   5.691791   6.389505   7.894662
    24  H    4.326336   4.512836   5.792460   6.398620   7.854264
    25  H    5.492130   5.848235   7.204647   7.807558   9.303167
    26  H    5.683733   5.444709   6.688331   6.991077   8.444879
    27  H    6.910786   6.313563   7.437597   7.454222   8.839094
    28  H    6.854256   6.737569   8.024342   8.320713   9.790061
    29  H    7.191175   6.926031   8.117518   8.316758   9.726239
    30  H    6.328358   5.818853   6.870201   6.983739   8.323892
    31  H    7.232496   6.506926   7.534682   7.450618   8.771895
                    6          7          8          9         10
     6  C    0.000000
     7  C    1.404998   0.000000
     8  N    2.405233   1.396539   0.000000
     9  C    3.739333   2.534606   1.381652   0.000000
    10  O    4.177978   2.802102   2.242520   1.334302   0.000000
    11  C    5.614644   4.235297   3.601553   2.408980   1.438016
    12  C    6.098830   4.736630   4.524221   3.609303   2.323903
    13  C    6.348174   4.977876   4.195123   2.964852   2.434353
    14  C    6.309449   5.041926   4.228341   2.975864   2.436563
    15  O    4.652676   3.606150   2.267726   1.218438   2.289059
    16  N    2.407073   1.331713   2.345299   2.964331   2.599671
    17  H    3.385432   3.809730   5.206216   6.208805   5.944215
    18  H    3.391600   4.543056   5.764746   7.032588   7.186828
    19  H    3.026888   4.284041   5.341951   6.691815   7.070400
    20  H    2.700835   4.074654   4.994296   6.333783   6.792257
    21  H    1.085956   2.171606   2.640088   4.002421   4.722959
    22  H    2.537403   2.053395   1.008655   1.992467   3.126234
    23  H    5.900111   4.556173   4.551079   3.836741   2.560400
    24  H    5.882601   4.616262   4.581307   3.848759   2.568527
    25  H    7.188086   5.820805   5.533684   4.504002   3.297124
    26  H    6.139841   4.789343   4.197972   3.209414   2.646981
    27  H    6.355361   5.068484   4.044132   2.779190   2.762811
    28  H    7.401849   6.018083   5.262539   3.997679   3.373613
    29  H    7.367151   6.073500   5.290433   4.006555   3.375370
    30  H    6.071290   4.902212   4.254168   3.226516   2.650711
    31  H    6.317055   5.131932   4.079033   2.791223   2.764903
                   11         12         13         14         15
    11  C    0.000000
    12  C    1.529717   0.000000
    13  C    1.529837   2.518277   0.000000
    14  C    1.530054   2.519460   2.527263   0.000000
    15  O    2.820098   4.269675   2.997989   2.985993   0.000000
    16  N    3.876904   3.963684   4.690193   4.913336   4.168000
[...]
 Alpha virt. eigenvalues --    4.02483   4.02941   4.04299   4.05191   4.06475
 Alpha virt. eigenvalues --    4.07073   4.08739   4.09298   4.10775   4.12500
 Alpha virt. eigenvalues --    4.12684   4.13965   4.14316   4.15722   4.16685
 Alpha virt. eigenvalues --    4.20177   4.20922   4.22233   4.23656   4.28233
 Alpha virt. eigenvalues --    4.29350   4.29518   4.30590   4.35623   4.37935
 Alpha virt. eigenvalues --    4.38287   4.39623   4.40801   4.41424   4.42369
 Alpha virt. eigenvalues --    4.45013   4.45212   4.46205   4.49049   4.49368
 Alpha virt. eigenvalues --    4.52001   4.53726   4.57237   4.57909   4.58748
 Alpha virt. eigenvalues --    4.63347   4.69427   4.71627   4.73789   4.75017
 Alpha virt. eigenvalues --    4.77240   4.84035   4.85811   4.86451   4.89309
 Alpha virt. eigenvalues --    4.89844   4.92486   4.94021   4.95662   4.97366
 Alpha virt. eigenvalues --    5.02169   5.03040   5.06587   5.07285   5.10463
 Alpha virt. eigenvalues --    5.12556   5.18283   5.20630   5.23016   5.24118
 Alpha virt. eigenvalues --    5.26077   5.29206   5.32900   5.34636   5.40136
 Alpha virt. eigenvalues --    5.40509   5.42706   5.52285   5.54646   5.55620
 Alpha virt. eigenvalues --    5.68027   5.72165   5.73007   5.76853   5.80737
 Alpha virt. eigenvalues --    5.83902   5.91308   6.04650   6.11570   6.14856
 Alpha virt. eigenvalues --    6.19178   6.32684   6.41788   6.43513   6.52450
 Alpha virt. eigenvalues --    6.70024   6.75794   6.82541   6.91693   7.00515
 Alpha virt. eigenvalues --    7.06246   7.17012   7.38054   7.43414   7.83621
 Alpha virt. eigenvalues --   22.45989  22.50974  22.51581  22.53554  22.56098
 Alpha virt. eigenvalues --   22.71908  22.80185  22.96299  23.12018  23.26214
 Alpha virt. eigenvalues --   23.58442  32.65011  32.83397  44.09705  44.57076
          Condensed to atoms (all electrons):
               1          2          3          4          5          6
     1  Br  34.934241   0.332682  -0.082302   0.013381  -0.000862   0.004954
     2  C    0.332682   4.659293   0.460552  -0.019269   0.005354  -0.060020
     3  C   -0.082302   0.460552   5.353409   0.361738  -0.069715  -0.030798
     4  C    0.013381  -0.019269   0.361738   4.984883   0.272828   0.458212
     5  C   -0.000862   0.005354  -0.069715   0.272828   5.078348  -0.068704
     6  C    0.004954  -0.060020  -0.030798   0.458212  -0.068704   5.367125
     7  C   -0.000992  -0.053274  -0.071278  -0.014707   0.016239   0.316585
     8  N   -0.000374   0.006377   0.002224   0.003830  -0.000449  -0.015543
     9  C   -0.000677  -0.001891   0.001495  -0.000562   0.000028   0.008554
    10  O    0.000352   0.000463  -0.000600   0.000645  -0.000006  -0.003762
    11  C    0.000536  -0.000223   0.000434  -0.000139   0.000001   0.000943
    12  C   -0.007150  -0.000577   0.000063  -0.000029  -0.000001   0.000079
    13  C   -0.000701   0.000099  -0.000460   0.000102  -0.000001  -0.001024
    14  C   -0.000032  -0.000030   0.000022  -0.000008  -0.000000   0.000081
    15  O    0.000004  -0.000090   0.000007   0.000003  -0.000001  -0.000228
    16  N   -0.090773   0.548931  -0.076158  -0.011299  -0.000794  -0.065589
    17  H   -0.006642  -0.008277   0.389074  -0.035939  -0.001116   0.005077
    18  H   -0.000013   0.001922  -0.012971  -0.051253   0.426631   0.012315
    19  H    0.000021  -0.000741  -0.005235  -0.020069   0.391468  -0.002942
    20  H    0.000020  -0.000513   0.010323  -0.051622   0.430368  -0.018094
    21  H    0.000145  -0.001577   0.010381  -0.012783  -0.009948   0.377451
    22  H    0.000025  -0.000358   0.000040   0.001824  -0.000073  -0.007902
    23  H    0.005612  -0.001084   0.000842  -0.000194   0.000001   0.000265
    24  H    0.000275  -0.000027  -0.000030   0.000008   0.000000  -0.000030
    25  H    0.000167   0.000056  -0.000006   0.000002   0.000000  -0.000006
    26  H    0.001074  -0.000354   0.000497  -0.000063   0.000001   0.000243
    27  H    0.000058  -0.000024   0.000008  -0.000002   0.000000   0.000047
    28  H    0.000004   0.000013   0.000008  -0.000002   0.000000   0.000014
    29  H   -0.000002   0.000001  -0.000000   0.000000   0.000000  -0.000001
    30  H    0.000000   0.000003  -0.000001   0.000001   0.000000  -0.000006
    31  H    0.000001   0.000002  -0.000000   0.000000   0.000000   0.000001
               7          8          9         10         11         12
     1  Br  -0.000992  -0.000374  -0.000677   0.000352   0.000536  -0.007150
     2  C   -0.053274   0.006377  -0.001891   0.000463  -0.000223  -0.000577
     3  C   -0.071278   0.002224   0.001495  -0.000600   0.000434   0.000063
     4  C   -0.014707   0.003830  -0.000562   0.000645  -0.000139  -0.000029
     5  C    0.016239  -0.000449   0.000028  -0.000006   0.000001  -0.000001
     6  C    0.316585  -0.015543   0.008554  -0.003762   0.000943   0.000079
     7  C    4.781917   0.237424  -0.039297   0.015449  -0.002570  -0.000814
     8  N    0.237424   6.679129   0.369598  -0.093134   0.003815   0.000033
     9  C   -0.039297   0.369598   4.264139   0.366154  -0.028696  -0.000417
    10  O    0.015449  -0.093134   0.366154   8.057315   0.139992  -0.050138
    11  C   -0.002570   0.003815  -0.028696   0.139992   5.087448   0.313814
    12  C   -0.000814   0.000033  -0.000417  -0.050138   0.313814   5.148366
    13  C    0.000493   0.004009  -0.014808  -0.024955   0.288111  -0.093153
    14  C   -0.000073  -0.002156  -0.018861  -0.032837   0.295374  -0.104308
    15  O    0.002000  -0.102909   0.657628  -0.077453   0.030045   0.000844
    16  N    0.491249  -0.080570   0.021650  -0.037799   0.011847  -0.002988
    17  H   -0.000131   0.000064  -0.000007   0.000003  -0.000001   0.000002
    18  H   -0.001825   0.000015  -0.000000  -0.000000   0.000000   0.000000
    19  H   -0.001480  -0.000003  -0.000001   0.000000  -0.000000   0.000000
    20  H    0.005035  -0.000046  -0.000004   0.000000  -0.000000   0.000000
    21  H   -0.032364   0.007755   0.000770  -0.000059   0.000001   0.000006
    22  H   -0.043876   0.380301  -0.028510   0.005442  -0.000409   0.000016
    23  H   -0.000055   0.000053  -0.001248  -0.005051  -0.019955   0.394802
    24  H    0.000097  -0.000065  -0.000065  -0.001397  -0.027571   0.402694
    25  H    0.000038   0.000010   0.000421   0.006028  -0.031734   0.414654
    26  H   -0.000404  -0.000562   0.000816  -0.005087  -0.026997  -0.013058
    27  H    0.000013  -0.000490   0.000584  -0.005680  -0.023745   0.012127
    28  H   -0.000001  -0.000035   0.001042   0.004800  -0.024962  -0.009039
    29  H   -0.000009   0.000083   0.002356   0.005213  -0.029294  -0.013846
    30  H    0.000076  -0.000044  -0.001141   0.000216  -0.028220  -0.009551
    31  H   -0.000063   0.000364  -0.004936  -0.003166  -0.018249   0.012216
              13         14         15         16         17         18
     1  Br  -0.000701  -0.000032   0.000004  -0.090773  -0.006642  -0.000013
     2  C    0.000099  -0.000030  -0.000090   0.548931  -0.008277   0.001922
     3  C   -0.000460   0.000022   0.000007  -0.076158   0.389074  -0.012971
     4  C    0.000102  -0.000008   0.000003  -0.011299  -0.035939  -0.051253
     5  C   -0.000001  -0.000000  -0.000001  -0.000794  -0.001116   0.426631
     6  C   -0.001024   0.000081  -0.000228  -0.065589   0.005077   0.012315
     7  C    0.000493  -0.000073   0.002000   0.491249  -0.000131  -0.001825
     8  N    0.004009  -0.002156  -0.102909  -0.080570   0.000064   0.000015
     9  C   -0.014808  -0.018861   0.657628   0.021650  -0.000007  -0.000000
    10  O   -0.024955  -0.032837  -0.077453  -0.037799   0.000003  -0.000000
    11  C    0.288111   0.295374   0.030045   0.011847  -0.000001   0.000000
    12  C   -0.093153  -0.104308   0.000844  -0.002988   0.000002   0.000000
    13  C    5.245426  -0.092507  -0.026825  -0.017228   0.000001   0.000000
    14  C   -0.092507   5.216692  -0.024500   0.000101   0.000000   0.000000
    15  O   -0.026825  -0.024500   7.898626  -0.000959   0.000000   0.000000
    16  N   -0.017228   0.000101  -0.000959   6.544662   0.005226   0.000085
    17  H    0.000001   0.000000   0.000000   0.005226   0.479954   0.000289
    18  H    0.000000   0.000000   0.000000   0.000085   0.000289   0.519285
    19  H    0.000000  -0.000000   0.000000   0.000128   0.000370  -0.026988
    20  H    0.000000   0.000000  -0.000000   0.000047  -0.000117  -0.025557
    21  H   -0.000003  -0.000001  -0.000049   0.004331  -0.000066   0.000208
    22  H    0.000289   0.000090   0.006656   0.002685  -0.000002  -0.000000
    23  H   -0.012980   0.013944  -0.000018   0.001652   0.000018   0.000000
    24  H    0.012909  -0.013307   0.000002   0.000119  -0.000000  -0.000000
    25  H   -0.008254  -0.009118   0.000050   0.000122  -0.000000   0.000000
    26  H    0.399070   0.012197   0.000762   0.008052   0.000001  -0.000000
    27  H    0.403839  -0.013010   0.007267   0.000529  -0.000000   0.000000
    28  H    0.401536  -0.006541   0.000146   0.000371   0.000000   0.000000
    29  H   -0.006617   0.403363   0.000686   0.000024  -0.000000  -0.000000
    30  H    0.012529   0.394464   0.000095  -0.000005  -0.000000  -0.000000
    31  H   -0.010873   0.401324   0.009177   0.000006  -0.000000  -0.000000
              19         20         21         22         23         24
     1  Br   0.000021   0.000020   0.000145   0.000025   0.005612   0.000275
     2  C   -0.000741  -0.000513  -0.001577  -0.000358  -0.001084  -0.000027
     3  C   -0.005235   0.010323   0.010381   0.000040   0.000842  -0.000030
     4  C   -0.020069  -0.051622  -0.012783   0.001824  -0.000194   0.000008
     5  C    0.391468   0.430368  -0.009948  -0.000073   0.000001   0.000000
     6  C   -0.002942  -0.018094   0.377451  -0.007902   0.000265  -0.000030
     7  C   -0.001480   0.005035  -0.032364  -0.043876  -0.000055   0.000097
     8  N   -0.000003  -0.000046   0.007755   0.380301   0.000053  -0.000065
     9  C   -0.000001  -0.000004   0.000770  -0.028510  -0.001248  -0.000065
    10  O    0.000000   0.000000  -0.000059   0.005442  -0.005051  -0.001397
    11  C   -0.000000  -0.000000   0.000001  -0.000409  -0.019955  -0.027571
    12  C    0.000000   0.000000   0.000006   0.000016   0.394802   0.402694
    13  C    0.000000   0.000000  -0.000003   0.000289  -0.012980   0.012909
    14  C   -0.000000   0.000000  -0.000001   0.000090   0.013944  -0.013307
    15  O    0.000000  -0.000000  -0.000049   0.006656  -0.000018   0.000002
    16  N    0.000128   0.000047   0.004331   0.002685   0.001652   0.000119
    17  H    0.000370  -0.000117  -0.000066  -0.000002   0.000018  -0.000000
    18  H   -0.026988  -0.025557   0.000208  -0.000000   0.000000  -0.000000
    19  H    0.518531  -0.024054   0.000656  -0.000001  -0.000000   0.000000
    20  H   -0.024054   0.524355   0.000086   0.000018  -0.000000  -0.000000
    21  H    0.000656   0.000086   0.489413  -0.000093  -0.000001  -0.000000
    22  H   -0.000001   0.000018  -0.000093   0.425832   0.000004  -0.000003
    23  H   -0.000000  -0.000000  -0.000001   0.000004   0.520201  -0.019805
    24  H    0.000000  -0.000000  -0.000000  -0.000003  -0.019805   0.517117
    25  H   -0.000000   0.000000  -0.000000  -0.000001  -0.025811  -0.024375
    26  H    0.000000  -0.000000  -0.000006  -0.000019   0.002788  -0.000081
    27  H   -0.000000  -0.000000   0.000001  -0.000026  -0.000115  -0.000342
    28  H   -0.000000  -0.000000  -0.000000  -0.000003   0.000171  -0.000113
    29  H   -0.000000  -0.000000  -0.000000  -0.000003  -0.000016   0.000876
    30  H    0.000000  -0.000000  -0.000000  -0.000010  -0.000311   0.002862
    31  H   -0.000000   0.000000   0.000000  -0.000006  -0.000389  -0.000143
              25         26         27         28         29         30
     1  Br   0.000167   0.001074   0.000058   0.000004  -0.000002   0.000000
     2  C    0.000056  -0.000354  -0.000024   0.000013   0.000001   0.000003
     3  C   -0.000006   0.000497   0.000008   0.000008  -0.000000  -0.000001
     4  C    0.000002  -0.000063  -0.000002  -0.000002   0.000000   0.000001
     5  C    0.000000   0.000001   0.000000   0.000000   0.000000   0.000000
     6  C   -0.000006   0.000243   0.000047   0.000014  -0.000001  -0.000006
     7  C    0.000038  -0.000404   0.000013  -0.000001  -0.000009   0.000076
     8  N    0.000010  -0.000562  -0.000490  -0.000035   0.000083  -0.000044
     9  C    0.000421   0.000816   0.000584   0.001042   0.002356  -0.001141
    10  O    0.006028  -0.005087  -0.005680   0.004800   0.005213   0.000216
    11  C   -0.031734  -0.026997  -0.023745  -0.024962  -0.029294  -0.028220
    12  C    0.414654  -0.013058   0.012127  -0.009039  -0.013846  -0.009551
    13  C   -0.008254   0.399070   0.403839   0.401536  -0.006617   0.012529
    14  C   -0.009118   0.012197  -0.013010  -0.006541   0.403363   0.394464
    15  O    0.000050   0.000762   0.007267   0.000146   0.000686   0.000095
    16  N    0.000122   0.008052   0.000529   0.000371   0.000024  -0.000005
    17  H   -0.000000   0.000001  -0.000000   0.000000  -0.000000  -0.000000
    18  H    0.000000  -0.000000   0.000000   0.000000  -0.000000  -0.000000
    19  H   -0.000000   0.000000  -0.000000  -0.000000  -0.000000   0.000000
    20  H    0.000000  -0.000000  -0.000000  -0.000000  -0.000000  -0.000000
    21  H   -0.000000  -0.000006   0.000001  -0.000000  -0.000000  -0.000000
    22  H   -0.000001  -0.000019  -0.000026  -0.000003  -0.000003  -0.000010
    23  H   -0.025811   0.002788  -0.000115   0.000171  -0.000016  -0.000311
    24  H   -0.024375  -0.000081  -0.000342  -0.000113   0.000876   0.002862
    25  H    0.533533   0.000551  -0.000114   0.000534   0.001875   0.000560
    26  H    0.000551   0.493335  -0.021624  -0.019889   0.000070  -0.000413
    27  H   -0.000114  -0.021624   0.481043  -0.020628   0.000314  -0.000012
    28  H    0.000534  -0.019889  -0.020628   0.521782   0.000352  -0.000160
    29  H    0.001875   0.000070   0.000314   0.000352   0.535719  -0.023055
    30  H    0.000560  -0.000413  -0.000012  -0.000160  -0.023055   0.524443
    31  H   -0.000054  -0.000140   0.002638   0.000403  -0.020966  -0.019169
              31
     1  Br   0.000001
     2  C    0.000002
     3  C   -0.000000
     4  C    0.000000
     5  C    0.000000
     6  C    0.000001
     7  C   -0.000063
     8  N    0.000364
     9  C   -0.004936
    10  O   -0.003166
    11  C   -0.018249
    12  C    0.012216
    13  C   -0.010873
    14  C    0.401324
    15  O    0.009177
    16  N    0.000006
    17  H   -0.000000
    18  H   -0.000000
    19  H   -0.000000
    20  H    0.000000
    21  H    0.000000
    22  H   -0.000006
    23  H   -0.000389
    24  H   -0.000143
    25  H   -0.000054
    26  H   -0.000140
    27  H    0.002638
    28  H    0.000403
    29  H   -0.020966
    30  H   -0.019169
    31  H    0.473631
 Mulliken charges:
               1
     1  Br  -0.103033
     2  C    0.132584
     3  C   -0.241563
     4  C    0.120480
     5  C   -0.469595
     6  C   -0.277296
     7  C    0.396597
     8  N   -0.398703
     9  C    0.445884
    10  O   -0.260946
    11  C    0.090405
    12  C   -0.394649
    13  C   -0.458023
    14  C   -0.420361
    15  O   -0.380966
    16  N   -0.257656
    17  H    0.172219
    18  H    0.157859
    19  H    0.170339
    20  H    0.149754
    21  H    0.165744
    22  H    0.258073
    23  H    0.146680
    24  H    0.150396
    25  H    0.140873
    26  H    0.169241
    27  H    0.177343
    28  H    0.150198
    29  H    0.142876
    30  H    0.146853
    31  H    0.178392
 Sum of Mulliken charges =  -0.00000
 Mulliken charges with hydrogens summed into heavy atoms:
               1
     1  Br  -0.103033
     2  C    0.132584
     3  C   -0.069344
     4  C    0.120480
     5  C    0.008357
     6  C   -0.111552
     7  C    0.396597
     8  N   -0.140630
     9  C    0.445884
    10  O   -0.260946
    11  C    0.090405
    12  C    0.043301
    13  C    0.038759
    14  C    0.047760
    15  O   -0.380966
    16  N   -0.257656
 Electronic spatial extent (au):  <R**2>=           5215.9680
 Charge=             -0.0000 electrons
 Dipole moment (field-independent basis, Debye):
    X=              3.5223    Y=              1.4178    Z=              0.9195  Tot=              3.9067
 Quadrupole moment (field-independent basis, Debye-Ang):
   XX=           -100.9809   YY=           -101.8580   ZZ=           -111.2769
   XY=             15.8403   XZ=             -1.7259   YZ=              0.9461
 Traceless Quadrupole moment (field-independent basis, Debye-Ang):
   XX=              3.7244   YY=              2.8472   ZZ=             -6.5716
   XY=             15.8403   XZ=             -1.7259   YZ=              0.9461
 Octapole moment (field-independent basis, Debye-Ang**2):
  XXX=             88.5544  YYY=            -34.6935  ZZZ=             -6.3984  XYY=             34.2975
  XXY=            -33.7997  XXZ=             16.9764  XZZ=             10.0347  YZZ=            -22.7430
  YYZ=             -1.0639  XYZ=             -6.1560
 Hexadecapole moment (field-independent basis, Debye-Ang**3):
 XXXX=          -4090.8022 YYYY=          -1818.5705 ZZZZ=           -387.5063 XXXY=             48.1876
 XXXZ=            -15.0372 YYYX=            -51.1227 YYYZ=             14.8899 ZZZX=            -15.4362
 ZZZY=             11.0864 XXYY=          -1054.5727 XXZZ=           -789.0934 YYZZ=           -405.6753
 XXYZ=             38.8005 YYXZ=            -13.9319 ZZXY=            -36.7021
 N-N= 1.492618820985D+03 E-N=-1.074133645268D+04  KE= 3.255418097085D+03
 Unable to Open any file for archive entry.
 1\1\GINC-COMPUTE-0-32\SP\RM062X\def2TZVP\C11H15Br1N2O2\ZTAN64\14-Aug-2
 024\0\\# M062X/def2tzvp int=(grid=ultrafine) nmr=giao guess=read geom=
 check\\pyrd6.xyz\\0,1\Br,0,1.4250250448,-0.9401981309,-3.5221448484\C,
 0,2.1022934934,-0.4268089529,-1.7960832818\C,0,3.4655245842,-0.5251823
 873,-1.5433775272\C,0,3.9040434722,-0.1544210115,-0.2647471281\C,0,5.3
 679979594,-0.199125187,0.0865028797\C,0,2.9512889838,0.2541433034,0.67
 00475577\C,0,1.6038639885,0.3096891385,0.2902253791\N,0,0.6352271712,0
 .7367643686,1.2040136622\C,0,-0.7452870175,0.5636006742,1.0946059978\O
 ,0,-1.0264985585,-0.5675395755,0.4452891938\C,0,-2.2491102458,-0.68940
 89042,-0.3683138029\C,0,-1.9847029257,-1.9644075657,-1.1664947325\C,0,
 -2.3550760024,0.5175718107,-1.3011224858\C,0,-3.4602411756,-0.83279199
 33,0.5511256826\O,0,-1.5283583377,1.3422588315,1.603716373\N,0,1.19599
 64068,-0.0037354916,-0.9447265168\H,0,4.1527805274,-0.8770970066,-2.30
 21842934\H,0,5.8672453255,-1.0398779135,-0.4024410357\H,0,5.8689464849
 ,0.7176380543,-0.2454425561\H,0,5.5174073941,-0.287065586,1.1654114133
 \H,0,3.2441299935,0.5067438376,1.6840470275\H,0,0.9003331771,1.4427057
 377,1.8753113922\H,0,-1.0968668619,-1.8431857742,-1.7921981513\H,0,-1.
 82703198,-2.8113824197,-0.4928689062\H,0,-2.8426298789,-2.1863259844,-
 1.8079243902\H,0,-1.4403148176,0.6082652557,-1.8925771829\H,0,-2.51436
 65363,1.4390287533,-0.737776128\H,0,-3.2016932548,0.378648844,-1.97995
 16634\H,0,-4.3590504889,-1.0126439609,-0.0472317532\H,0,-3.3228213093,
 -1.6813439287,1.2277799641\H,0,-3.600254616,0.0708831646,1.1449298608\
 \Version=ES64L-G16RevC.01\State=1-A\HF=-3262.3629038\RMSD=3.595e-09\Di
 pole=1.5076126,-0.2054518,0.2174186\Quadrupole=8.9799856,-4.909158,-4.
 0708276,4.9979329,8.5540015,-0.2000572\PG=C01 [X(C11H15Br1N2O2)]\\@
 The archive entry for this job was punched.


 QED = W**5 (WHICH WAS WHAT WE WANTED)
 Job cpu time:       0 days  1 hours 18 minutes 22.8 seconds.
 Elapsed time:       0 days  0 hours  5 minutes 14.4 seconds.
 File lengths (MBytes):  RWF=    204 Int=      0 D2E=      0 Chk=     34 Scr=      1
 Normal termination of Gaussian 16 at Wed Aug 14 19:40:21 2024.
 
 
-----Kestrel cluster job statistics-----
Time info:

real	32m31.012s
user	510m50.463s
sys	0m44.602s
 
Disk space usage:
34M	/scratch/362975.kestrel.chem.wisc.edu
