 Entering Gaussian System, Link 0=/share/apps/gaussian/g16/g16
 Initial command:
 /share/apps/gaussian/g16/l1.exe "/scratch/362949.kestrel.chem.wisc.edu/Gau-150503.inp" -scrdir="/scratch/362949.kestrel.chem.wisc.edu/"
 Entering Link 1 = /share/apps/gaussian/g16/l1.exe PID=    150519.
  
 Copyright (c) 1988-2019, Gaussian, Inc.  All Rights Reserved.
  
 This is part of the Gaussian(R) 16 program.  It is based on
 the Gaussian(R) 09 system (copyright 2009, Gaussian, Inc.),
 the Gaussian(R) 03 system (copyright 2003, Gaussian, Inc.),
 the Gaussian(R) 98 system (copyright 1998, Gaussian, Inc.),
 the Gaussian(R) 94 system (copyright 1995, Gaussian, Inc.),
 the Gaussian 92(TM) system (copyright 1992, Gaussian, Inc.),
 the Gaussian 90(TM) system (copyright 1990, Gaussian, Inc.),
 the Gaussian 88(TM) system (copyright 1988, Gaussian, Inc.),
 the Gaussian 86(TM) system (copyright 1986, Carnegie Mellon
 University), and the Gaussian 82(TM) system (copyright 1983,
 Carnegie Mellon University). Gaussian is a federally registered
 trademark of Gaussian, Inc.
  
 This software contains proprietary and confidential information,
 including trade secrets, belonging to Gaussian, Inc.
  
 This software is provided under written license and may be
 used, copied, transmitted, or stored only in accord with that
 written license.
  
 The following legend is applicable only to US Government
 contracts under FAR:
  
                    RESTRICTED RIGHTS LEGEND
  
 Use, reproduction and disclosure by the US Government is
 subject to restrictions as set forth in subparagraphs (a)
 and (c) of the Commercial Computer Software - Restricted
 Rights clause in FAR 52.227-19.
  
 Gaussian, Inc.
 340 Quinnipiac St., Bldg. 40, Wallingford CT 06492
  
  
 ---------------------------------------------------------------
 Warning -- This program may not be used in any manner that
 competes with the business of Gaussian, Inc. or will provide
 assistance to any competitor of Gaussian, Inc.  The licensee
 of this program is prohibited from giving any competitor of
 Gaussian, Inc. access to this program.  By using this program,
 the user acknowledges that Gaussian, Inc. is engaged in the
 business of creating and licensing software in the field of
 computational chemistry and represents and warrants to the
 licensee that it is not a competitor of Gaussian, Inc. and that
 it will not use this program in any manner prohibited above.
 ---------------------------------------------------------------
  

 Cite this work as:
 Gaussian 16, Revision C.01,
 M. J. Frisch, G. W. Trucks, H. B. Schlegel, G. E. Scuseria, 
 M. A. Robb, J. R. Cheeseman, G. Scalmani, V. Barone, 
 G. A. Petersson, H. Nakatsuji, X. Li, M. Caricato, A. V. Marenich, 
 J. Bloino, B. G. Janesko, R. Gomperts, B. Mennucci, H. P. Hratchian, 
 J. V. Ortiz, A. F. Izmaylov, J. L. Sonnenberg, D. Williams-Young, 
 F. Ding, F. Lipparini, F. Egidi, J. Goings, B. Peng, A. Petrone, 
 T. Henderson, D. Ranasinghe, V. G. Zakrzewski, J. Gao, N. Rega, 
 G. Zheng, W. Liang, M. Hada, M. Ehara, K. Toyota, R. Fukuda, 
 J. Hasegawa, M. Ishida, T. Nakajima, Y. Honda, O. Kitao, H. Nakai, 
 T. Vreven, K. Throssell, J. A. Montgomery, Jr., J. E. Peralta, 
 F. Ogliaro, M. J. Bearpark, J. J. Heyd, E. N. Brothers, K. N. Kudin, 
 V. N. Staroverov, T. A. Keith, R. Kobayashi, J. Normand, 
 K. Raghavachari, A. P. Rendell, J. C. Burant, S. S. Iyengar, 
 J. Tomasi, M. Cossi, J. M. Millam, M. Klene, C. Adamo, R. Cammi, 
 J. W. Ochterski, R. L. Martin, K. Morokuma, O. Farkas, 
 J. B. Foresman, and D. J. Fox, Gaussian, Inc., Wallingford CT, 2019.
 
 ******************************************
 Gaussian 16:  ES64L-G16RevC.01  3-Jul-2019
                14-Aug-2024 
 ******************************************
 %nprocs=16
 Will use up to   16 processors via shared memory.
 %mem=16GB
 %chk=pyrd10_conf-2.chk
 ----------------------------------------------------------------------
 # B3LYP/6-31G(d,p) symmetry=loose empiricaldispersion=GD3BJ int=(grid=
 ultrafine) opt freq=noraman
 ----------------------------------------------------------------------
 1/18=20,19=15,26=4,38=1/1,3;
 2/9=110,12=2,17=4,18=3,40=1/2;
 3/5=1,6=6,7=101,11=2,25=1,30=1,71=1,74=-5,75=-5,124=41/1,2,3;
 4//1;
 5/5=2,38=5/2;
 6/7=2,8=2,9=2,10=2,28=1/1;
 7//1,2,3,16;
 1/18=20,19=15,26=4/3(2);
 2/9=110/2;
 99//99;
 2/9=110/2;
 3/5=1,6=6,7=101,11=2,25=1,30=1,71=1,74=-5,75=-5,124=41/1,2,3;
 4/5=5,16=3,69=1/1;
 5/5=2,38=5/2;
 7//1,2,3,16;
 1/18=20,19=15,26=4/3(-5);
 2/9=110/2;
 6/7=2,8=2,9=2,10=2,19=2,28=1/1;
 99/9=1/99;
 ----------
 pyrd10.xyz
 ----------
 Symbolic Z-matrix:
 Charge =  0 Multiplicity = 1
 Br                    4.1762   -2.6225   -0.6525 
 C                     3.7826   -2.0922    1.2272 
 C                     3.2059   -0.6645    1.2755 
 C                     1.8623   -0.4801    0.5378 
 C                     0.7371   -1.3329    1.1051 
 C                    -0.0019   -0.9055    2.2136 
 N                    -1.0092   -1.6357    2.7569 
 C                    -1.3044   -2.8317    2.1872 
 C                    -0.6187   -3.3323    1.0785 
 C                     0.4151   -2.5687    0.5327 
 H                     4.7158   -2.1598    1.7877 
 H                     3.094    -2.8255    1.6498 
 H                     3.0817   -0.3688    2.3184 
 H                     3.9407    0.0254    0.8579 
 H                     1.9775   -0.6909   -0.527 
 H                     1.5589    0.5673    0.5808 
 H                     0.2071    0.0411    2.6902 
 H                    -2.1116   -3.3903    2.6394 
 H                    -0.8809   -4.2888    0.6506 
 H                     0.9641   -2.9356   -0.3236 
 

 GradGradGradGradGradGradGradGradGradGradGradGradGradGradGradGradGradGrad
 Berny optimization.
 Initialization pass.
                           ----------------------------
                           !    Initial Parameters    !
                           ! (Angstroms and Degrees)  !
 --------------------------                            --------------------------
 ! Name  Definition              Value          Derivative Info.                !
 --------------------------------------------------------------------------------
 ! R1    R(1,2)                  1.9923         estimate D2E/DX2                !
 ! R2    R(2,3)                  1.5405         estimate D2E/DX2                !
 ! R3    R(2,11)                 1.0907         estimate D2E/DX2                !
 ! R4    R(2,12)                 1.0911         estimate D2E/DX2                !
 ! R5    R(3,4)                  1.5438         estimate D2E/DX2                !
 ! R6    R(3,13)                 1.0911         estimate D2E/DX2                !
 ! R7    R(3,14)                 1.091          estimate D2E/DX2                !
 ! R8    R(4,5)                  1.5216         estimate D2E/DX2                !
 ! R9    R(4,15)                 1.0916         estimate D2E/DX2                !
 ! R10   R(4,16)                 1.0913         estimate D2E/DX2                !
 ! R11   R(5,6)                  1.3991         estimate D2E/DX2                !
 ! R12   R(5,10)                 1.3995         estimate D2E/DX2                !
 ! R13   R(6,7)                  1.3576         estimate D2E/DX2                !
 ! R14   R(6,17)                 1.0802         estimate D2E/DX2                !
 ! R15   R(7,8)                  1.3572         estimate D2E/DX2                !
 ! R16   R(8,9)                  1.3964         estimate D2E/DX2                !
 ! R17   R(8,18)                 1.0808         estimate D2E/DX2                !
 ! R18   R(9,10)                 1.3963         estimate D2E/DX2                !
 ! R19   R(9,19)                 1.0802         estimate D2E/DX2                !
 ! R20   R(10,20)                1.0813         estimate D2E/DX2                !
 ! A1    A(1,2,3)              110.5002         estimate D2E/DX2                !
 ! A2    A(1,2,11)             107.4165         estimate D2E/DX2                !
 ! A3    A(1,2,12)             108.1324         estimate D2E/DX2                !
 ! A4    A(3,2,11)             111.2001         estimate D2E/DX2                !
 ! A5    A(3,2,12)             111.9905         estimate D2E/DX2                !
 ! A6    A(11,2,12)            107.4148         estimate D2E/DX2                !
 ! A7    A(2,3,4)              114.9298         estimate D2E/DX2                !
 ! A8    A(2,3,13)             108.8893         estimate D2E/DX2                !
 ! A9    A(2,3,14)             108.7785         estimate D2E/DX2                !
 ! A10   A(4,3,13)             108.983          estimate D2E/DX2                !
 ! A11   A(4,3,14)             109.1306         estimate D2E/DX2                !
 ! A12   A(13,3,14)            105.7326         estimate D2E/DX2                !
 ! A13   A(3,4,5)              113.4834         estimate D2E/DX2                !
 ! A14   A(3,4,15)             110.5609         estimate D2E/DX2                !
 ! A15   A(3,4,16)             109.7407         estimate D2E/DX2                !
 ! A16   A(5,4,15)             109.4817         estimate D2E/DX2                !
 ! A17   A(5,4,16)             108.5204         estimate D2E/DX2                !
 ! A18   A(15,4,16)            104.6625         estimate D2E/DX2                !
 ! A19   A(4,5,6)              120.9823         estimate D2E/DX2                !
 ! A20   A(4,5,10)             120.8357         estimate D2E/DX2                !
 ! A21   A(6,5,10)             118.1818         estimate D2E/DX2                !
 ! A22   A(5,6,7)              123.0019         estimate D2E/DX2                !
 ! A23   A(5,6,17)             121.001          estimate D2E/DX2                !
 ! A24   A(7,6,17)             115.997          estimate D2E/DX2                !
 ! A25   A(6,7,8)              117.8635         estimate D2E/DX2                !
 ! A26   A(7,8,9)              122.8443         estimate D2E/DX2                !
 ! A27   A(7,8,18)             116.2485         estimate D2E/DX2                !
 ! A28   A(9,8,18)             120.9072         estimate D2E/DX2                !
 ! A29   A(8,9,10)             118.5452         estimate D2E/DX2                !
 ! A30   A(8,9,19)             120.8488         estimate D2E/DX2                !
 ! A31   A(10,9,19)            120.606          estimate D2E/DX2                !
 ! A32   A(5,10,9)             119.563          estimate D2E/DX2                !
 ! A33   A(5,10,20)            120.4443         estimate D2E/DX2                !
 ! A34   A(9,10,20)            119.992          estimate D2E/DX2                !
 ! D1    D(1,2,3,4)             62.3096         estimate D2E/DX2                !
 ! D2    D(1,2,3,13)          -175.1311         estimate D2E/DX2                !
 ! D3    D(1,2,3,14)           -60.3574         estimate D2E/DX2                !
 ! D4    D(11,2,3,4)          -178.4963         estimate D2E/DX2                !
 ! D5    D(11,2,3,13)          -55.9369         estimate D2E/DX2                !
 ! D6    D(11,2,3,14)           58.8367         estimate D2E/DX2                !
 ! D7    D(12,2,3,4)           -58.3085         estimate D2E/DX2                !
 ! D8    D(12,2,3,13)           64.2509         estimate D2E/DX2                !
 ! D9    D(12,2,3,14)          179.0245         estimate D2E/DX2                !
 ! D10   D(2,3,4,5)             61.3428         estimate D2E/DX2                !
 ! D11   D(2,3,4,15)           -62.1153         estimate D2E/DX2                !
 ! D12   D(2,3,4,16)          -177.0656         estimate D2E/DX2                !
 ! D13   D(13,3,4,5)           -61.1661         estimate D2E/DX2                !
 ! D14   D(13,3,4,15)          175.3757         estimate D2E/DX2                !
 ! D15   D(13,3,4,16)           60.4254         estimate D2E/DX2                !
 ! D16   D(14,3,4,5)          -176.1795         estimate D2E/DX2                !
 ! D17   D(14,3,4,15)           60.3624         estimate D2E/DX2                !
 ! D18   D(14,3,4,16)          -54.5879         estimate D2E/DX2                !
 ! D19   D(3,4,5,6)             83.6079         estimate D2E/DX2                !
 ! D20   D(3,4,5,10)           -96.2661         estimate D2E/DX2                !
 ! D21   D(15,4,5,6)          -152.3454         estimate D2E/DX2                !
 ! D22   D(15,4,5,10)           27.7806         estimate D2E/DX2                !
 ! D23   D(16,4,5,6)           -38.6629         estimate D2E/DX2                !
 ! D24   D(16,4,5,10)          141.4631         estimate D2E/DX2                !
 ! D25   D(4,5,6,7)           -179.6731         estimate D2E/DX2                !
 ! D26   D(4,5,6,17)             0.2041         estimate D2E/DX2                !
 ! D27   D(10,5,6,7)             0.2041         estimate D2E/DX2                !
 ! D28   D(10,5,6,17)         -179.9187         estimate D2E/DX2                !
 ! D29   D(4,5,10,9)           179.7173         estimate D2E/DX2                !
 ! D30   D(4,5,10,20)            0.0216         estimate D2E/DX2                !
 ! D31   D(6,5,10,9)            -0.1601         estimate D2E/DX2                !
 ! D32   D(6,5,10,20)         -179.8558         estimate D2E/DX2                !
 ! D33   D(5,6,7,8)             -0.1477         estimate D2E/DX2                !
 ! D34   D(17,6,7,8)           179.9695         estimate D2E/DX2                !
 ! D35   D(6,7,8,9)              0.05           estimate D2E/DX2                !
 ! D36   D(6,7,8,18)          -179.8967         estimate D2E/DX2                !
 ! D37   D(7,8,9,10)            -0.0142         estimate D2E/DX2                !
 ! D38   D(7,8,9,19)          -179.9863         estimate D2E/DX2                !
 ! D39   D(18,8,9,10)          179.9301         estimate D2E/DX2                !
 ! D40   D(18,8,9,19)           -0.042          estimate D2E/DX2                !
 ! D41   D(8,9,10,5)             0.0711         estimate D2E/DX2                !
 ! D42   D(8,9,10,20)          179.7681         estimate D2E/DX2                !
 ! D43   D(19,9,10,5)         -179.9568         estimate D2E/DX2                !
 ! D44   D(19,9,10,20)          -0.2598         estimate D2E/DX2                !
 --------------------------------------------------------------------------------
 Trust Radius=3.00D-01 FncErr=1.00D-07 GrdErr=1.00D-06 EigMax=2.50D+02 EigMin=1.00D-04
 Number of steps in this run=    108 maximum allowed number of steps=    120.
 GradGradGradGradGradGradGradGradGradGradGradGradGradGradGradGradGradGrad

                          Input orientation:                          
 ---------------------------------------------------------------------
 Center     Atomic      Atomic             Coordinates (Angstroms)
 Number     Number       Type             X           Y           Z
 ---------------------------------------------------------------------
      1         35           0        4.176200   -2.622500   -0.652500
      2          6           0        3.782600   -2.092200    1.227200
      3          6           0        3.205900   -0.664500    1.275500
      4          6           0        1.862300   -0.480100    0.537800
      5          6           0        0.737100   -1.332900    1.105100
      6          6           0       -0.001900   -0.905500    2.213600
      7          7           0       -1.009200   -1.635700    2.756900
      8          6           0       -1.304400   -2.831700    2.187200
      9          6           0       -0.618700   -3.332300    1.078500
     10          6           0        0.415100   -2.568700    0.532700
     11          1           0        4.715800   -2.159800    1.787700
     12          1           0        3.094000   -2.825500    1.649800
     13          1           0        3.081700   -0.368800    2.318400
     14          1           0        3.940700    0.025400    0.857900
     15          1           0        1.977500   -0.690900   -0.527000
     16          1           0        1.558900    0.567300    0.580800
     17          1           0        0.207100    0.041100    2.690200
     18          1           0       -2.111600   -3.390300    2.639400
     19          1           0       -0.880900   -4.288800    0.650600
     20          1           0        0.964100   -2.935600   -0.323600
 ---------------------------------------------------------------------
                    Distance matrix (angstroms):
                    1          2          3          4          5
     1  Br   0.000000
     2  C    1.992338   0.000000
     3  C    2.914177   1.540533   0.000000
     4  C    3.370582   2.600325   1.543848   0.000000
     5  C    4.071810   3.141101   2.563351   1.521569   0.000000
     6  C    5.349686   4.087014   3.350835   2.542541   1.399130
     7  N    6.283801   5.050715   4.572181   3.808586   2.422745
     8  C    6.176134   5.229343   5.086331   4.275340   2.754100
     9  C    5.146964   4.575085   4.667283   3.818738   2.415885
    10  C    3.943788   3.471230   3.459233   2.540997   1.399474
    11  H    2.541621   1.090684   2.185879   3.539224   4.120650
    12  H    2.552048   1.091096   2.196029   2.873070   2.842451
    13  H    3.886302   2.156869   1.091102   2.160986   2.810469
    14  H    3.057473   2.155367   1.091001   2.162809   3.488429
    15  H    2.929353   2.880841   2.181438   1.091562   2.148140
    16  H    4.306520   3.526417   2.170840   1.091305   2.135651
    17  H    5.832852   4.413110   3.389992   2.764808   2.163635
    18  H    7.138806   6.198465   6.129112   5.355172   3.834327
    19  H    5.481686   5.187075   5.497998   4.695111   3.400270
    20  H    3.244040   3.325695   3.569409   2.752863   2.159018
                    6          7          8          9         10
     6  C    0.000000
     7  N    1.357579   0.000000
     8  C    2.325392   1.357246   0.000000
     9  C    2.749228   2.418257   1.396424   0.000000
    10  C    2.401156   2.801104   2.400671   1.396326   0.000000
    11  H    4.900138   5.830065   6.070738   5.507687   4.498694
    12  H    3.686308   4.413337   4.431113   3.790432   2.913823
    13  H    3.131712   4.304972   5.031994   4.900270   3.890892
    14  H    4.271837   5.555805   6.118916   5.666652   4.389187
    15  H    3.387472   4.538394   4.766631   4.036692   2.662741
    16  H    2.696530   4.022904   4.725697   4.494055   3.338426
    17  H    1.080222   2.072557   3.284908   3.828753   3.392510
    18  H    3.287304   2.075503   1.080782   2.160677   3.390785
    19  H    3.829142   3.389971   2.159544   1.080157   2.156910
    20  H    3.389963   3.882413   3.385410   2.151397   1.081326
                   11         12         13         14         15
    11  H    0.000000
    12  H    1.758524   0.000000
    13  H    2.481855   2.546086   0.000000
    14  H    2.498081   3.077603   1.739636   0.000000
    15  H    3.874763   3.246775   3.069089   2.507028   0.000000
    16  H    4.342776   3.874324   2.492881   2.458335   1.727864
    17  H    5.097729   4.199288   2.927384   4.159007   3.744398
    18  H    6.989486   5.328844   6.016882   7.174335   5.833831
    19  H    6.094972   4.351951   5.818089   6.473262   4.743635
    20  H    4.374324   2.905667   4.248865   4.361606   2.471240
                   16         17         18         19         20
    16  H    0.000000
    17  H    2.560043   0.000000
    18  H    5.776937   4.141673   0.000000
    19  H    5.434998   4.908334   2.505444   0.000000
    20  H    3.666338   4.303113   4.294887   2.486813   0.000000
 Stoichiometry    C8H10BrN
 Framework group  C1[X(C8H10BrN)]
 Deg. of freedom    54
 Full point group                 C1      NOp   1
 Largest Abelian subgroup         C1      NOp   1
 Largest concise Abelian subgroup C1      NOp   1
                         Standard orientation:                         
 ---------------------------------------------------------------------
 Center     Atomic      Atomic             Coordinates (Angstroms)
 Number     Number       Type             X           Y           Z
 ---------------------------------------------------------------------
      1         35           0        2.539860   -0.510363   -0.048103
      2          6           0        1.336350    0.612397    1.074566
      3          6           0        0.712416    1.742119    0.233330
      4          6           0       -0.184265    1.267687   -0.930432
      5          6           0       -1.391309    0.460566   -0.475706
      6          6           0       -2.563182    1.095282   -0.049781
      7          7           0       -3.661157    0.416234    0.370176
      8          6           0       -3.607181   -0.939938    0.369021
      9          6           0       -2.478747   -1.652636   -0.041707
     10          6           0       -1.357864   -0.938496   -0.469902
     11          1           0        1.934591    1.014480    1.893119
     12          1           0        0.577391   -0.037240    1.513249
     13          1           0        0.129191    2.390190    0.889347
     14          1           0        1.513278    2.367271   -0.164272
     15          1           0        0.395363    0.683239   -1.647340
     16          1           0       -0.537787    2.129818   -1.498498
     17          1           0       -2.639228    2.172749   -0.037019
     18          1           0       -4.495948   -1.453969    0.706594
     19          1           0       -2.471104   -2.732700   -0.029687
     20          1           0       -0.470067   -1.466668   -0.789460
 ---------------------------------------------------------------------
 Rotational constants (GHZ):           2.1596801           0.4346203           0.3878583
 Standard basis: 6-31G(d,p) (6D, 7F)
 There are   215 symmetry adapted cartesian basis functions of A   symmetry.
 There are   215 symmetry adapted basis functions of A   symmetry.
   215 basis functions,   405 primitive gaussians,   215 cartesian basis functions
    50 alpha electrons       50 beta electrons
       nuclear repulsion energy       723.0741248574 Hartrees.
 NAtoms=   20 NActive=   20 NUniq=   20 SFac= 1.00D+00 NAtFMM=   60 NAOKFM=F Big=F
 Integral buffers will be    131072 words long.
 Raffenetti 2 integral format.
 Two-electron integral symmetry is turned on.
 Nuclear repulsion after empirical dispersion term =      723.0345163318 Hartrees.
 One-electron integrals computed using PRISM.
 NBasis=   215 RedAO= T EigKep=  7.41D-04  NBF=   215
 NBsUse=   215 1.00D-06 EigRej= -1.00D+00 NBFU=   215
 ExpMin= 1.43D-01 ExpMax= 5.74D+05 ExpMxC= 5.74D+03 IAcc=3 IRadAn=         5 AccDes= 0.00D+00
 Harris functional with IExCor=  402 and IRadAn=       5 diagonalized for initial guess.
 HarFok:  IExCor=  402 AccDes= 0.00D+00 IRadAn=         5 IDoV= 1 UseB2=F ITyADJ=14
 ICtDFT=  3500011 ScaDFX=  1.000000  1.000000  1.000000  1.000000
 FoFCou: FMM=F IPFlag=           0 FMFlag=      100000 FMFlg1=           0
         NFxFlg=           0 DoJE=T BraDBF=F KetDBF=T FulRan=T
         wScrn=  0.000000 ICntrl=       500 IOpCl=  0 I1Cent=   200000004 NGrid=           0
         NMat0=    1 NMatS0=      1 NMatT0=    0 NMatD0=    1 NMtDS0=    0 NMtDT0=    0
 Petite list used in FoFCou.
 Requested convergence on RMS density matrix=1.00D-08 within 128 cycles.
 Requested convergence on MAX density matrix=1.00D-06.
 Requested convergence on             energy=1.00D-06.
 No special actions if energy rises.
 Integral accuracy reduced to 1.0D-05 until final iterations.
 Initial convergence to 1.0D-05 achieved.  Increase integral accuracy.
 SCF Done:  E(RB3LYP) =  -2937.38883399     A.U. after   14 cycles
            NFock= 14  Conv=0.59D-08     -V/T= 2.0067

 **********************************************************************

            Population analysis using the SCF Density.

 **********************************************************************

 Orbital symmetries:
       Occupied  (A) (A) (A) (A) (A) (A) (A) (A) (A) (A) (A) (A)
                 (A) (A) (A) (A) (A) (A) (A) (A) (A) (A) (A) (A)
                 (A) (A) (A) (A) (A) (A) (A) (A) (A) (A) (A) (A)
                 (A) (A) (A) (A) (A) (A) (A) (A) (A) (A) (A) (A)
                 (A) (A)
       Virtual   (A) (A) (A) (A) (A) (A) (A) (A) (A) (A) (A) (A)
                 (A) (A) (A) (A) (A) (A) (A) (A) (A) (A) (A) (A)
                 (A) (A) (A) (A) (A) (A) (A) (A) (A) (A) (A) (A)
                 (A) (A) (A) (A) (A) (A) (A) (A) (A) (A) (A) (A)
                 (A) (A) (A) (A) (A) (A) (A) (A) (A) (A) (A) (A)
                 (A) (A) (A) (A) (A) (A) (A) (A) (A) (A) (A) (A)
                 (A) (A) (A) (A) (A) (A) (A) (A) (A) (A) (A) (A)
                 (A) (A) (A) (A) (A) (A) (A) (A) (A) (A) (A) (A)
                 (A) (A) (A) (A) (A) (A) (A) (A) (A) (A) (A) (A)
                 (A) (A) (A) (A) (A) (A) (A) (A) (A) (A) (A) (A)
                 (A) (A) (A) (A) (A) (A) (A) (A) (A) (A) (A) (A)
                 (A) (A) (A) (A) (A) (A) (A) (A) (A) (A) (A) (A)
                 (A) (A) (A) (A) (A) (A) (A) (A) (A) (A) (A) (A)
                 (A) (A) (A) (A) (A) (A) (A) (A) (A)
 The electronic state is 1-A.
 Alpha  occ. eigenvalues -- -482.90191 -61.86407 -56.38434 -56.38074 -56.38065
 Alpha  occ. eigenvalues --  -14.33108 -10.24930 -10.22220 -10.22203 -10.20822
 Alpha  occ. eigenvalues --  -10.20602 -10.20512 -10.19967 -10.19880  -8.57490
 Alpha  occ. eigenvalues --   -6.52840  -6.51595  -6.51591  -2.64404  -2.64056
 Alpha  occ. eigenvalues --   -2.64052  -2.63060  -2.63060  -0.92959  -0.83426
 Alpha  occ. eigenvalues --   -0.80179  -0.77560  -0.73998  -0.68398  -0.63100
 Alpha  occ. eigenvalues --   -0.62233  -0.58477  -0.51871  -0.49012  -0.48005
 Alpha  occ. eigenvalues --   -0.45877  -0.45536  -0.42526  -0.40116  -0.40029
 Alpha  occ. eigenvalues --   -0.38924  -0.38475  -0.36957  -0.34928  -0.34491
 Alpha  occ. eigenvalues --   -0.28155  -0.27774  -0.27687  -0.25605  -0.25063
 Alpha virt. eigenvalues --   -0.02623  -0.01444  -0.00194   0.08737   0.10536
 Alpha virt. eigenvalues --    0.11635   0.13541   0.13881   0.14661   0.15056
 Alpha virt. eigenvalues --    0.16156   0.17176   0.17402   0.18262   0.19897
 Alpha virt. eigenvalues --    0.21980   0.25003   0.25175   0.30443   0.31420
 Alpha virt. eigenvalues --    0.32732   0.35946   0.40001   0.42032   0.43970
 Alpha virt. eigenvalues --    0.45194   0.45676   0.47331   0.47613   0.50840
 Alpha virt. eigenvalues --    0.51216   0.52729   0.53345   0.54549   0.55590
 Alpha virt. eigenvalues --    0.56139   0.58022   0.59177   0.59484   0.60420
 Alpha virt. eigenvalues --    0.62983   0.63380   0.64181   0.64868   0.66426
 Alpha virt. eigenvalues --    0.68727   0.70384   0.73428   0.77793   0.79729
 Alpha virt. eigenvalues --    0.80514   0.81223   0.82432   0.83492   0.84725
 Alpha virt. eigenvalues --    0.86288   0.86707   0.87903   0.89518   0.90845
 Alpha virt. eigenvalues --    0.91109   0.93097   0.93697   0.95158   0.99052
 Alpha virt. eigenvalues --    1.00234   1.03506   1.07956   1.08695   1.13328
 Alpha virt. eigenvalues --    1.17323   1.19325   1.25414   1.28805   1.32132
 Alpha virt. eigenvalues --    1.34594   1.38056   1.40353   1.42971   1.44465
 Alpha virt. eigenvalues --    1.47147   1.47900   1.50513   1.52458   1.57888
 Alpha virt. eigenvalues --    1.62832   1.71117   1.71369   1.74653   1.77908
 Alpha virt. eigenvalues --    1.80137   1.81046   1.82195   1.84671   1.86195
 Alpha virt. eigenvalues --    1.89220   1.90327   1.92192   1.96944   1.97788
 Alpha virt. eigenvalues --    2.00454   2.02950   2.08307   2.09561   2.10574
 Alpha virt. eigenvalues --    2.12363   2.13270   2.15444   2.18997   2.19390
 Alpha virt. eigenvalues --    2.26540   2.27392   2.31222   2.31625   2.32294
 Alpha virt. eigenvalues --    2.33920   2.35835   2.38152   2.39285   2.41682
 Alpha virt. eigenvalues --    2.45889   2.48312   2.49387   2.51068   2.53587
 Alpha virt. eigenvalues --    2.55449   2.56204   2.60106   2.63595   2.64889
 Alpha virt. eigenvalues --    2.65457   2.67925   2.70968   2.72775   2.73718
 Alpha virt. eigenvalues --    2.81429   2.83634   2.86071   2.86872   2.89166
 Alpha virt. eigenvalues --    2.98953   3.04246   3.18028   3.24127   3.24324
 Alpha virt. eigenvalues --    3.27831   3.29843   3.31418   3.39554   3.40487
 Alpha virt. eigenvalues --    3.46549   3.49851   3.53285   3.79560   4.10249
 Alpha virt. eigenvalues --    4.15797   4.17652   4.28827   4.32779   4.46065
 Alpha virt. eigenvalues --    4.51106   4.66550   4.74797   8.65115  73.49763
          Condensed to atoms (all electrons):
               1          2          3          4          5          6
     1  Br  35.016607   0.252684  -0.053634  -0.008440  -0.002340  -0.000024
     2  C    0.252684   4.982847   0.347681  -0.046457  -0.006118  -0.000404
     3  C   -0.053634   0.347681   4.962622   0.358846  -0.044296  -0.002714
     4  C   -0.008440  -0.046457   0.358846   5.034125   0.342578  -0.047153
     5  C   -0.002340  -0.006118  -0.044296   0.342578   4.830152   0.485555
     6  C   -0.000024  -0.000404  -0.002714  -0.047153   0.485555   4.818693
     7  N   -0.000000  -0.000001  -0.000017   0.005427  -0.016045   0.439536
     8  C   -0.000001   0.000012   0.000024   0.000272  -0.032585  -0.072628
     9  C    0.000085  -0.000201  -0.000129   0.007398  -0.024955  -0.041290
    10  C   -0.002024  -0.000494  -0.003605  -0.058000   0.537822  -0.039865
    11  H   -0.036937   0.378872  -0.031413   0.004353   0.000110  -0.000009
    12  H   -0.036850   0.373692  -0.035486  -0.008323   0.008466   0.000508
    13  H    0.004731  -0.032478   0.369210  -0.036646  -0.005391   0.002923
    14  H   -0.000780  -0.039389   0.377430  -0.031604   0.004645   0.000089
    15  H    0.011785  -0.008013  -0.034592   0.378188  -0.030415   0.003286
    16  H    0.000178   0.005044  -0.031683   0.371169  -0.031754  -0.006186
    17  H    0.000001   0.000051   0.000323  -0.003703  -0.068223   0.387863
    18  H    0.000000  -0.000000   0.000000   0.000014   0.000685   0.004576
    19  H   -0.000003   0.000001   0.000000  -0.000114   0.005049   0.000486
    20  H    0.007955  -0.000499   0.000045  -0.009554  -0.044080   0.005318
               7          8          9         10         11         12
     1  Br  -0.000000  -0.000001   0.000085  -0.002024  -0.036937  -0.036850
     2  C   -0.000001   0.000012  -0.000201  -0.000494   0.378872   0.373692
     3  C   -0.000017   0.000024  -0.000129  -0.003605  -0.031413  -0.035486
     4  C    0.005427   0.000272   0.007398  -0.058000   0.004353  -0.008323
     5  C   -0.016045  -0.032585  -0.024955   0.537822   0.000110   0.008466
     6  C    0.439536  -0.072628  -0.041290  -0.039865  -0.000009   0.000508
     7  N    6.729570   0.457770  -0.024492  -0.055043  -0.000000  -0.000035
     8  C    0.457770   4.728773   0.503679  -0.038887   0.000000  -0.000046
     9  C   -0.024492   0.503679   4.913023   0.508538   0.000002   0.000238
    10  C   -0.055043  -0.038887   0.508538   4.900451   0.000023   0.004449
    11  H   -0.000000   0.000000   0.000002   0.000023   0.578873  -0.036556
    12  H   -0.000035  -0.000046   0.000238   0.004449  -0.036556   0.572166
    13  H   -0.000077  -0.000005   0.000006   0.000095  -0.001930  -0.001533
    14  H    0.000002  -0.000000   0.000004  -0.000057  -0.004045   0.005451
    15  H   -0.000152   0.000010   0.000099  -0.005082   0.000117   0.000148
    16  H    0.000057   0.000016  -0.000251   0.003928  -0.000117   0.000038
    17  H   -0.049612   0.004804   0.000285   0.004221   0.000001  -0.000006
    18  H   -0.050293   0.388231  -0.061739   0.003460  -0.000000  -0.000000
    19  H    0.004845  -0.035852   0.359015  -0.039292   0.000000  -0.000005
    20  H   -0.000239   0.004606  -0.043854   0.373919   0.000055  -0.000683
              13         14         15         16         17         18
     1  Br   0.004731  -0.000780   0.011785   0.000178   0.000001   0.000000
     2  C   -0.032478  -0.039389  -0.008013   0.005044   0.000051  -0.000000
     3  C    0.369210   0.377430  -0.034592  -0.031683   0.000323   0.000000
     4  C   -0.036646  -0.031604   0.378188   0.371169  -0.003703   0.000014
     5  C   -0.005391   0.004645  -0.030415  -0.031754  -0.068223   0.000685
     6  C    0.002923   0.000089   0.003286  -0.006186   0.387863   0.004576
     7  N   -0.000077   0.000002  -0.000152   0.000057  -0.049612  -0.050293
     8  C   -0.000005  -0.000000   0.000010   0.000016   0.004804   0.388231
     9  C    0.000006   0.000004   0.000099  -0.000251   0.000285  -0.061739
    10  C    0.000095  -0.000057  -0.005082   0.003928   0.004221   0.003460
    11  H   -0.001930  -0.004045   0.000117  -0.000117   0.000001  -0.000000
    12  H   -0.001533   0.005451   0.000148   0.000038  -0.000006  -0.000000
    13  H    0.617791  -0.033489   0.005474  -0.003552   0.000820  -0.000000
    14  H   -0.033489   0.607598  -0.003327  -0.003596  -0.000053   0.000000
    15  H    0.005474  -0.003327   0.588064  -0.035690  -0.000052  -0.000000
    16  H   -0.003552  -0.003596  -0.035690   0.618267   0.004142  -0.000000
    17  H    0.000820  -0.000053  -0.000052   0.004142   0.623018  -0.000193
    18  H   -0.000000   0.000000  -0.000000  -0.000000  -0.000193   0.616099
    19  H    0.000000  -0.000000  -0.000010   0.000003   0.000027  -0.002339
    20  H    0.000001  -0.000044   0.003799   0.000093  -0.000168  -0.000179
              19         20
     1  Br  -0.000003   0.007955
     2  C    0.000001  -0.000499
     3  C    0.000000   0.000045
     4  C   -0.000114  -0.009554
     5  C    0.005049  -0.044080
     6  C    0.000486   0.005318
     7  N    0.004845  -0.000239
     8  C   -0.035852   0.004606
     9  C    0.359015  -0.043854
    10  C   -0.039292   0.373919
    11  H    0.000000   0.000055
    12  H   -0.000005  -0.000683
    13  H    0.000000   0.000001
    14  H   -0.000000  -0.000044
    15  H   -0.000010   0.003799
    16  H    0.000003   0.000093
    17  H    0.000027  -0.000168
    18  H   -0.002339  -0.000179
    19  H    0.620678  -0.006101
    20  H   -0.006101   0.598152
 Mulliken charges:
               1
     1  Br  -0.152993
     2  C   -0.206829
     3  C   -0.178611
     4  C   -0.252377
     5  C    0.091140
     6  C    0.061439
     7  N   -0.441200
     8  C    0.091806
     9  C   -0.095459
    10  C   -0.094557
    11  H    0.148602
    12  H    0.154367
    13  H    0.114048
    14  H    0.121164
    15  H    0.126363
    16  H    0.109893
    17  H    0.096454
    18  H    0.101679
    19  H    0.093613
    20  H    0.111458
 Sum of Mulliken charges =  -0.00000
 Mulliken charges with hydrogens summed into heavy atoms:
               1
     1  Br  -0.152993
     2  C    0.096139
     3  C    0.056602
     4  C   -0.016121
     5  C    0.091140
     6  C    0.157893
     7  N   -0.441200
     8  C    0.193485
     9  C   -0.001846
    10  C    0.016901
 Electronic spatial extent (au):  <R**2>=           2630.4757
 Charge=              0.0000 electrons
 Dipole moment (field-independent basis, Debye):
    X=              0.8251    Y=              0.3328    Z=              0.2374  Tot=              0.9209
 Quadrupole moment (field-independent basis, Debye-Ang):
   XX=            -85.3149   YY=            -65.6437   ZZ=            -70.9441
   XY=              6.5246   XZ=              1.7203   YZ=              0.2812
 Traceless Quadrupole moment (field-independent basis, Debye-Ang):
   XX=            -11.3473   YY=              8.3239   ZZ=              3.0234
   XY=              6.5246   XZ=              1.7203   YZ=              0.2812
 Octapole moment (field-independent basis, Debye-Ang**2):
  XXX=            113.3007  YYY=            -14.6873  ZZZ=              1.8791  XYY=             18.2017
  XXY=            -26.7399  XXZ=             -3.8173  XZZ=             34.7764  YZZ=             -2.8423
  YYZ=             -1.2540  XYZ=              8.0144
 Hexadecapole moment (field-independent basis, Debye-Ang**3):
 XXXX=          -2583.3073 YYYY=           -550.4654 ZZZZ=           -211.9739 XXXY=             65.3571
 XXXZ=             -3.1822 YYYX=            -31.3775 YYYZ=              1.3696 ZZZX=             -0.1278
 ZZZY=              2.9622 XXYY=           -459.9382 XXZZ=           -438.9887 YYZZ=           -133.3182
 XXYZ=            -10.7331 YYXZ=             -4.6415 ZZXY=            -12.1273
 N-N= 7.230345163318D+02 E-N=-8.426621456042D+03  KE= 2.917961830039D+03
 Calling FoFJK, ICntrl=      2127 FMM=F ISym2X=0 I1Cent= 0 IOpClX= 0 NMat=1 NMatS=1 NMatT=0.
 ***** Axes restored to original set *****
 -------------------------------------------------------------------
 Center     Atomic                   Forces (Hartrees/Bohr)
 Number     Number              X              Y              Z
 -------------------------------------------------------------------
      1       35          -0.002353974   -0.000697564    0.006924524
      2        6          -0.005144840    0.011029584    0.006301084
      3        6           0.000604077   -0.005296252   -0.007871383
      4        6          -0.005875038   -0.003312103    0.002899714
      5        6           0.007793040    0.004497651   -0.006259873
      6        6          -0.016418660   -0.024690630    0.001155965
      7        7           0.006148669   -0.002746907   -0.008575580
      8        6           0.011832859    0.018467342    0.001169082
      9        6           0.002204210    0.005937535    0.002524718
     10        6          -0.005389270   -0.001230036    0.005908997
     11        1           0.002232686    0.000460513   -0.004944148
     12        1          -0.001580335   -0.001139235   -0.006090604
     13        1          -0.000757529   -0.002905956    0.005438275
     14        1           0.001975784    0.001013692   -0.002419380
     15        1           0.003320135   -0.003544418   -0.000654420
     16        1           0.001874224    0.003634726    0.003605104
     17        1           0.000959217    0.005047997    0.001911524
     18        1          -0.003367124   -0.001588698    0.002347255
     19        1          -0.001505071   -0.003204402   -0.000987925
     20        1           0.003446939    0.000267162   -0.002382928
 -------------------------------------------------------------------
 Cartesian Forces:  Max     0.024690630 RMS     0.006263977

 GradGradGradGradGradGradGradGradGradGradGradGradGradGradGradGradGradGrad
 Berny optimization.
 FormGI is forming the generalized inverse of G from B-inverse, IUseBI=4.
 Internal  Forces:  Max     0.017901661 RMS     0.003824155
 Search for a local minimum.
 Step number   1 out of a maximum of  108
 All quantities printed in internal units (Hartrees-Bohrs-Radians)
 Mixed Optimization -- RFO/linear search
 Second derivative matrix not updated -- first step.
 ITU=  0
     Eigenvalues ---    0.00230   0.00230   0.00481   0.01428   0.02105
     Eigenvalues ---    0.02116   0.02137   0.02140   0.02147   0.02175
     Eigenvalues ---    0.02225   0.03193   0.03805   0.04672   0.05220
     Eigenvalues ---    0.05427   0.05626   0.08675   0.09556   0.12463
     Eigenvalues ---    0.12962   0.14392   0.16000   0.16000   0.16000
     Eigenvalues ---    0.16000   0.16000   0.16000   0.21878   0.21927
     Eigenvalues ---    0.22000   0.22227   0.23190   0.23456   0.25000
     Eigenvalues ---    0.28181   0.28472   0.30216   0.34633   0.34662
     Eigenvalues ---    0.34686   0.34686   0.34697   0.34734   0.35835
     Eigenvalues ---    0.35900   0.35967   0.35975   0.42109   0.43648
     Eigenvalues ---    0.45905   0.46091   0.51710   0.52820
 RFO step:  Lambda=-6.55730600D-03 EMin= 2.30000000D-03
 Linear search not attempted -- first point.
 Iteration  1 RMS(Cart)=  0.10435384 RMS(Int)=  0.00337341
 Iteration  2 RMS(Cart)=  0.00465229 RMS(Int)=  0.00024965
 Iteration  3 RMS(Cart)=  0.00001673 RMS(Int)=  0.00024944
 Iteration  4 RMS(Cart)=  0.00000000 RMS(Int)=  0.00024944
 Variable       Old X    -DE/DX   Delta X   Delta X   Delta X     New X
                                 (Linear)    (Quad)   (Total)
    R1        3.76497  -0.00681   0.00000  -0.04526  -0.04526   3.71971
    R2        2.91119  -0.01157   0.00000  -0.03974  -0.03974   2.87145
    R3        2.06109  -0.00066   0.00000  -0.00186  -0.00186   2.05923
    R4        2.06187  -0.00060   0.00000  -0.00169  -0.00169   2.06019
    R5        2.91745  -0.00594   0.00000  -0.02060  -0.02060   2.89685
    R6        2.06188   0.00450   0.00000   0.01272   0.01272   2.07461
    R7        2.06169   0.00290   0.00000   0.00820   0.00820   2.06989
    R8        2.87535  -0.00583   0.00000  -0.01889  -0.01889   2.85645
    R9        2.06275   0.00167   0.00000   0.00474   0.00474   2.06749
   R10        2.06227   0.00311   0.00000   0.00880   0.00880   2.07107
   R11        2.64397  -0.00079   0.00000  -0.00183  -0.00178   2.64219
   R12        2.64462  -0.00393   0.00000  -0.00692  -0.00688   2.63774
   R13        2.56545  -0.01790   0.00000  -0.03448  -0.03447   2.53098
   R14        2.04132   0.00545   0.00000   0.01489   0.01489   2.05621
   R15        2.56482  -0.01765   0.00000  -0.03392  -0.03395   2.53087
   R16        2.63886  -0.00191   0.00000  -0.00406  -0.00411   2.63475
   R17        2.04238   0.00432   0.00000   0.01181   0.01181   2.05419
   R18        2.63867  -0.00397   0.00000  -0.00685  -0.00687   2.63181
   R19        2.04120   0.00359   0.00000   0.00981   0.00981   2.05101
   R20        2.04341   0.00355   0.00000   0.00972   0.00972   2.05313
    A1        1.92859   0.00349   0.00000   0.00433   0.00429   1.93288
    A2        1.87477  -0.00294   0.00000  -0.02030  -0.02027   1.85450
    A3        1.88727  -0.00506   0.00000  -0.05413  -0.05423   1.83304
    A4        1.94081   0.00146   0.00000   0.02230   0.02184   1.96265
    A5        1.95460   0.00046   0.00000   0.00486   0.00433   1.95893
    A6        1.87474   0.00222   0.00000   0.04071   0.03989   1.91463
    A7        2.00590  -0.00560   0.00000  -0.03194  -0.03218   1.97372
    A8        1.90048  -0.00160   0.00000  -0.02999  -0.03008   1.87039
    A9        1.89854   0.00263   0.00000   0.01575   0.01598   1.91452
   A10        1.90211   0.00366   0.00000   0.01571   0.01469   1.91680
   A11        1.90469   0.00090   0.00000   0.00819   0.00819   1.91288
   A12        1.84538   0.00046   0.00000   0.02715   0.02709   1.87247
   A13        1.98066  -0.00173   0.00000  -0.01489  -0.01530   1.96535
   A14        1.92965  -0.00245   0.00000  -0.03598  -0.03650   1.89315
   A15        1.91534  -0.00153   0.00000  -0.00704  -0.00683   1.90851
   A16        1.91082   0.00087   0.00000  -0.00722  -0.00830   1.90251
   A17        1.89404   0.00295   0.00000   0.03396   0.03395   1.92799
   A18        1.82671   0.00231   0.00000   0.03661   0.03647   1.86318
   A19        2.11154   0.00229   0.00000   0.00760   0.00737   2.11891
   A20        2.10898   0.00228   0.00000   0.00757   0.00734   2.11632
   A21        2.06266  -0.00457   0.00000  -0.01523  -0.01529   2.04737
   A22        2.14679   0.00739   0.00000   0.02891   0.02897   2.17576
   A23        2.11187  -0.00400   0.00000  -0.01630  -0.01635   2.09552
   A24        2.02453  -0.00339   0.00000  -0.01260  -0.01266   2.01187
   A25        2.05711  -0.00258   0.00000  -0.01912  -0.01914   2.03797
   A26        2.14404   0.00376   0.00000   0.01331   0.01324   2.15728
   A27        2.02892  -0.00275   0.00000  -0.01187  -0.01184   2.01708
   A28        2.11023  -0.00101   0.00000  -0.00144  -0.00141   2.10882
   A29        2.06900  -0.00063   0.00000   0.00059   0.00055   2.06955
   A30        2.10921  -0.00046   0.00000  -0.00493  -0.00491   2.10430
   A31        2.10497   0.00109   0.00000   0.00434   0.00436   2.10933
   A32        2.08677  -0.00338   0.00000  -0.00842  -0.00839   2.07838
   A33        2.10215  -0.00050   0.00000  -0.00898  -0.00902   2.09313
   A34        2.09426   0.00388   0.00000   0.01734   0.01730   2.11155
    D1        1.08751  -0.00171   0.00000  -0.06773  -0.06802   1.01949
    D2       -3.05661  -0.00209   0.00000  -0.09272  -0.09233   3.13424
    D3       -1.05344  -0.00099   0.00000  -0.06815  -0.06816  -1.12160
    D4       -3.11535  -0.00217   0.00000  -0.07592  -0.07645   3.09139
    D5       -0.97628  -0.00255   0.00000  -0.10091  -0.10077  -1.07705
    D6        1.02689  -0.00145   0.00000  -0.07635  -0.07660   0.95030
    D7       -1.01767   0.00199   0.00000  -0.00516  -0.00530  -1.02297
    D8        1.12139   0.00161   0.00000  -0.03015  -0.02961   1.09177
    D9        3.12457   0.00272   0.00000  -0.00558  -0.00544   3.11912
   D10        1.07063  -0.00278   0.00000  -0.09779  -0.09763   0.97301
   D11       -1.08412  -0.00077   0.00000  -0.04967  -0.05003  -1.13414
   D12       -3.09038  -0.00129   0.00000  -0.06939  -0.06946   3.12335
   D13       -1.06755   0.00043   0.00000  -0.04817  -0.04773  -1.11529
   D14        3.06088   0.00244   0.00000  -0.00005  -0.00014   3.06075
   D15        1.05462   0.00192   0.00000  -0.01977  -0.01956   1.03506
   D16       -3.07491  -0.00260   0.00000  -0.09342  -0.09327   3.11501
   D17        1.05352  -0.00058   0.00000  -0.04529  -0.04567   1.00786
   D18       -0.95274  -0.00110   0.00000  -0.06502  -0.06509  -1.01783
   D19        1.45923   0.00117   0.00000   0.05878   0.05859   1.51783
   D20       -1.68016   0.00191   0.00000   0.09416   0.09418  -1.58598
   D21       -2.65893  -0.00261   0.00000  -0.00447  -0.00466  -2.66358
   D22        0.48486  -0.00187   0.00000   0.03090   0.03093   0.51580
   D23       -0.67479   0.00215   0.00000   0.05314   0.05319  -0.62161
   D24        2.46900   0.00289   0.00000   0.08851   0.08878   2.55777
   D25       -3.13589   0.00041   0.00000   0.01907   0.01883  -3.11706
   D26        0.00356   0.00072   0.00000   0.03091   0.03076   0.03432
   D27        0.00356  -0.00031   0.00000  -0.01536  -0.01539  -0.01182
   D28       -3.14017   0.00001   0.00000  -0.00352  -0.00345   3.13956
   D29        3.13666  -0.00046   0.00000  -0.02169  -0.02169   3.11497
   D30        0.00038  -0.00014   0.00000  -0.01024  -0.01029  -0.00991
   D31       -0.00279   0.00025   0.00000   0.01268   0.01247   0.00967
   D32       -3.13908   0.00058   0.00000   0.02414   0.02387  -3.11521
   D33       -0.00258   0.00017   0.00000   0.00789   0.00792   0.00535
   D34        3.14106  -0.00013   0.00000  -0.00340  -0.00349   3.13757
   D35        0.00087   0.00003   0.00000   0.00227   0.00234   0.00322
   D36       -3.13979  -0.00002   0.00000  -0.00052  -0.00049  -3.14028
   D37       -0.00025  -0.00010   0.00000  -0.00447  -0.00447  -0.00472
   D38       -3.14135  -0.00010   0.00000  -0.00527  -0.00535   3.13648
   D39        3.14037  -0.00005   0.00000  -0.00156  -0.00150   3.13887
   D40       -0.00073  -0.00006   0.00000  -0.00236  -0.00238  -0.00312
   D41        0.00124  -0.00004   0.00000  -0.00331  -0.00338  -0.00214
   D42        3.13755  -0.00038   0.00000  -0.01479  -0.01499   3.12255
   D43       -3.14084  -0.00004   0.00000  -0.00251  -0.00250   3.13985
   D44       -0.00453  -0.00037   0.00000  -0.01399  -0.01410  -0.01864
         Item               Value     Threshold  Converged?
 Maximum Force            0.017902     0.000450     NO 
 RMS     Force            0.003824     0.000300     NO 
 Maximum Displacement     0.624780     0.001800     NO 
 RMS     Displacement     0.104558     0.001200     NO 
 Predicted change in Energy=-3.692150D-03
 GradGradGradGradGradGradGradGradGradGradGradGradGradGradGradGradGradGrad

                          Input orientation:                          
 ---------------------------------------------------------------------
 Center     Atomic      Atomic             Coordinates (Angstroms)
 Number     Number       Type             X           Y           Z
 ---------------------------------------------------------------------
      1         35           0        3.845581   -2.727817   -0.615721
      2          6           0        3.655050   -2.102579    1.240975
      3          6           0        3.201612   -0.652751    1.276841
      4          6           0        1.868738   -0.421800    0.555705
      5          6           0        0.759970   -1.300166    1.088576
      6          6           0       -0.018553   -0.908020    2.181760
      7          7           0       -0.997279   -1.644705    2.723260
      8          6           0       -1.228536   -2.841656    2.168738
      9          6           0       -0.510024   -3.340956    1.083210
     10          6           0        0.501843   -2.555789    0.536189
     11          1           0        4.626844   -2.246466    1.712521
     12          1           0        2.924618   -2.774613    1.691956
     13          1           0        3.107555   -0.368716    2.333117
     14          1           0        3.973783   -0.013467    0.835443
     15          1           0        2.009546   -0.632110   -0.508688
     16          1           0        1.591522    0.635571    0.634810
     17          1           0        0.145895    0.061069    2.648437
     18          1           0       -2.027544   -3.422464    2.622488
     19          1           0       -0.736179   -4.321008    0.675368
     20          1           0        1.097857   -2.913557   -0.298786
 ---------------------------------------------------------------------
                    Distance matrix (angstroms):
                    1          2          3          4          5
     1  Br   0.000000
     2  C    1.968386   0.000000
     3  C    2.881387   1.519505   0.000000
     4  C    3.255436   2.546669   1.532948   0.000000
     5  C    3.803131   3.008086   2.533023   1.511571   0.000000
     6  C    5.105791   3.975854   3.354624   2.538176   1.398188
     7  N    5.981239   4.904180   4.550470   3.795767   2.424628
     8  C    5.789027   5.025574   5.021254   4.248610   2.738083
     9  C    4.715252   4.348139   4.586958   3.802400   2.403692
    10  C    3.540773   3.262643   3.385096   2.534303   1.395833
    11  H    2.502555   1.089698   2.181979   3.503538   4.029578
    12  H    2.485103   1.090204   2.179758   2.818098   2.687706
    13  H    3.847816   2.121039   1.097835   2.167183   2.815607
    14  H    3.080586   2.151845   1.095338   2.162454   3.471062
    15  H    2.788273   2.816253   2.146989   1.094070   2.135179
    16  H    4.237568   3.481816   2.159714   1.095965   2.155101
    17  H    5.667476   4.356202   3.424648   2.753339   2.159448
    18  H    6.742561   5.995211   6.068455   5.334472   3.824561
    19  H    5.019730   4.952195   5.415171   4.690814   3.396275
    20  H    2.772172   3.093184   3.466934   2.744680   2.154523
                    6          7          8          9         10
     6  C    0.000000
     7  N    1.339339   0.000000
     8  C    2.281047   1.339278   0.000000
     9  C    2.714320   2.409243   1.394250   0.000000
    10  C    2.386181   2.803698   2.396069   1.392693   0.000000
    11  H    4.857091   5.745821   5.903207   5.289740   4.300589
    12  H    3.519422   4.209698   4.180970   3.533848   2.693236
    13  H    3.175896   4.316251   4.994411   4.845963   3.847334
    14  H    4.307151   5.562037   6.069634   5.589106   4.313621
    15  H    3.380507   4.528999   4.747197   4.027433   2.658097
    16  H    2.714419   4.032762   4.732522   4.519991   3.373708
    17  H    1.088102   2.054778   3.247304   3.801834   3.381751
    18  H    3.248494   2.057190   1.087033   2.163074   3.391396
    19  H    3.799038   3.380034   2.158947   1.085349   2.160570
    20  H    3.379595   3.890031   3.392042   2.162836   1.086468
                   11         12         13         14         15
    11  H    0.000000
    12  H    1.782395   0.000000
    13  H    2.493857   2.496576   0.000000
    14  H    2.486371   3.075433   1.766233   0.000000
    15  H    3.793437   3.204763   3.057917   2.459194   0.000000
    16  H    4.322126   3.811043   2.488211   2.477231   1.757654
    17  H    5.126359   4.083779   3.009248   4.236181   3.731103
    18  H    6.818495   5.080306   5.981501   7.129567   5.821377
    19  H    5.843066   4.101978   5.756999   6.384691   4.748574
    20  H    4.116323   2.705442   4.176365   4.238863   2.465814
                   16         17         18         19         20
    16  H    0.000000
    17  H    2.544520   0.000000
    18  H    5.789313   4.106034   0.000000
    19  H    5.476085   4.886067   2.503253   0.000000
    20  H    3.702920   4.294270   4.308243   2.508701   0.000000
 Stoichiometry    C8H10BrN
 Framework group  C1[X(C8H10BrN)]
 Deg. of freedom    54
 Full point group                 C1      NOp   1
 Largest Abelian subgroup         C1      NOp   1
 Largest concise Abelian subgroup C1      NOp   1
                         Standard orientation:                         
 ---------------------------------------------------------------------
 Center     Atomic      Atomic             Coordinates (Angstroms)
 Number     Number       Type             X           Y           Z
 ---------------------------------------------------------------------
      1         35           0        2.346812   -0.550007   -0.062078
      2          6           0        1.282120    0.641602    1.087290
      3          6           0        0.746319    1.819796    0.291256
      4          6           0       -0.126021    1.396168   -0.895963
      5          6           0       -1.280599    0.512494   -0.482545
      6          6           0       -2.500268    1.054642   -0.066117
      7          7           0       -3.554937    0.335306    0.338927
      8          6           0       -3.410666   -0.996167    0.344411
      9          6           0       -2.239017   -1.646949   -0.039849
     10          6           0       -1.156374   -0.877599   -0.458871
     11          1           0        1.940841    0.952138    1.897904
     12          1           0        0.483583    0.013525    1.482767
     13          1           0        0.159131    2.437932    0.982892
     14          1           0        1.580157    2.433655   -0.066034
     15          1           0        0.500347    0.853201   -1.609994
     16          1           0       -0.493463    2.289560   -1.413626
     17          1           0       -2.645343    2.133028   -0.064740
     18          1           0       -4.278657   -1.560785    0.675225
     19          1           0       -2.174550   -2.730016   -0.011733
     20          1           0       -0.218853   -1.343061   -0.750095
 ---------------------------------------------------------------------
 Rotational constants (GHZ):           2.0728691           0.4909583           0.4278740
 Standard basis: 6-31G(d,p) (6D, 7F)
 There are   215 symmetry adapted cartesian basis functions of A   symmetry.
 There are   215 symmetry adapted basis functions of A   symmetry.
   215 basis functions,   405 primitive gaussians,   215 cartesian basis functions
    50 alpha electrons       50 beta electrons
       nuclear repulsion energy       741.8393888502 Hartrees.
 NAtoms=   20 NActive=   20 NUniq=   20 SFac= 1.00D+00 NAtFMM=   60 NAOKFM=F Big=F
 Integral buffers will be    131072 words long.
 Raffenetti 2 integral format.
 Two-electron integral symmetry is turned on.
 Nuclear repulsion after empirical dispersion term =      741.7983382819 Hartrees.
 One-electron integrals computed using PRISM.
 NBasis=   215 RedAO= T EigKep=  7.31D-04  NBF=   215
 NBsUse=   215 1.00D-06 EigRej= -1.00D+00 NBFU=   215
 Initial guess from the checkpoint file:  "pyrd10_conf-2.chk"
 B after Tr=    -0.000000   -0.000000   -0.000000
         Rot=    0.999933   -0.011456    0.001674   -0.000766 Ang=  -1.33 deg.
 ExpMin= 1.43D-01 ExpMax= 5.74D+05 ExpMxC= 5.74D+03 IAcc=3 IRadAn=         5 AccDes= 0.00D+00
 Harris functional with IExCor=  402 and IRadAn=       5 diagonalized for initial guess.
 HarFok:  IExCor=  402 AccDes= 0.00D+00 IRadAn=         5 IDoV= 1 UseB2=F ITyADJ=14
 ICtDFT=  3500011 ScaDFX=  1.000000  1.000000  1.000000  1.000000
 FoFCou: FMM=F IPFlag=           0 FMFlag=      100000 FMFlg1=           0
         NFxFlg=           0 DoJE=T BraDBF=F KetDBF=T FulRan=T
         wScrn=  0.000000 ICntrl=       500 IOpCl=  0 I1Cent=   200000004 NGrid=           0
         NMat0=    1 NMatS0=      1 NMatT0=    0 NMatD0=    1 NMtDS0=    0 NMtDT0=    0
 Petite list used in FoFCou.
 Requested convergence on RMS density matrix=1.00D-08 within 128 cycles.
 Requested convergence on MAX density matrix=1.00D-06.
 Requested convergence on             energy=1.00D-06.
 No special actions if energy rises.
 Integral accuracy reduced to 1.0D-05 until final iterations.
 Initial convergence to 1.0D-05 achieved.  Increase integral accuracy.
 SCF Done:  E(RB3LYP) =  -2937.39118391     A.U. after   14 cycles
            NFock= 14  Conv=0.54D-08     -V/T= 2.0066
 Calling FoFJK, ICntrl=      2127 FMM=F ISym2X=0 I1Cent= 0 IOpClX= 0 NMat=1 NMatS=1 NMatT=0.
 ***** Axes restored to original set *****
 -------------------------------------------------------------------
 Center     Atomic                   Forces (Hartrees/Bohr)
 Number     Number              X              Y              Z
 -------------------------------------------------------------------
      1       35           0.004254214   -0.003294259   -0.004617632
      2        6           0.000468320    0.001495998    0.005198899
      3        6           0.002024162   -0.000712678    0.000772946
      4        6          -0.004791127    0.001482277   -0.001586416
      5        6           0.002143147    0.003908665   -0.000920634
      6        6          -0.003148787   -0.000301739    0.002074275
      7        7           0.002426057   -0.000016026   -0.002215293
      8        6          -0.001177220    0.000015632    0.001572368
      9        6           0.000218197   -0.000300088   -0.000046782
     10        6          -0.002831825   -0.002777587   -0.000870293
     11        1           0.000109648   -0.000162175   -0.001382715
     12        1           0.000787723    0.000551479   -0.000213485
     13        1          -0.000157011   -0.000111242    0.000483763
     14        1          -0.000041007   -0.000253066    0.000181674
     15        1           0.000433591    0.000772751    0.000249233
     16        1           0.000036355   -0.000744634    0.001364824
     17        1           0.001174448    0.001457404   -0.000498202
     18        1          -0.000437771   -0.001277552   -0.000460928
     19        1          -0.000368632    0.000068775    0.000288365
     20        1          -0.001122481    0.000198067    0.000626034
 -------------------------------------------------------------------
 Cartesian Forces:  Max     0.005198899 RMS     0.001794432

 GradGradGradGradGradGradGradGradGradGradGradGradGradGradGradGradGradGrad
 Berny optimization.
 Using GEDIIS/GDIIS optimizer.
 FormGI is forming the generalized inverse of G from B-inverse, IUseBI=4.
 Internal  Forces:  Max     0.012790139 RMS     0.002529402
 Search for a local minimum.
 Step number   2 out of a maximum of  108
 All quantities printed in internal units (Hartrees-Bohrs-Radians)
 Mixed Optimization -- RFO/linear search
 Update second derivatives using D2CorX and points    1    2
 DE= -2.35D-03 DEPred=-3.69D-03 R= 6.36D-01
 TightC=F SS=  1.41D+00  RLast= 3.55D-01 DXNew= 5.0454D-01 1.0646D+00
 Trust test= 6.36D-01 RLast= 3.55D-01 DXMaxT set to 5.05D-01
 ITU=  1  0
 Use linear search instead of GDIIS.
     Eigenvalues ---    0.00230   0.00288   0.00516   0.01444   0.02102
     Eigenvalues ---    0.02119   0.02136   0.02140   0.02148   0.02175
     Eigenvalues ---    0.02225   0.03367   0.04137   0.04860   0.05068
     Eigenvalues ---    0.05369   0.06057   0.08265   0.09003   0.12291
     Eigenvalues ---    0.12823   0.14707   0.15771   0.15999   0.16000
     Eigenvalues ---    0.16000   0.16000   0.16107   0.19876   0.21952
     Eigenvalues ---    0.22009   0.22519   0.23342   0.24401   0.25679
     Eigenvalues ---    0.28081   0.29957   0.33165   0.34553   0.34637
     Eigenvalues ---    0.34676   0.34693   0.34728   0.35099   0.35634
     Eigenvalues ---    0.35925   0.35950   0.36485   0.42032   0.43430
     Eigenvalues ---    0.45895   0.46179   0.49870   0.52857
 RFO step:  Lambda=-2.12347275D-03 EMin= 2.29998558D-03
 Quartic linear search produced a step of -0.24387.
 Iteration  1 RMS(Cart)=  0.09266427 RMS(Int)=  0.00409859
 Iteration  2 RMS(Cart)=  0.00495855 RMS(Int)=  0.00009717
 Iteration  3 RMS(Cart)=  0.00001651 RMS(Int)=  0.00009677
 Iteration  4 RMS(Cart)=  0.00000000 RMS(Int)=  0.00009677
 Variable       Old X    -DE/DX   Delta X   Delta X   Delta X     New X
                                 (Linear)    (Quad)   (Total)
    R1        3.71971   0.00581   0.01104  -0.00101   0.01003   3.72974
    R2        2.87145   0.00305   0.00969  -0.01879  -0.00910   2.86235
    R3        2.05923  -0.00048   0.00045  -0.00230  -0.00185   2.05738
    R4        2.06019  -0.00096   0.00041  -0.00322  -0.00281   2.05737
    R5        2.89685   0.00705   0.00502   0.00499   0.01001   2.90686
    R6        2.07461   0.00045  -0.00310   0.00955   0.00645   2.08106
    R7        2.06989  -0.00025  -0.00200   0.00498   0.00298   2.07287
    R8        2.85645   0.00157   0.00461  -0.00884  -0.00423   2.85222
    R9        2.06749  -0.00033  -0.00116   0.00246   0.00130   2.06880
   R10        2.07107  -0.00063  -0.00215   0.00455   0.00241   2.07348
   R11        2.64219   0.00122   0.00043   0.00090   0.00134   2.64353
   R12        2.63774   0.00399   0.00168   0.00221   0.00388   2.64162
   R13        2.53098  -0.00076   0.00841  -0.02420  -0.01579   2.51519
   R14        2.05621   0.00126  -0.00363   0.01268   0.00905   2.06527
   R15        2.53087   0.00024   0.00828  -0.02252  -0.01424   2.51663
   R16        2.63475  -0.00029   0.00100  -0.00333  -0.00233   2.63242
   R17        2.05419   0.00081  -0.00288   0.00967   0.00679   2.06098
   R18        2.63181   0.00077   0.00167  -0.00325  -0.00158   2.63023
   R19        2.05101  -0.00009  -0.00239   0.00641   0.00401   2.05503
   R20        2.05313  -0.00116  -0.00237   0.00408   0.00171   2.05484
    A1        1.93288   0.00681  -0.00105   0.02560   0.02452   1.95740
    A2        1.85450  -0.00462   0.00494  -0.04593  -0.04090   1.81360
    A3        1.83304  -0.00098   0.01322  -0.02551  -0.01244   1.82060
    A4        1.96265  -0.00138  -0.00533   0.00309  -0.00214   1.96051
    A5        1.95893  -0.00020  -0.00106   0.01040   0.00932   1.96825
    A6        1.91463   0.00021  -0.00973   0.02774   0.01811   1.93274
    A7        1.97372   0.01279   0.00785   0.02556   0.03349   2.00721
    A8        1.87039  -0.00284   0.00734  -0.02872  -0.02127   1.84912
    A9        1.91452  -0.00514  -0.00390  -0.00595  -0.01020   1.90433
   A10        1.91680  -0.00473  -0.00358  -0.00956  -0.01265   1.90415
   A11        1.91288  -0.00255  -0.00200   0.00452   0.00246   1.91534
   A12        1.87247   0.00197  -0.00661   0.01303   0.00630   1.87877
   A13        1.96535   0.00601   0.00373   0.01049   0.01420   1.97955
   A14        1.89315  -0.00113   0.00890  -0.01470  -0.00593   1.88722
   A15        1.90851  -0.00280   0.00167  -0.03106  -0.02952   1.87899
   A16        1.90251   0.00018   0.00202   0.01681   0.01905   1.92156
   A17        1.92799  -0.00350  -0.00828  -0.00699  -0.01528   1.91271
   A18        1.86318   0.00104  -0.00889   0.02652   0.01763   1.88081
   A19        2.11891  -0.00418  -0.00180  -0.00793  -0.00968   2.10923
   A20        2.11632   0.00638  -0.00179   0.02401   0.02226   2.13858
   A21        2.04737  -0.00219   0.00373  -0.01647  -0.01271   2.03466
   A22        2.17576   0.00028  -0.00706   0.02075   0.01369   2.18944
   A23        2.09552  -0.00165   0.00399  -0.01875  -0.01475   2.08076
   A24        2.01187   0.00136   0.00309  -0.00204   0.00106   2.01293
   A25        2.03797   0.00202   0.00467  -0.00763  -0.00297   2.03500
   A26        2.15728  -0.00124  -0.00323   0.00421   0.00097   2.15825
   A27        2.01708   0.00182   0.00289  -0.00004   0.00285   2.01992
   A28        2.10882  -0.00058   0.00034  -0.00416  -0.00382   2.10500
   A29        2.06955   0.00039  -0.00013   0.00173   0.00159   2.07114
   A30        2.10430  -0.00066   0.00120  -0.00626  -0.00506   2.09924
   A31        2.10933   0.00027  -0.00106   0.00453   0.00347   2.11280
   A32        2.07838   0.00074   0.00205  -0.00254  -0.00051   2.07787
   A33        2.09313   0.00005   0.00220  -0.00587  -0.00366   2.08947
   A34        2.11155  -0.00080  -0.00422   0.00827   0.00406   2.11561
    D1        1.01949   0.00323   0.01659   0.07208   0.08883   1.10833
    D2        3.13424   0.00328   0.02252   0.05626   0.07865  -3.07030
    D3       -1.12160   0.00137   0.01662   0.05276   0.06952  -1.05207
    D4        3.09139   0.00109   0.01864   0.03332   0.05207  -3.13973
    D5       -1.07705   0.00114   0.02457   0.01750   0.04188  -1.03517
    D6        0.95030  -0.00077   0.01868   0.01400   0.03276   0.98305
    D7       -1.02297   0.00015   0.00129   0.08075   0.08209  -0.94088
    D8        1.09177   0.00019   0.00722   0.06493   0.07191   1.16368
    D9        3.11912  -0.00171   0.00133   0.06143   0.06278  -3.10128
   D10        0.97301   0.00310   0.02381   0.05143   0.07509   1.04810
   D11       -1.13414  -0.00018   0.01220   0.03367   0.04592  -1.08823
   D12        3.12335   0.00072   0.01694   0.02711   0.04397  -3.11586
   D13       -1.11529   0.00159   0.01164   0.07776   0.08927  -1.02601
   D14        3.06075  -0.00168   0.00003   0.06001   0.06010   3.12085
   D15        1.03506  -0.00078   0.00477   0.05345   0.05816   1.09322
   D16        3.11501   0.00350   0.02274   0.06489   0.08764  -3.08053
   D17        1.00786   0.00023   0.01114   0.04713   0.05847   1.06633
   D18       -1.01783   0.00113   0.01587   0.04058   0.05653  -0.96130
   D19        1.51783  -0.00173  -0.01429   0.00509  -0.00927   1.50856
   D20       -1.58598  -0.00215  -0.02297   0.01808  -0.00497  -1.59095
   D21       -2.66358   0.00084   0.00114   0.00484   0.00612  -2.65746
   D22        0.51580   0.00042  -0.00754   0.01783   0.01042   0.52622
   D23       -0.62161   0.00020  -0.01297   0.04297   0.02994  -0.59167
   D24        2.55777  -0.00023  -0.02165   0.05596   0.03424   2.59201
   D25       -3.11706  -0.00005  -0.00459   0.01663   0.01207  -3.10499
   D26        0.03432  -0.00022  -0.00750   0.02071   0.01321   0.04753
   D27       -0.01182   0.00054   0.00375   0.00497   0.00875  -0.00307
   D28        3.13956   0.00037   0.00084   0.00905   0.00989  -3.13374
   D29        3.11497  -0.00009   0.00529  -0.01759  -0.01230   3.10267
   D30       -0.00991  -0.00010   0.00251  -0.00837  -0.00586  -0.01577
   D31        0.00967  -0.00045  -0.00304  -0.00524  -0.00820   0.00147
   D32       -3.11521  -0.00045  -0.00582   0.00397  -0.00176  -3.11697
   D33        0.00535  -0.00024  -0.00193  -0.00104  -0.00301   0.00234
   D34        3.13757  -0.00009   0.00085  -0.00504  -0.00419   3.13338
   D35        0.00322  -0.00013  -0.00057  -0.00262  -0.00325  -0.00003
   D36       -3.14028   0.00008   0.00012   0.00204   0.00216  -3.13812
   D37       -0.00472   0.00019   0.00109   0.00227   0.00337  -0.00134
   D38        3.13648   0.00025   0.00131   0.00411   0.00545  -3.14125
   D39        3.13887  -0.00003   0.00037  -0.00264  -0.00229   3.13659
   D40       -0.00312   0.00003   0.00058  -0.00080  -0.00021  -0.00332
   D41       -0.00214   0.00011   0.00083   0.00178   0.00266   0.00052
   D42        3.12255   0.00012   0.00366  -0.00768  -0.00396   3.11860
   D43        3.13985   0.00005   0.00061  -0.00006   0.00057   3.14042
   D44       -0.01864   0.00006   0.00344  -0.00952  -0.00605  -0.02469
         Item               Value     Threshold  Converged?
 Maximum Force            0.012790     0.000450     NO 
 RMS     Force            0.002529     0.000300     NO 
 Maximum Displacement     0.614995     0.001800     NO 
 RMS     Displacement     0.093588     0.001200     NO 
 Predicted change in Energy=-1.679820D-03
 GradGradGradGradGradGradGradGradGradGradGradGradGradGradGradGradGradGrad

                          Input orientation:                          
 ---------------------------------------------------------------------
 Center     Atomic      Atomic             Coordinates (Angstroms)
 Number     Number       Type             X           Y           Z
 ---------------------------------------------------------------------
      1         35           0        4.171022   -2.612492   -0.653050
      2          6           0        3.737549   -2.087082    1.199382
      3          6           0        3.190920   -0.676766    1.279945
      4          6           0        1.854289   -0.454911    0.551662
      5          6           0        0.734237   -1.319674    1.076776
      6          6           0       -0.040159   -0.907107    2.166274
      7          7           0       -1.020427   -1.611298    2.727258
      8          6           0       -1.272882   -2.807511    2.199161
      9          6           0       -0.574296   -3.336410    1.116230
     10          6           0        0.445423   -2.580107    0.545756
     11          1           0        4.681972   -2.195582    1.730047
     12          1           0        3.020743   -2.836448    1.530954
     13          1           0        3.056459   -0.465181    2.352280
     14          1           0        3.943206    0.022499    0.894832
     15          1           0        2.010948   -0.648583   -0.514382
     16          1           0        1.585778    0.603045    0.663751
     17          1           0        0.144056    0.074249    2.610591
     18          1           0       -2.080852   -3.370887    2.667403
     19          1           0       -0.827032   -4.320482    0.728515
     20          1           0        1.031347   -2.961272   -0.287185
 ---------------------------------------------------------------------
                    Distance matrix (angstroms):
                    1          2          3          4          5
     1  Br   0.000000
     2  C    1.973692   0.000000
     3  C    2.905875   1.514689   0.000000
     4  C    3.387291   2.574916   1.538245   0.000000
     5  C    4.058961   3.102229   2.547528   1.509330   0.000000
     6  C    5.347052   4.074100   3.358348   2.529899   1.398895
     7  N    6.275350   5.019871   4.550110   3.786085   2.426516
     8  C    6.148921   5.159747   5.030959   4.245960   2.738966
     9  C    5.115902   4.489960   4.612739   3.810486   2.404380
    10  C    3.913856   3.392402   3.420452   2.549784   1.397886
    11  H    2.472658   1.088721   2.175461   3.523396   4.096167
    12  H    2.478542   1.088715   2.180870   2.826897   2.781185
    13  H    3.858134   2.103240   1.101249   2.165074   2.783843
    14  H    3.064476   2.141349   1.096913   2.170083   3.483104
    15  H    2.922685   2.826201   2.147729   1.094760   2.147588
    16  H    4.330950   3.486230   2.143383   1.097239   2.143026
    17  H    5.838354   4.424483   3.408521   2.728387   2.154977
    18  H    7.119445   6.136532   6.080699   5.335224   3.829138
    19  H    5.459533   5.103449   5.452035   4.707802   3.400544
    20  H    3.180104   3.208990   3.512637   2.768166   2.154880
                    6          7          8          9         10
     6  C    0.000000
     7  N    1.330982   0.000000
     8  C    2.265441   1.331745   0.000000
     9  C    2.699891   2.402177   1.393017   0.000000
    10  C    2.379243   2.801117   2.395419   1.391856   0.000000
    11  H    4.914161   5.818347   6.004565   5.413558   4.415739
    12  H    3.673569   4.388985   4.345405   3.653254   2.769223
    13  H    3.133519   4.251493   4.924748   4.791050   3.814964
    14  H    4.283448   5.537574   6.076002   5.633748   4.373774
    15  H    3.385231   4.541396   4.775754   4.070233   2.702877
    16  H    2.679889   3.994205   4.707580   4.515525   3.383310
    17  H    1.092892   2.051999   3.237518   3.792326   3.376384
    18  H    3.238174   2.055296   1.090624   2.162646   3.392460
    19  H    3.786483   3.372248   2.156540   1.087472   2.163666
    20  H    3.374490   3.888325   3.393380   2.165270   1.087375
                   11         12         13         14         15
    11  H    0.000000
    12  H    1.791655   0.000000
    13  H    2.454333   2.509733   0.000000
    14  H    2.482588   3.070695   1.774347   0.000000
    15  H    3.816417   3.160670   3.056874   2.483920   0.000000
    16  H    4.307635   3.826392   2.480955   2.438832   1.770689
    17  H    5.149773   4.232387   2.973180   4.168938   3.711230
    18  H    6.927897   5.253895   5.910533   7.137672   5.854701
    19  H    5.988939   4.201385   5.708018   6.453241   4.804349
    20  H    4.240585   2.697944   4.159125   4.333472   2.521858
                   16         17         18         19         20
    16  H    0.000000
    17  H    2.479591   0.000000
    18  H    5.766362   4.101513   0.000000
    19  H    5.483335   4.878410   2.496614   0.000000
    20  H    3.730420   4.289380   4.310819   2.516480   0.000000
 Stoichiometry    C8H10BrN
 Framework group  C1[X(C8H10BrN)]
 Deg. of freedom    54
 Full point group                 C1      NOp   1
 Largest Abelian subgroup         C1      NOp   1
 Largest concise Abelian subgroup C1      NOp   1
                         Standard orientation:                         
 ---------------------------------------------------------------------
 Center     Atomic      Atomic             Coordinates (Angstroms)
 Number     Number       Type             X           Y           Z
 ---------------------------------------------------------------------
      1         35           0        2.538370   -0.495111   -0.059796
      2          6           0        1.305644    0.566945    1.057290
      3          6           0        0.691696    1.720803    0.291807
      4          6           0       -0.202159    1.313416   -0.891940
      5          6           0       -1.382396    0.463785   -0.487904
      6          6           0       -2.579794    1.052566   -0.067805
      7          7           0       -3.660432    0.394281    0.344983
      8          6           0       -3.580653   -0.935023    0.356449
      9          6           0       -2.446830   -1.643838   -0.034093
     10          6           0       -1.329921   -0.932902   -0.463449
     11          1           0        1.927149    0.903928    1.885232
     12          1           0        0.564570   -0.153323    1.399816
     13          1           0        0.088357    2.281771    1.022592
     14          1           0        1.491173    2.384887   -0.058972
     15          1           0        0.417211    0.776290   -1.617458
     16          1           0       -0.558382    2.233464   -1.372097
     17          1           0       -2.670626    2.141641   -0.076579
     18          1           0       -4.474986   -1.460183    0.693844
     19          1           0       -2.442064   -2.730857   -0.003076
     20          1           0       -0.415852   -1.443211   -0.757465
 ---------------------------------------------------------------------
 Rotational constants (GHZ):           2.2080677           0.4377637           0.3908471
 Standard basis: 6-31G(d,p) (6D, 7F)
 There are   215 symmetry adapted cartesian basis functions of A   symmetry.
 There are   215 symmetry adapted basis functions of A   symmetry.
   215 basis functions,   405 primitive gaussians,   215 cartesian basis functions
    50 alpha electrons       50 beta electrons
       nuclear repulsion energy       727.4619583254 Hartrees.
 NAtoms=   20 NActive=   20 NUniq=   20 SFac= 1.00D+00 NAtFMM=   60 NAOKFM=F Big=F
 Integral buffers will be    131072 words long.
 Raffenetti 2 integral format.
 Two-electron integral symmetry is turned on.
 Nuclear repulsion after empirical dispersion term =      727.4220269632 Hartrees.
 One-electron integrals computed using PRISM.
 NBasis=   215 RedAO= T EigKep=  7.36D-04  NBF=   215
 NBsUse=   215 1.00D-06 EigRej= -1.00D+00 NBFU=   215
 Initial guess from the checkpoint file:  "pyrd10_conf-2.chk"
 B after Tr=     0.000000   -0.000000    0.000000
         Rot=    0.999998    0.000705   -0.001043   -0.001714 Ang=   0.24 deg.
 ExpMin= 1.43D-01 ExpMax= 5.74D+05 ExpMxC= 5.74D+03 IAcc=3 IRadAn=         5 AccDes= 0.00D+00
 Harris functional with IExCor=  402 and IRadAn=       5 diagonalized for initial guess.
 HarFok:  IExCor=  402 AccDes= 0.00D+00 IRadAn=         5 IDoV= 1 UseB2=F ITyADJ=14
 ICtDFT=  3500011 ScaDFX=  1.000000  1.000000  1.000000  1.000000
 FoFCou: FMM=F IPFlag=           0 FMFlag=      100000 FMFlg1=           0
         NFxFlg=           0 DoJE=T BraDBF=F KetDBF=T FulRan=T
         wScrn=  0.000000 ICntrl=       500 IOpCl=  0 I1Cent=   200000004 NGrid=           0
         NMat0=    1 NMatS0=      1 NMatT0=    0 NMatD0=    1 NMtDS0=    0 NMtDT0=    0
 Petite list used in FoFCou.
 Requested convergence on RMS density matrix=1.00D-08 within 128 cycles.
 Requested convergence on MAX density matrix=1.00D-06.
 Requested convergence on             energy=1.00D-06.
 No special actions if energy rises.
 Integral accuracy reduced to 1.0D-05 until final iterations.
 Initial convergence to 1.0D-05 achieved.  Increase integral accuracy.
 SCF Done:  E(RB3LYP) =  -2937.39125555     A.U. after   13 cycles
            NFock= 13  Conv=0.87D-08     -V/T= 2.0066
 Calling FoFJK, ICntrl=      2127 FMM=F ISym2X=0 I1Cent= 0 IOpClX= 0 NMat=1 NMatS=1 NMatT=0.
 ***** Axes restored to original set *****
 -------------------------------------------------------------------
 Center     Atomic                   Forces (Hartrees/Bohr)
 Number     Number              X              Y              Z
 -------------------------------------------------------------------
      1       35          -0.001234096   -0.000538527   -0.005121988
      2        6           0.000957255   -0.001696347    0.000746849
      3        6           0.001071246    0.000235772    0.003699440
      4        6          -0.000028085    0.001150059   -0.000675440
      5        6           0.000990943   -0.000671999    0.000085998
      6        6           0.003717091    0.010369485    0.001770158
      7        7          -0.000560443    0.001828122    0.001944186
      8        6          -0.005891636   -0.007667741    0.000632812
      9        6          -0.000505682   -0.003137312   -0.001890325
     10        6           0.002645638   -0.000441540   -0.000977251
     11        1          -0.001249902   -0.000062666    0.001822175
     12        1           0.000437339    0.000296091    0.001952317
     13        1           0.000469482    0.001175689   -0.001449772
     14        1          -0.001551681   -0.000179466    0.000798677
     15        1          -0.000909677    0.000766295   -0.000030865
     16        1          -0.000239602   -0.001455068   -0.001361825
     17        1           0.000579138   -0.001070476   -0.001097795
     18        1           0.001316716   -0.000304260   -0.001316394
     19        1           0.000410362    0.001425465    0.000534372
     20        1          -0.000424406   -0.000021575   -0.000065326
 -------------------------------------------------------------------
 Cartesian Forces:  Max     0.010369485 RMS     0.002339050

 GradGradGradGradGradGradGradGradGradGradGradGradGradGradGradGradGradGrad
 Berny optimization.
 Using GEDIIS/GDIIS optimizer.
 FormGI is forming the generalized inverse of G from B-inverse, IUseBI=4.
 Internal  Forces:  Max     0.008689096 RMS     0.001868226
 Search for a local minimum.
 Step number   3 out of a maximum of  108
 All quantities printed in internal units (Hartrees-Bohrs-Radians)
 Mixed Optimization -- RFO/linear search
 Update second derivatives using D2CorX and points    1    2    3
[...]
   XZ=    -2.2147   YZ=     0.4012   ZZ=    29.8614
   Eigenvalues:    25.0058    29.1787    31.5669
     16  H    Isotropic =    29.0925   Anisotropy =     9.5213
   XX=    28.7088   YX=    -1.5551   ZX=     2.1478
   XY=    -2.8432   YY=    31.0318   ZY=    -3.8099
   XZ=     1.8564   YZ=    -5.2671   ZZ=    27.5369
   Eigenvalues:    24.3733    27.4642    35.4400
     17  H    Isotropic =    22.4543   Anisotropy =    10.8207
   XX=    29.0330   YX=    -1.6057   ZX=    -2.0672
   XY=    -1.6259   YY=    18.8911   ZY=     0.1872
   XZ=    -1.9343   YZ=    -0.1332   ZZ=    19.4390
   Eigenvalues:    18.5023    19.1926    29.6681
     18  H    Isotropic =    22.4093   Anisotropy =     7.2087
   XX=    24.2570   YX=    -3.4497   ZX=    -1.0904
   XY=    -2.8109   YY=    23.4304   ZY=     0.6038
   XZ=    -0.9703   YZ=     0.9327   ZZ=    19.5405
   Eigenvalues:    19.3193    20.6935    27.2151
     19  H    Isotropic =    23.9453   Anisotropy =     7.7418
   XX=    28.0319   YX=     2.4989   ZX=    -1.8113
   XY=     1.5446   YY=    21.8626   ZY=    -0.2880
   XZ=    -1.8195   YZ=    -0.3897   ZZ=    21.9412
   Eigenvalues:    21.1485    21.5808    29.1064
     20  H    Isotropic =    22.9311   Anisotropy =    11.7165
   XX=    24.6093   YX=     5.8476   ZX=     1.1408
   XY=     5.0022   YY=    25.8628   ZY=    -0.0711
   XZ=     0.8883   YZ=     0.2635   ZZ=    18.3211
   Eigenvalues:    18.0054    20.0457    30.7421
 End of Minotr F.D. properties file   721 does not exist.
 End of Minotr F.D. properties file   722 does not exist.
 End of Minotr F.D. properties file   788 does not exist.

 **********************************************************************

            Population analysis using the SCF Density.

 **********************************************************************

 Orbital symmetries:
       Occupied  (A) (A) (A) (A) (A) (A) (A) (A) (A) (A) (A) (A)
                 (A) (A) (A) (A) (A) (A) (A) (A) (A) (A) (A) (A)
                 (A) (A) (A) (A) (A) (A) (A) (A) (A) (A) (A) (A)
                 (A) (A) (A) (A) (A) (A) (A) (A) (A) (A) (A) (A)
                 (A) (A)
       Virtual   (A) (A) (A) (A) (A) (A) (A) (A) (A) (A) (A) (A)
                 (A) (A) (A) (A) (A) (A) (A) (A) (A) (A) (A) (A)
                 (A) (A) (A) (A) (A) (A) (A) (A) (A) (A) (A) (A)
                 (A) (A) (A) (A) (A) (A) (A) (A) (A) (A) (A) (A)
                 (A) (A) (A) (A) (A) (A) (A) (A) (A) (A) (A) (A)
                 (A) (A) (A) (A) (A) (A) (A) (A) (A) (A) (A) (A)
                 (A) (A) (A) (A) (A) (A) (A) (A) (A) (A) (A) (A)
                 (A) (A) (A) (A) (A) (A) (A) (A) (A) (A) (A) (A)
                 (A) (A) (A) (A) (A) (A) (A) (A) (A) (A) (A) (A)
                 (A) (A) (A) (A) (A) (A) (A) (A) (A) (A) (A) (A)
                 (A) (A) (A) (A) (A) (A) (A) (A) (A) (A) (A) (A)
                 (A) (A) (A) (A) (A) (A) (A) (A) (A) (A) (A) (A)
                 (A) (A) (A) (A) (A) (A) (A) (A) (A) (A) (A) (A)
                 (A) (A) (A) (A) (A) (A) (A) (A) (A) (A) (A) (A)
                 (A) (A) (A) (A) (A) (A) (A) (A) (A) (A) (A) (A)
                 (A) (A) (A) (A) (A) (A) (A) (A) (A) (A) (A) (A)
                 (A) (A) (A) (A) (A) (A) (A) (A) (A) (A) (A) (A)
                 (A) (A) (A) (A) (A) (A) (A) (A) (A) (A) (A) (A)
                 (A) (A) (A) (A) (A) (A) (A) (A) (A) (A) (A) (A)
                 (A) (A) (A) (A) (A) (A) (A) (A) (A) (A) (A) (A)
                 (A) (A) (A) (A) (A) (A) (A) (A) (A) (A) (A) (A)
                 (A) (A) (A) (A) (A) (A) (A) (A) (A) (A) (A) (A)
                 (A) (A) (A) (A) (A) (A) (A) (A) (A) (A) (A) (A)
                 (A) (A) (A) (A) (A) (A) (A) (A) (A) (A) (A) (A)
                 (A) (A) (A) (A) (A) (A) (A) (A) (A) (A) (A) (A)
                 (A) (A) (A) (A) (A) (A) (A) (A) (A) (A) (A) (A)
                 (A) (A) (A) (A) (A) (A) (A) (A) (A) (A) (A) (A)
                 (A) (A) (A) (A) (A) (A) (A) (A) (A) (A) (A) (A)
                 (A)
 The electronic state is 1-A.
 Alpha  occ. eigenvalues -- -485.36642 -63.35136 -57.17075 -57.16845 -57.16843
 Alpha  occ. eigenvalues --  -14.75101 -10.60347 -10.57741 -10.57690 -10.56138
 Alpha  occ. eigenvalues --  -10.56130 -10.56044 -10.55352 -10.55329  -9.01761
 Alpha  occ. eigenvalues --   -6.84140  -6.83301  -6.83294  -2.87507  -2.87207
 Alpha  occ. eigenvalues --   -2.87201  -2.86417  -2.86417  -1.05328  -0.94432
 Alpha  occ. eigenvalues --   -0.90637  -0.87768  -0.83873  -0.77842  -0.71948
 Alpha  occ. eigenvalues --   -0.71006  -0.66789  -0.59922  -0.56992  -0.55962
 Alpha  occ. eigenvalues --   -0.53213  -0.52809  -0.49585  -0.47992  -0.47301
 Alpha  occ. eigenvalues --   -0.45774  -0.45137  -0.43646  -0.41027  -0.40582
 Alpha  occ. eigenvalues --   -0.34678  -0.34271  -0.34240  -0.32488  -0.31278
 Alpha virt. eigenvalues --   -0.00182   0.00944   0.02781   0.06281   0.08667
 Alpha virt. eigenvalues --    0.09344   0.10179   0.10468   0.12167   0.12586
 Alpha virt. eigenvalues --    0.14124   0.14177   0.15655   0.16102   0.17132
 Alpha virt. eigenvalues --    0.17887   0.19905   0.20689   0.22173   0.22826
 Alpha virt. eigenvalues --    0.23371   0.24081   0.25424   0.25989   0.26749
 Alpha virt. eigenvalues --    0.26964   0.28088   0.28380   0.29204   0.30217
 Alpha virt. eigenvalues --    0.31109   0.31847   0.32749   0.33940   0.34651
 Alpha virt. eigenvalues --    0.35698   0.36458   0.37412   0.38178   0.39067
 Alpha virt. eigenvalues --    0.40436   0.41041   0.42366   0.43316   0.43889
 Alpha virt. eigenvalues --    0.44031   0.44744   0.45092   0.45637   0.46757
 Alpha virt. eigenvalues --    0.47265   0.47858   0.48893   0.49391   0.49735
 Alpha virt. eigenvalues --    0.50436   0.50506   0.52407   0.53695   0.54554
 Alpha virt. eigenvalues --    0.55156   0.56836   0.58439   0.59075   0.60680
 Alpha virt. eigenvalues --    0.62067   0.63543   0.65475   0.66911   0.67641
 Alpha virt. eigenvalues --    0.68352   0.70391   0.71012   0.72693   0.73535
 Alpha virt. eigenvalues --    0.75882   0.77010   0.78318   0.79461   0.81442
 Alpha virt. eigenvalues --    0.83936   0.84175   0.84615   0.87540   0.87916
 Alpha virt. eigenvalues --    0.91243   0.91795   0.94743   0.95915   0.97353
 Alpha virt. eigenvalues --    0.99311   1.01028   1.03474   1.04532   1.06656
 Alpha virt. eigenvalues --    1.08622   1.10296   1.11615   1.11909   1.14623
 Alpha virt. eigenvalues --    1.15710   1.18625   1.19283   1.20387   1.22702
 Alpha virt. eigenvalues --    1.24169   1.25564   1.27196   1.28625   1.29684
 Alpha virt. eigenvalues --    1.31858   1.32709   1.35086   1.37224   1.39975
 Alpha virt. eigenvalues --    1.40389   1.41656   1.42760   1.44139   1.44331
 Alpha virt. eigenvalues --    1.44467   1.46503   1.48574   1.50239   1.51613
 Alpha virt. eigenvalues --    1.52474   1.55132   1.56146   1.57607   1.57970
 Alpha virt. eigenvalues --    1.58516   1.60540   1.61571   1.62048   1.62558
 Alpha virt. eigenvalues --    1.63256   1.63639   1.65114   1.65854   1.66460
 Alpha virt. eigenvalues --    1.67339   1.68153   1.68496   1.69754   1.71620
 Alpha virt. eigenvalues --    1.72047   1.73890   1.75013   1.76015   1.77333
 Alpha virt. eigenvalues --    1.79078   1.79682   1.81682   1.83905   1.85380
 Alpha virt. eigenvalues --    1.87301   1.87697   1.92248   1.93733   1.94764
 Alpha virt. eigenvalues --    1.96305   1.96820   1.98868   1.99824   2.01535
 Alpha virt. eigenvalues --    2.04163   2.05897   2.08452   2.11658   2.15628
 Alpha virt. eigenvalues --    2.16724   2.17289   2.19584   2.23173   2.23931
 Alpha virt. eigenvalues --    2.27251   2.29374   2.30752   2.32791   2.34918
 Alpha virt. eigenvalues --    2.36437   2.38083   2.41670   2.42133   2.43661
 Alpha virt. eigenvalues --    2.45724   2.46473   2.50467   2.51651   2.53259
 Alpha virt. eigenvalues --    2.55729   2.56664   2.58024   2.59331   2.60892
 Alpha virt. eigenvalues --    2.61560   2.62487   2.64433   2.65020   2.65742
 Alpha virt. eigenvalues --    2.66714   2.67635   2.70056   2.71805   2.72374
 Alpha virt. eigenvalues --    2.74697   2.75639   2.76473   2.78513   2.79475
 Alpha virt. eigenvalues --    2.81611   2.82534   2.83791   2.84669   2.86995
 Alpha virt. eigenvalues --    2.88452   2.90615   2.94824   2.95487   2.96935
 Alpha virt. eigenvalues --    2.98736   3.00056   3.01710   3.04795   3.05671
 Alpha virt. eigenvalues --    3.08050   3.08822   3.10814   3.12406   3.13582
 Alpha virt. eigenvalues --    3.14615   3.16453   3.17215   3.19161   3.19825
 Alpha virt. eigenvalues --    3.20618   3.21879   3.22849   3.25122   3.25522
 Alpha virt. eigenvalues --    3.27301   3.28313   3.30010   3.31269   3.32648
 Alpha virt. eigenvalues --    3.34218   3.34380   3.35261   3.35712   3.38776
 Alpha virt. eigenvalues --    3.39570   3.41941   3.42447   3.44472   3.45433
 Alpha virt. eigenvalues --    3.46783   3.48480   3.49174   3.50858   3.51277
 Alpha virt. eigenvalues --    3.54144   3.57318   3.60366   3.64235   3.66635
 Alpha virt. eigenvalues --    3.68986   3.71069   3.73459   3.78855   3.80050
 Alpha virt. eigenvalues --    3.80619   3.83543   3.85074   3.87895   3.87905
 Alpha virt. eigenvalues --    3.91502   3.94672   3.97852   4.01556   4.03661
 Alpha virt. eigenvalues --    4.05261   4.06728   4.10506   4.11202   4.12583
 Alpha virt. eigenvalues --    4.12861   4.14614   4.14960   4.17741   4.21928
 Alpha virt. eigenvalues --    4.25827   4.27060   4.27687   4.29521   4.33587
 Alpha virt. eigenvalues --    4.35350   4.37373   4.40442   4.41219   4.47592
 Alpha virt. eigenvalues --    4.49791   4.50085   4.51910   4.56098   4.59229
 Alpha virt. eigenvalues --    4.62295   4.65149   4.72766   4.75759   4.79904
 Alpha virt. eigenvalues --    4.82802   4.84862   4.86614   4.92223   4.93177
 Alpha virt. eigenvalues --    5.00661   5.05363   5.13388   5.16928   5.20012
 Alpha virt. eigenvalues --    5.27046   5.33095   5.41111   5.52617   5.57947
 Alpha virt. eigenvalues --    5.72525   5.94907   7.72753  22.35605  22.44731
 Alpha virt. eigenvalues --   22.56884  22.63100  22.75400  22.85708  22.89499
 Alpha virt. eigenvalues --   23.20549  32.51377
          Condensed to atoms (all electrons):
               1          2          3          4          5          6
     1  Br  35.034359   0.243027  -0.047323   0.030474  -0.034408  -0.000823
     2  C    0.243027   5.013552   0.250220  -0.063957   0.031732   0.000058
     3  C   -0.047323   0.250220   5.247517   0.183828  -0.003631  -0.008830
     4  C    0.030474  -0.063957   0.183828   5.425629   0.104721  -0.034979
     5  C   -0.034408   0.031732  -0.003631   0.104721   5.308842   0.489701
     6  C   -0.000823   0.000058  -0.008830  -0.034979   0.489701   4.858875
     7  N    0.000000  -0.000056   0.000163   0.007326  -0.047393   0.518387
     8  C   -0.000134   0.000244  -0.000195  -0.001151  -0.040845  -0.111791
     9  C    0.003151   0.001572  -0.000835   0.013467  -0.063014  -0.017748
    10  C   -0.000106  -0.000407  -0.017602  -0.042265   0.371756  -0.051854
    11  H   -0.041049   0.438379  -0.053697   0.011846  -0.001936  -0.000295
    12  H   -0.043014   0.417268  -0.030386  -0.021310   0.016108   0.000308
    13  H    0.007877  -0.044044   0.405025  -0.023174  -0.009289  -0.003990
    14  H   -0.001930  -0.037469   0.435815  -0.061619   0.012379   0.000630
    15  H   -0.002650  -0.007784  -0.039244   0.451334  -0.067055   0.000758
    16  H    0.001403   0.007665  -0.055157   0.438621  -0.045594  -0.002957
    17  H    0.000012   0.000109  -0.001589   0.006015  -0.091016   0.443835
    18  H   -0.000000  -0.000007   0.000013   0.000054  -0.000863   0.006243
    19  H    0.000106   0.000006   0.000006   0.000116   0.012107  -0.001991
    20  H    0.009015  -0.000215  -0.001744   0.002833  -0.062189   0.001970
               7          8          9         10         11         12
     1  Br   0.000000  -0.000134   0.003151  -0.000106  -0.041049  -0.043014
     2  C   -0.000056   0.000244   0.001572  -0.000407   0.438379   0.417268
     3  C    0.000163  -0.000195  -0.000835  -0.017602  -0.053697  -0.030386
     4  C    0.007326  -0.001151   0.013467  -0.042265   0.011846  -0.021310
     5  C   -0.047393  -0.040845  -0.063014   0.371756  -0.001936   0.016108
     6  C    0.518387  -0.111791  -0.017748  -0.051854  -0.000295   0.000308
     7  N    6.421370   0.494324  -0.044057  -0.068800  -0.000006   0.000175
     8  C    0.494324   4.829073   0.495313  -0.023559  -0.000001  -0.000035
     9  C   -0.044057   0.495313   4.984516   0.459485   0.000027  -0.000142
    10  C   -0.068800  -0.023559   0.459485   5.181650   0.001367  -0.013617
    11  H   -0.000006  -0.000001   0.000027   0.001367   0.496547  -0.021775
    12  H    0.000175  -0.000035  -0.000142  -0.013617  -0.021775   0.499867
    13  H   -0.000161   0.000113  -0.000157   0.005011  -0.004915  -0.000337
    14  H    0.000014  -0.000013   0.000040  -0.000998  -0.003730   0.005269
    15  H   -0.000390   0.000314  -0.000794   0.002012  -0.000627   0.002498
    16  H    0.000143   0.000053  -0.000706   0.006022   0.000004  -0.000607
    17  H   -0.031633   0.009214  -0.002672   0.006572   0.000006  -0.000077
    18  H   -0.034114   0.433533  -0.067694   0.002696  -0.000000   0.000011
    19  H    0.007251  -0.030771   0.413087  -0.054415   0.000000  -0.000055
    20  H   -0.001893   0.002829  -0.019429   0.427007   0.000286  -0.002952
              13         14         15         16         17         18
     1  Br   0.007877  -0.001930  -0.002650   0.001403   0.000012  -0.000000
     2  C   -0.044044  -0.037469  -0.007784   0.007665   0.000109  -0.000007
     3  C    0.405025   0.435815  -0.039244  -0.055157  -0.001589   0.000013
     4  C   -0.023174  -0.061619   0.451334   0.438621   0.006015   0.000054
     5  C   -0.009289   0.012379  -0.067055  -0.045594  -0.091016  -0.000863
     6  C   -0.003990   0.000630   0.000758  -0.002957   0.443835   0.006243
     7  N   -0.000161   0.000014  -0.000390   0.000143  -0.031633  -0.034114
     8  C    0.000113  -0.000013   0.000314   0.000053   0.009214   0.433533
     9  C   -0.000157   0.000040  -0.000794  -0.000706  -0.002672  -0.067694
    10  C    0.005011  -0.000998   0.002012   0.006022   0.006572   0.002696
    11  H   -0.004915  -0.003730  -0.000627   0.000004   0.000006  -0.000000
    12  H   -0.000337   0.005269   0.002498  -0.000607  -0.000077   0.000011
    13  H    0.522484  -0.015850   0.003950  -0.000794   0.000650  -0.000001
    14  H   -0.015850   0.508387   0.001335  -0.005841  -0.000095   0.000000
    15  H    0.003950   0.001335   0.466460  -0.008583  -0.000029  -0.000002
    16  H   -0.000794  -0.005841  -0.008583   0.498508   0.000863  -0.000001
    17  H    0.000650  -0.000095  -0.000029   0.000863   0.515733  -0.000033
    18  H   -0.000001   0.000000  -0.000002  -0.000001  -0.000033   0.516538
    19  H   -0.000003  -0.000001  -0.000079   0.000011   0.000093  -0.000400
    20  H   -0.000214  -0.000053  -0.001301   0.000364  -0.000128  -0.000224
              19         20
     1  Br   0.000106   0.009015
     2  C    0.000006  -0.000215
     3  C    0.000006  -0.001744
     4  C    0.000116   0.002833
     5  C    0.012107  -0.062189
     6  C   -0.001991   0.001970
     7  N    0.007251  -0.001893
     8  C   -0.030771   0.002829
     9  C    0.413087  -0.019429
    10  C   -0.054415   0.427007
    11  H    0.000000   0.000286
    12  H   -0.000055  -0.002952
    13  H   -0.000003  -0.000214
    14  H   -0.000001  -0.000053
    15  H   -0.000079  -0.001301
    16  H    0.000011   0.000364
    17  H    0.000093  -0.000128
    18  H   -0.000400  -0.000224
    19  H    0.515293  -0.004783
    20  H   -0.004783   0.459834
 Mulliken charges:
               1
     1  Br  -0.157989
     2  C   -0.249893
     3  C   -0.262352
     4  C   -0.427810
     5  C    0.119887
     6  C   -0.085507
     7  N   -0.220651
     8  C   -0.056515
     9  C   -0.153410
    10  C   -0.189958
    11  H    0.179567
    12  H    0.192800
    13  H    0.157818
    14  H    0.163730
    15  H    0.199876
    16  H    0.166581
    17  H    0.144168
    18  H    0.144252
    19  H    0.144419
    20  H    0.190986
 Sum of Mulliken charges =  -0.00000
 Mulliken charges with hydrogens summed into heavy atoms:
               1
     1  Br  -0.157989
     2  C    0.122474
     3  C    0.059197
     4  C   -0.061354
     5  C    0.119887
     6  C    0.058661
     7  N   -0.220651
     8  C    0.087737
     9  C   -0.008991
    10  C    0.001029
 Electronic spatial extent (au):  <R**2>=           2535.1551
 Charge=             -0.0000 electrons
 Dipole moment (field-independent basis, Debye):
    X=              0.9944    Y=              0.5430    Z=              0.5283  Tot=              1.2501
 Quadrupole moment (field-independent basis, Debye-Ang):
   XX=            -86.9921   YY=            -66.2770   ZZ=            -72.7271
   XY=              6.4630   XZ=              1.5462   YZ=              0.0422
 Traceless Quadrupole moment (field-independent basis, Debye-Ang):
   XX=            -11.6600   YY=              9.0551   ZZ=              2.6049
   XY=              6.4630   XZ=              1.5462   YZ=              0.0422
 Octapole moment (field-independent basis, Debye-Ang**2):
  XXX=            114.1258  YYY=            -14.5471  ZZZ=              1.4110  XYY=             16.4102
  XXY=            -24.2064  XXZ=             -0.9649  XZZ=             35.4175  YZZ=             -2.2695
  YYZ=             -1.3391  XYZ=              8.3448
 Hexadecapole moment (field-independent basis, Debye-Ang**3):
 XXXX=          -2540.0399 YYYY=           -573.3969 ZZZZ=           -215.7235 XXXY=             65.4374
 XXXZ=             -8.3444 YYYX=            -29.9654 YYYZ=             -1.5449 ZZZX=             -2.5654
 ZZZY=              4.6537 XXYY=           -449.2526 XXZZ=           -428.5257 YYZZ=           -139.3104
 XXYZ=            -10.1596 YYXZ=             -6.7772 ZZXY=            -12.9660
 N-N= 7.321910019836D+02 E-N=-8.465305978824D+03  KE= 2.934430606565D+03
 Unable to Open any file for archive entry.
 1\1\GINC-COMPUTE-0-32\SP\RM062X\def2TZVP\C8H10Br1N1\ZTAN64\14-Aug-2024
 \0\\# M062X/def2tzvp int=(grid=ultrafine) nmr=giao guess=read geom=che
 ck\\pyrd10.xyz\\0,1\Br,0,3.9784030133,-2.6654429732,-0.7020826767\C,0,
 3.7220433534,-2.107561351,1.1878225665\C,0,3.2070010802,-0.6827920748,
 1.2868747119\C,0,1.8603216643,-0.4319181335,0.5806133233\C,0,0.7426509
 025,-1.3045034913,1.0960691102\C,0,-0.0765949993,-0.8761734056,2.14826
 79556\N,0,-1.0644393614,-1.5989350773,2.6857495513\C,0,-1.2782021959,-
 2.8174996632,2.1737960182\C,0,-0.5288394647,-3.3502297967,1.125139439\
 C,0,0.4965679417,-2.5817294862,0.5792260008\H,0,4.7003517867,-2.226925
 6848,1.6501859821\H,0,3.0239539411,-2.8348301797,1.5994711081\H,0,3.10
 35225903,-0.4591438158,2.3578063038\H,0,3.9578949678,0.004613442,0.883
 8087043\H,0,1.9978421436,-0.5964722659,-0.4922780236\H,0,1.595312817,0
 .6220715668,0.713990441\H,0,0.0755707879,0.1152941243,2.5750670664\H,0
 ,-2.0862880508,-3.3918236349,2.6222142749\H,0,-0.7459169112,-4.3432620
 945,0.7449665836\H,0,1.1111439934,-2.964736005,-0.2305084406\\Version=
 ES64L-G16RevC.01\State=1-A\HF=-2939.7908373\RMSD=1.230e-09\Dipole=0.48
 2197,0.0669192,0.0699701\Quadrupole=-3.0421314,5.0791036,-2.0369722,5.
 0576539,6.3944805,-0.6735295\PG=C01 [X(C8H10Br1N1)]\\@
 The archive entry for this job was punched.


 THERE'S NOTHING SO GREAT AS THE GREAT OUTDOORS.

                                       -- ZIGGY
 Job cpu time:       0 days  0 hours 23 minutes 53.1 seconds.
 Elapsed time:       0 days  0 hours  1 minutes 35.9 seconds.
 File lengths (MBytes):  RWF=     88 Int=      0 D2E=      0 Chk=     15 Scr=      1
 Normal termination of Gaussian 16 at Wed Aug 14 18:54:44 2024.
 
 
-----Kestrel cluster job statistics-----
Time info:

real	8m57.993s
user	140m11.852s
sys	0m16.549s
 
Disk space usage:
15M	/scratch/362949.kestrel.chem.wisc.edu
