 Entering Gaussian System, Link 0=/share/apps/gaussian/g16/g16
 Initial command:
 /share/apps/gaussian/g16/l1.exe "/scratch/362952.kestrel.chem.wisc.edu/Gau-257407.inp" -scrdir="/scratch/362952.kestrel.chem.wisc.edu/"
 Entering Link 1 = /share/apps/gaussian/g16/l1.exe PID=    257411.
  
 Copyright (c) 1988-2019, Gaussian, Inc.  All Rights Reserved.
  
 This is part of the Gaussian(R) 16 program.  It is based on
 the Gaussian(R) 09 system (copyright 2009, Gaussian, Inc.),
 the Gaussian(R) 03 system (copyright 2003, Gaussian, Inc.),
 the Gaussian(R) 98 system (copyright 1998, Gaussian, Inc.),
 the Gaussian(R) 94 system (copyright 1995, Gaussian, Inc.),
 the Gaussian 92(TM) system (copyright 1992, Gaussian, Inc.),
 the Gaussian 90(TM) system (copyright 1990, Gaussian, Inc.),
 the Gaussian 88(TM) system (copyright 1988, Gaussian, Inc.),
 the Gaussian 86(TM) system (copyright 1986, Carnegie Mellon
 University), and the Gaussian 82(TM) system (copyright 1983,
 Carnegie Mellon University). Gaussian is a federally registered
 trademark of Gaussian, Inc.
  
 This software contains proprietary and confidential information,
 including trade secrets, belonging to Gaussian, Inc.
  
 This software is provided under written license and may be
 used, copied, transmitted, or stored only in accord with that
 written license.
  
 The following legend is applicable only to US Government
 contracts under FAR:
  
                    RESTRICTED RIGHTS LEGEND
  
 Use, reproduction and disclosure by the US Government is
 subject to restrictions as set forth in subparagraphs (a)
 and (c) of the Commercial Computer Software - Restricted
 Rights clause in FAR 52.227-19.
  
 Gaussian, Inc.
 340 Quinnipiac St., Bldg. 40, Wallingford CT 06492
  
  
 ---------------------------------------------------------------
 Warning -- This program may not be used in any manner that
 competes with the business of Gaussian, Inc. or will provide
 assistance to any competitor of Gaussian, Inc.  The licensee
 of this program is prohibited from giving any competitor of
 Gaussian, Inc. access to this program.  By using this program,
 the user acknowledges that Gaussian, Inc. is engaged in the
 business of creating and licensing software in the field of
 computational chemistry and represents and warrants to the
 licensee that it is not a competitor of Gaussian, Inc. and that
 it will not use this program in any manner prohibited above.
 ---------------------------------------------------------------
  

 Cite this work as:
 Gaussian 16, Revision C.01,
 M. J. Frisch, G. W. Trucks, H. B. Schlegel, G. E. Scuseria, 
 M. A. Robb, J. R. Cheeseman, G. Scalmani, V. Barone, 
 G. A. Petersson, H. Nakatsuji, X. Li, M. Caricato, A. V. Marenich, 
 J. Bloino, B. G. Janesko, R. Gomperts, B. Mennucci, H. P. Hratchian, 
 J. V. Ortiz, A. F. Izmaylov, J. L. Sonnenberg, D. Williams-Young, 
 F. Ding, F. Lipparini, F. Egidi, J. Goings, B. Peng, A. Petrone, 
 T. Henderson, D. Ranasinghe, V. G. Zakrzewski, J. Gao, N. Rega, 
 G. Zheng, W. Liang, M. Hada, M. Ehara, K. Toyota, R. Fukuda, 
 J. Hasegawa, M. Ishida, T. Nakajima, Y. Honda, O. Kitao, H. Nakai, 
 T. Vreven, K. Throssell, J. A. Montgomery, Jr., J. E. Peralta, 
 F. Ogliaro, M. J. Bearpark, J. J. Heyd, E. N. Brothers, K. N. Kudin, 
 V. N. Staroverov, T. A. Keith, R. Kobayashi, J. Normand, 
 K. Raghavachari, A. P. Rendell, J. C. Burant, S. S. Iyengar, 
 J. Tomasi, M. Cossi, J. M. Millam, M. Klene, C. Adamo, R. Cammi, 
 J. W. Ochterski, R. L. Martin, K. Morokuma, O. Farkas, 
 J. B. Foresman, and D. J. Fox, Gaussian, Inc., Wallingford CT, 2019.
 
 ******************************************
 Gaussian 16:  ES64L-G16RevC.01  3-Jul-2019
                14-Aug-2024 
 ******************************************
 %nprocs=16
 Will use up to   16 processors via shared memory.
 %mem=16GB
 %chk=pyrd10_conf-5.chk
 ----------------------------------------------------------------------
 # B3LYP/6-31G(d,p) symmetry=loose empiricaldispersion=GD3BJ int=(grid=
 ultrafine) opt freq=noraman
 ----------------------------------------------------------------------
 1/18=20,19=15,26=4,38=1/1,3;
 2/9=110,12=2,17=4,18=3,40=1/2;
 3/5=1,6=6,7=101,11=2,25=1,30=1,71=1,74=-5,75=-5,124=41/1,2,3;
 4//1;
 5/5=2,38=5/2;
 6/7=2,8=2,9=2,10=2,28=1/1;
 7//1,2,3,16;
 1/18=20,19=15,26=4/3(2);
 2/9=110/2;
 99//99;
 2/9=110/2;
 3/5=1,6=6,7=101,11=2,25=1,30=1,71=1,74=-5,75=-5,124=41/1,2,3;
 4/5=5,16=3,69=1/1;
 5/5=2,38=5/2;
 7//1,2,3,16;
 1/18=20,19=15,26=4/3(-5);
 2/9=110/2;
 6/7=2,8=2,9=2,10=2,19=2,28=1/1;
 99/9=1/99;
 ----------
 pyrd10.xyz
 ----------
 Symbolic Z-matrix:
 Charge =  0 Multiplicity = 1
 Br                    5.4084   -1.2224    1.3013 
 C                     4.1914   -1.0672   -0.2679 
 C                     2.7252   -1.0144    0.1932 
 C                     2.2419   -2.3076    0.8776 
 C                     0.7814   -2.2289    1.2906 
 C                     0.419    -1.7739    2.5632 
 N                    -0.8712   -1.6813    2.9756 
 C                    -1.8438   -2.0509    2.1044 
 C                    -1.57     -2.5156    0.8163 
 C                    -0.2374   -2.6039    0.4077 
 H                     4.4686   -0.1594   -0.8056 
 H                     4.3811   -1.9145   -0.9284 
 H                     2.0908   -0.8111   -0.6712 
 H                     2.5911   -0.1667    0.8678 
 H                     2.8471   -2.5245    1.7598 
 H                     2.38     -3.1662    0.2182 
 H                     1.1692   -1.4705    3.2795 
 H                    -2.8607   -1.9675    2.4608 
 H                    -2.3709   -2.8012    0.1502 
 H                    -0.0011   -2.9601   -0.5846 
 

 GradGradGradGradGradGradGradGradGradGradGradGradGradGradGradGradGradGrad
 Berny optimization.
 Initialization pass.
                           ----------------------------
                           !    Initial Parameters    !
                           ! (Angstroms and Degrees)  !
 --------------------------                            --------------------------
 ! Name  Definition              Value          Derivative Info.                !
 --------------------------------------------------------------------------------
 ! R1    R(1,2)                  1.9919         estimate D2E/DX2                !
 ! R2    R(2,3)                  1.5379         estimate D2E/DX2                !
 ! R3    R(2,11)                 1.0909         estimate D2E/DX2                !
 ! R4    R(2,12)                 1.0909         estimate D2E/DX2                !
 ! R5    R(3,4)                  1.5409         estimate D2E/DX2                !
 ! R6    R(3,13)                 1.0913         estimate D2E/DX2                !
 ! R7    R(3,14)                 1.0916         estimate D2E/DX2                !
 ! R8    R(4,5)                  1.5198         estimate D2E/DX2                !
 ! R9    R(4,15)                 1.0916         estimate D2E/DX2                !
 ! R10   R(4,16)                 1.0914         estimate D2E/DX2                !
 ! R11   R(5,6)                  1.3992         estimate D2E/DX2                !
 ! R12   R(5,10)                 1.3993         estimate D2E/DX2                !
 ! R13   R(6,7)                  1.3577         estimate D2E/DX2                !
 ! R14   R(6,17)                 1.0807         estimate D2E/DX2                !
 ! R15   R(7,8)                  1.357          estimate D2E/DX2                !
 ! R16   R(8,9)                  1.3965         estimate D2E/DX2                !
 ! R17   R(8,18)                 1.0808         estimate D2E/DX2                !
 ! R18   R(9,10)                 1.3966         estimate D2E/DX2                !
 ! R19   R(9,19)                 1.0801         estimate D2E/DX2                !
 ! R20   R(10,20)                1.0805         estimate D2E/DX2                !
 ! A1    A(1,2,3)              110.4243         estimate D2E/DX2                !
 ! A2    A(1,2,11)             107.331          estimate D2E/DX2                !
 ! A3    A(1,2,12)             108.0718         estimate D2E/DX2                !
 ! A4    A(3,2,11)             111.1903         estimate D2E/DX2                !
 ! A5    A(3,2,12)             111.9606         estimate D2E/DX2                !
 ! A6    A(11,2,12)            107.6803         estimate D2E/DX2                !
 ! A7    A(2,3,4)              113.7898         estimate D2E/DX2                !
 ! A8    A(2,3,13)             108.8521         estimate D2E/DX2                !
 ! A9    A(2,3,14)             109.2117         estimate D2E/DX2                !
 ! A10   A(4,3,13)             109.0151         estimate D2E/DX2                !
 ! A11   A(4,3,14)             109.7982         estimate D2E/DX2                !
 ! A12   A(13,3,14)            105.867          estimate D2E/DX2                !
 ! A13   A(3,4,5)              112.25           estimate D2E/DX2                !
 ! A14   A(3,4,15)             110.5989         estimate D2E/DX2                !
 ! A15   A(3,4,16)             110.6226         estimate D2E/DX2                !
 ! A16   A(5,4,15)             108.8719         estimate D2E/DX2                !
 ! A17   A(5,4,16)             109.0581         estimate D2E/DX2                !
 ! A18   A(15,4,16)            105.1781         estimate D2E/DX2                !
 ! A19   A(4,5,6)              120.8558         estimate D2E/DX2                !
 ! A20   A(4,5,10)             120.9521         estimate D2E/DX2                !
 ! A21   A(6,5,10)             118.1915         estimate D2E/DX2                !
 ! A22   A(5,6,7)              122.9953         estimate D2E/DX2                !
 ! A23   A(5,6,17)             120.9519         estimate D2E/DX2                !
 ! A24   A(7,6,17)             116.0527         estimate D2E/DX2                !
 ! A25   A(6,7,8)              117.8727         estimate D2E/DX2                !
 ! A26   A(7,8,9)              122.839          estimate D2E/DX2                !
 ! A27   A(7,8,18)             116.2081         estimate D2E/DX2                !
 ! A28   A(9,8,18)             120.953          estimate D2E/DX2                !
 ! A29   A(8,9,10)             118.5533         estimate D2E/DX2                !
 ! A30   A(8,9,19)             120.7595         estimate D2E/DX2                !
 ! A31   A(10,9,19)            120.6873         estimate D2E/DX2                !
 ! A32   A(5,10,9)             119.5482         estimate D2E/DX2                !
 ! A33   A(5,10,20)            120.5699         estimate D2E/DX2                !
 ! A34   A(9,10,20)            119.8819         estimate D2E/DX2                !
 ! D1    D(1,2,3,4)            -64.8499         estimate D2E/DX2                !
 ! D2    D(1,2,3,13)           173.3622         estimate D2E/DX2                !
 ! D3    D(1,2,3,14)            58.2164         estimate D2E/DX2                !
 ! D4    D(11,2,3,4)           176.1187         estimate D2E/DX2                !
 ! D5    D(11,2,3,13)           54.3307         estimate D2E/DX2                !
 ! D6    D(11,2,3,14)          -60.815          estimate D2E/DX2                !
 ! D7    D(12,2,3,4)            55.6189         estimate D2E/DX2                !
 ! D8    D(12,2,3,13)          -66.1691         estimate D2E/DX2                !
 ! D9    D(12,2,3,14)          178.6852         estimate D2E/DX2                !
 ! D10   D(2,3,4,5)           -178.7111         estimate D2E/DX2                !
 ! D11   D(2,3,4,15)            59.4785         estimate D2E/DX2                !
 ! D12   D(2,3,4,16)           -56.6442         estimate D2E/DX2                !
 ! D13   D(13,3,4,5)           -57.0136         estimate D2E/DX2                !
 ! D14   D(13,3,4,15)         -178.8239         estimate D2E/DX2                !
 ! D15   D(13,3,4,16)           65.0533         estimate D2E/DX2                !
 ! D16   D(14,3,4,5)            58.5436         estimate D2E/DX2                !
 ! D17   D(14,3,4,15)          -63.2667         estimate D2E/DX2                !
 ! D18   D(14,3,4,16)         -179.3894         estimate D2E/DX2                !
 ! D19   D(3,4,5,6)            -91.3044         estimate D2E/DX2                !
 ! D20   D(3,4,5,10)            88.4319         estimate D2E/DX2                !
 ! D21   D(15,4,5,6)            31.486          estimate D2E/DX2                !
 ! D22   D(15,4,5,10)         -148.7777         estimate D2E/DX2                !
 ! D23   D(16,4,5,6)           145.7428         estimate D2E/DX2                !
 ! D24   D(16,4,5,10)          -34.5208         estimate D2E/DX2                !
 ! D25   D(4,5,6,7)            179.7467         estimate D2E/DX2                !
 ! D26   D(4,5,6,17)            -0.0986         estimate D2E/DX2                !
 ! D27   D(10,5,6,7)             0.0032         estimate D2E/DX2                !
 ! D28   D(10,5,6,17)         -179.842          estimate D2E/DX2                !
 ! D29   D(4,5,10,9)          -179.7864         estimate D2E/DX2                !
 ! D30   D(4,5,10,20)            0.2139         estimate D2E/DX2                !
 ! D31   D(6,5,10,9)            -0.0432         estimate D2E/DX2                !
 ! D32   D(6,5,10,20)          179.9571         estimate D2E/DX2                !
 ! D33   D(5,6,7,8)              0.0459         estimate D2E/DX2                !
 ! D34   D(17,6,7,8)           179.8982         estimate D2E/DX2                !
 ! D35   D(6,7,8,9)             -0.0564         estimate D2E/DX2                !
 ! D36   D(6,7,8,18)           179.9313         estimate D2E/DX2                !
 ! D37   D(7,8,9,10)             0.0173         estimate D2E/DX2                !
 ! D38   D(7,8,9,19)           179.984          estimate D2E/DX2                !
 ! D39   D(18,8,9,10)         -179.9698         estimate D2E/DX2                !
 ! D40   D(18,8,9,19)           -0.0031         estimate D2E/DX2                !
 ! D41   D(8,9,10,5)             0.0336         estimate D2E/DX2                !
 ! D42   D(8,9,10,20)         -179.9667         estimate D2E/DX2                !
 ! D43   D(19,9,10,5)         -179.9331         estimate D2E/DX2                !
 ! D44   D(19,9,10,20)           0.0666         estimate D2E/DX2                !
 --------------------------------------------------------------------------------
 Trust Radius=3.00D-01 FncErr=1.00D-07 GrdErr=1.00D-06 EigMax=2.50D+02 EigMin=1.00D-04
 Number of steps in this run=    108 maximum allowed number of steps=    120.
 GradGradGradGradGradGradGradGradGradGradGradGradGradGradGradGradGradGrad

                          Input orientation:                          
 ---------------------------------------------------------------------
 Center     Atomic      Atomic             Coordinates (Angstroms)
 Number     Number       Type             X           Y           Z
 ---------------------------------------------------------------------
      1         35           0        5.408400   -1.222400    1.301300
      2          6           0        4.191400   -1.067200   -0.267900
      3          6           0        2.725200   -1.014400    0.193200
      4          6           0        2.241900   -2.307600    0.877600
      5          6           0        0.781400   -2.228900    1.290600
      6          6           0        0.419000   -1.773900    2.563200
      7          7           0       -0.871200   -1.681300    2.975600
      8          6           0       -1.843800   -2.050900    2.104400
      9          6           0       -1.570000   -2.515600    0.816300
     10          6           0       -0.237400   -2.603900    0.407700
     11          1           0        4.468600   -0.159400   -0.805600
     12          1           0        4.381100   -1.914500   -0.928400
     13          1           0        2.090800   -0.811100   -0.671200
     14          1           0        2.591100   -0.166700    0.867800
     15          1           0        2.847100   -2.524500    1.759800
     16          1           0        2.380000   -3.166200    0.218200
     17          1           0        1.169200   -1.470500    3.279500
     18          1           0       -2.860700   -1.967500    2.460800
     19          1           0       -2.370900   -2.801200    0.150200
     20          1           0       -0.001100   -2.960100   -0.584600
 ---------------------------------------------------------------------
                    Distance matrix (angstroms):
                    1          2          3          4          5
     1  Br   0.000000
     2  C    1.991875   0.000000
     3  C    2.910449   1.537902   0.000000
     4  C    3.374004   2.579014   1.540892   0.000000
     5  C    4.735218   3.925120   2.541192   1.519810   0.000000
     6  C    5.175969   4.769230   3.392978   2.539497   1.399239
     7  N    6.515155   6.043784   4.595715   3.805949   2.422845
     8  C    7.343418   6.558896   5.059919   4.273626   2.754202
     9  C    7.113765   6.038798   4.592450   3.818063   2.415831
    10  C    5.880656   4.736259   3.368905   2.540773   1.399318
    11  H    2.540122   1.090900   2.183591   3.522232   4.719357
    12  H    2.550668   1.090946   2.193210   2.827073   4.240359
    13  H    3.881545   2.154242   1.091321   2.158964   2.751971
    14  H    3.039672   2.159091   1.091633   2.169214   2.776048
    15  H    2.909630   2.835918   2.179334   1.091600   2.138842
    16  H    3.758014   2.814829   2.179457   1.091363   2.141050
    17  H    4.684618   4.677648   3.486318   2.760534   2.163627
    18  H    8.383175   7.615015   6.103498   5.353384   3.834396
    19  H    8.020919   6.800393   5.400439   4.695815   3.400740
    20  H    5.986561   4.610903   3.438522   2.755873   2.159476
                    6          7          8          9         10
     6  C    0.000000
     7  N    1.357669   0.000000
     8  C    2.325401   1.357035   0.000000
     9  C    2.749163   2.418048   1.396465   0.000000
    10  C    2.401237   2.801250   2.401067   1.396629   0.000000
    11  H    5.509508   6.717672   7.203629   6.681836   5.440047
    12  H    5.282923   6.548454   6.925739   6.230641   4.857054
    13  H    3.766065   4.778058   4.972136   4.303421   3.130283
    14  H    3.189905   4.327165   4.974709   4.778571   3.761921
    15  H    2.665431   4.001863   4.727324   4.516751   3.368771
    16  H    3.359024   4.514253   4.758375   4.047654   2.683817
    17  H    1.080711   2.073650   3.285710   3.829204   3.392691
    18  H    3.287005   2.074859   1.080769   2.161180   3.391449
    19  H    3.829028   3.389124   2.158630   1.080138   2.158021
    20  H    3.390015   3.881678   3.384215   2.149779   1.080451
                   11         12         13         14         15
    11  H    0.000000
    12  H    1.761565   0.000000
    13  H    2.469151   2.555214   0.000000
    14  H    2.515020   3.079812   1.741859   0.000000
    15  H    3.847628   3.154628   3.068793   2.533855   0.000000
    16  H    3.801482   2.624089   2.534002   3.076287   1.733924
    17  H    5.412307   5.312237   4.110010   3.088364   2.497149
    18  H    8.225402   7.995821   5.971937   5.958410   5.777597
    19  H    7.394013   6.894862   4.953985   5.663655   5.467623
    20  H    5.279297   4.518313   3.000291   4.078241   3.714593
                   16         17         18         19         20
    16  H    0.000000
    17  H    3.703106   0.000000
    18  H    5.825038   4.142146   0.000000
    19  H    4.765386   4.908726   2.504762   0.000000
    20  H    2.521230   4.303461   4.293836   2.486188   0.000000
 Stoichiometry    C8H10BrN
 Framework group  C1[X(C8H10BrN)]
 Deg. of freedom    54
 Full point group                 C1      NOp   1
 Largest Abelian subgroup         C1      NOp   1
 Largest concise Abelian subgroup C1      NOp   1
                         Standard orientation:                         
 ---------------------------------------------------------------------
 Center     Atomic      Atomic             Coordinates (Angstroms)
 Number     Number       Type             X           Y           Z
 ---------------------------------------------------------------------
      1         35           0        3.031126   -0.407154   -0.099784
      2          6           0        2.022326    1.215519    0.463084
      3          6           0        0.542724    0.871316    0.702764
      4          6           0       -0.205166    0.424123   -0.568073
      5          6           0       -1.670140    0.123108   -0.297772
      6          6           0       -2.086530   -1.168874    0.041744
      7          7           0       -3.381990   -1.485048    0.296854
      8          6           0       -4.305055   -0.493733    0.214441
      9          6           0       -3.975607    0.822087   -0.117515
     10          6           0       -2.638219    1.130470   -0.376104
     11          1           0        2.492288    1.590905    1.373185
     12          1           0        2.144377    1.975120   -0.310397
     13          1           0        0.040809    1.745082    1.121805
     14          1           0        0.473891    0.093273    1.465375
     15          1           0        0.264098   -0.462857   -0.997779
     16          1           0       -0.135681    1.188446   -1.343996
     17          1           0       -1.376256   -1.979875    0.117411
     18          1           0       -5.327714   -0.775372    0.421587
     19          1           0       -4.738088    1.585078   -0.173767
     20          1           0       -2.359221    2.141819   -0.634384
 ---------------------------------------------------------------------
 Rotational constants (GHZ):           3.0648505           0.3138706           0.2935562
 Standard basis: 6-31G(d,p) (6D, 7F)
 There are   215 symmetry adapted cartesian basis functions of A   symmetry.
 There are   215 symmetry adapted basis functions of A   symmetry.
   215 basis functions,   405 primitive gaussians,   215 cartesian basis functions
    50 alpha electrons       50 beta electrons
       nuclear repulsion energy       691.3370452845 Hartrees.
 NAtoms=   20 NActive=   20 NUniq=   20 SFac= 1.00D+00 NAtFMM=   60 NAOKFM=F Big=F
 Integral buffers will be    131072 words long.
 Raffenetti 2 integral format.
 Two-electron integral symmetry is turned on.
 Nuclear repulsion after empirical dispersion term =      691.2995701710 Hartrees.
 One-electron integrals computed using PRISM.
 NBasis=   215 RedAO= T EigKep=  7.47D-04  NBF=   215
 NBsUse=   215 1.00D-06 EigRej= -1.00D+00 NBFU=   215
 ExpMin= 1.43D-01 ExpMax= 5.74D+05 ExpMxC= 5.74D+03 IAcc=3 IRadAn=         5 AccDes= 0.00D+00
 Harris functional with IExCor=  402 and IRadAn=       5 diagonalized for initial guess.
 HarFok:  IExCor=  402 AccDes= 0.00D+00 IRadAn=         5 IDoV= 1 UseB2=F ITyADJ=14
 ICtDFT=  3500011 ScaDFX=  1.000000  1.000000  1.000000  1.000000
 FoFCou: FMM=F IPFlag=           0 FMFlag=      100000 FMFlg1=           0
         NFxFlg=           0 DoJE=T BraDBF=F KetDBF=T FulRan=T
         wScrn=  0.000000 ICntrl=       500 IOpCl=  0 I1Cent=   200000004 NGrid=           0
         NMat0=    1 NMatS0=      1 NMatT0=    0 NMatD0=    1 NMtDS0=    0 NMtDT0=    0
 Petite list used in FoFCou.
 Requested convergence on RMS density matrix=1.00D-08 within 128 cycles.
 Requested convergence on MAX density matrix=1.00D-06.
 Requested convergence on             energy=1.00D-06.
 No special actions if energy rises.
 Integral accuracy reduced to 1.0D-05 until final iterations.
 Initial convergence to 1.0D-05 achieved.  Increase integral accuracy.
 SCF Done:  E(RB3LYP) =  -2937.38549759     A.U. after   14 cycles
            NFock= 14  Conv=0.42D-08     -V/T= 2.0066

 **********************************************************************

            Population analysis using the SCF Density.

 **********************************************************************

 Orbital symmetries:
       Occupied  (A) (A) (A) (A) (A) (A) (A) (A) (A) (A) (A) (A)
                 (A) (A) (A) (A) (A) (A) (A) (A) (A) (A) (A) (A)
                 (A) (A) (A) (A) (A) (A) (A) (A) (A) (A) (A) (A)
                 (A) (A) (A) (A) (A) (A) (A) (A) (A) (A) (A) (A)
                 (A) (A)
       Virtual   (A) (A) (A) (A) (A) (A) (A) (A) (A) (A) (A) (A)
                 (A) (A) (A) (A) (A) (A) (A) (A) (A) (A) (A) (A)
                 (A) (A) (A) (A) (A) (A) (A) (A) (A) (A) (A) (A)
                 (A) (A) (A) (A) (A) (A) (A) (A) (A) (A) (A) (A)
                 (A) (A) (A) (A) (A) (A) (A) (A) (A) (A) (A) (A)
                 (A) (A) (A) (A) (A) (A) (A) (A) (A) (A) (A) (A)
                 (A) (A) (A) (A) (A) (A) (A) (A) (A) (A) (A) (A)
                 (A) (A) (A) (A) (A) (A) (A) (A) (A) (A) (A) (A)
                 (A) (A) (A) (A) (A) (A) (A) (A) (A) (A) (A) (A)
                 (A) (A) (A) (A) (A) (A) (A) (A) (A) (A) (A) (A)
                 (A) (A) (A) (A) (A) (A) (A) (A) (A) (A) (A) (A)
                 (A) (A) (A) (A) (A) (A) (A) (A) (A) (A) (A) (A)
                 (A) (A) (A) (A) (A) (A) (A) (A) (A) (A) (A) (A)
                 (A) (A) (A) (A) (A) (A) (A) (A) (A)
 The electronic state is 1-A.
 Alpha  occ. eigenvalues -- -482.89951 -61.86182 -56.38235 -56.37867 -56.37855
 Alpha  occ. eigenvalues --  -14.33046 -10.25052 -10.22192 -10.22118 -10.20784
 Alpha  occ. eigenvalues --  -10.20774 -10.20640 -10.20059 -10.19870  -8.57298
 Alpha  occ. eigenvalues --   -6.52668  -6.51411  -6.51394  -2.64230  -2.63883
 Alpha  occ. eigenvalues --   -2.63869  -2.62866  -2.62866  -0.92912  -0.83385
 Alpha  occ. eigenvalues --   -0.80486  -0.77554  -0.73913  -0.68304  -0.63100
 Alpha  occ. eigenvalues --   -0.61803  -0.59236  -0.52086  -0.49296  -0.47370
 Alpha  occ. eigenvalues --   -0.46437  -0.44545  -0.43272  -0.40354  -0.39931
 Alpha  occ. eigenvalues --   -0.39534  -0.38020  -0.36612  -0.35409  -0.34446
 Alpha  occ. eigenvalues --   -0.28192  -0.27620  -0.27481  -0.25500  -0.25027
 Alpha virt. eigenvalues --   -0.02682  -0.01089  -0.00413   0.08666   0.09888
 Alpha virt. eigenvalues --    0.11962   0.12240   0.13864   0.14352   0.15641
 Alpha virt. eigenvalues --    0.15899   0.16940   0.17406   0.18743   0.20409
 Alpha virt. eigenvalues --    0.23406   0.24078   0.25212   0.29253   0.31676
 Alpha virt. eigenvalues --    0.32771   0.35866   0.40890   0.42265   0.43803
 Alpha virt. eigenvalues --    0.45127   0.46413   0.46787   0.47955   0.50771
 Alpha virt. eigenvalues --    0.50926   0.51892   0.53428   0.54740   0.55155
 Alpha virt. eigenvalues --    0.55549   0.57949   0.59119   0.59863   0.60190
 Alpha virt. eigenvalues --    0.61557   0.63193   0.63962   0.65827   0.67020
 Alpha virt. eigenvalues --    0.67543   0.69285   0.74033   0.76137   0.78235
 Alpha virt. eigenvalues --    0.80249   0.81394   0.82954   0.83639   0.83887
 Alpha virt. eigenvalues --    0.85990   0.86636   0.87119   0.88302   0.89534
 Alpha virt. eigenvalues --    0.91391   0.93221   0.95027   0.96191   0.98561
 Alpha virt. eigenvalues --    0.99979   1.04752   1.07321   1.10861   1.12694
 Alpha virt. eigenvalues --    1.16273   1.19402   1.25077   1.30313   1.33475
 Alpha virt. eigenvalues --    1.35063   1.38138   1.40083   1.42339   1.43098
 Alpha virt. eigenvalues --    1.47400   1.48021   1.48730   1.53440   1.57457
 Alpha virt. eigenvalues --    1.63056   1.69459   1.72071   1.74588   1.76524
 Alpha virt. eigenvalues --    1.78324   1.80302   1.82556   1.84665   1.85628
 Alpha virt. eigenvalues --    1.88624   1.89712   1.92748   1.96078   1.97094
 Alpha virt. eigenvalues --    1.99975   2.02094   2.07916   2.08638   2.11044
 Alpha virt. eigenvalues --    2.11825   2.12755   2.16516   2.19745   2.23065
 Alpha virt. eigenvalues --    2.23569   2.28158   2.30633   2.31326   2.32329
 Alpha virt. eigenvalues --    2.32931   2.36382   2.39048   2.40688   2.42681
 Alpha virt. eigenvalues --    2.45295   2.48757   2.49208   2.50871   2.53540
 Alpha virt. eigenvalues --    2.54655   2.57521   2.61308   2.63241   2.65617
 Alpha virt. eigenvalues --    2.67841   2.68835   2.72463   2.73440   2.74566
 Alpha virt. eigenvalues --    2.81555   2.82902   2.84897   2.88002   2.89235
 Alpha virt. eigenvalues --    2.98691   3.04690   3.17961   3.21992   3.23855
 Alpha virt. eigenvalues --    3.26978   3.28686   3.33466   3.38805   3.40221
 Alpha virt. eigenvalues --    3.46168   3.48068   3.55250   3.79307   4.09615
 Alpha virt. eigenvalues --    4.16585   4.17938   4.27463   4.32488   4.44089
 Alpha virt. eigenvalues --    4.48291   4.66774   4.74974   8.63667  73.19029
          Condensed to atoms (all electrons):
               1          2          3          4          5          6
     1  Br  35.013335   0.255119  -0.052136  -0.010825   0.000178   0.000000
     2  C    0.255119   4.981713   0.330011  -0.040293   0.003620   0.000089
     3  C   -0.052136   0.330011   4.970991   0.362447  -0.040220  -0.003385
     4  C   -0.010825  -0.040293   0.362447   5.032243   0.342051  -0.043714
     5  C    0.000178   0.003620  -0.040220   0.342051   4.819049   0.488517
     6  C    0.000000   0.000089  -0.003385  -0.043714   0.488517   4.809681
     7  N    0.000000   0.000001  -0.000020   0.005636  -0.015982   0.436974
     8  C    0.000000  -0.000000   0.000020   0.000316  -0.032269  -0.072806
     9  C   -0.000000   0.000003  -0.000057   0.007201  -0.021505  -0.041622
    10  C   -0.000011   0.000041  -0.003661  -0.060402   0.536516  -0.037051
    11  H   -0.037064   0.377050  -0.029910   0.004095  -0.000093  -0.000002
    12  H   -0.037723   0.376744  -0.036125  -0.006310   0.000024   0.000001
    13  H    0.004717  -0.030561   0.367488  -0.040171  -0.001961  -0.000038
    14  H   -0.000722  -0.036604   0.384789  -0.038894  -0.001542   0.002901
    15  H    0.012992  -0.005879  -0.035164   0.377073  -0.029423  -0.004916
    16  H    0.000066  -0.003678  -0.039645   0.369485  -0.028951   0.003134
    17  H    0.000102  -0.000039   0.000330  -0.003940  -0.065941   0.388910
    18  H   -0.000000   0.000000   0.000000   0.000014   0.000716   0.004526
    19  H   -0.000000  -0.000000  -0.000001  -0.000112   0.005091   0.000467
    20  H    0.000001  -0.000061   0.000307  -0.009616  -0.048499   0.005594
               7          8          9         10         11         12
     1  Br   0.000000   0.000000  -0.000000  -0.000011  -0.037064  -0.037723
     2  C    0.000001  -0.000000   0.000003   0.000041   0.377050   0.376744
     3  C   -0.000020   0.000020  -0.000057  -0.003661  -0.029910  -0.036125
     4  C    0.005636   0.000316   0.007201  -0.060402   0.004095  -0.006310
     5  C   -0.015982  -0.032269  -0.021505   0.536516  -0.000093   0.000024
     6  C    0.436974  -0.072806  -0.041622  -0.037051  -0.000002   0.000001
     7  N    6.730392   0.458637  -0.023998  -0.056060  -0.000000  -0.000000
     8  C    0.458637   4.726498   0.503559  -0.039299   0.000000   0.000000
     9  C   -0.023998   0.503559   4.906902   0.514032  -0.000000  -0.000000
    10  C   -0.056060  -0.039299   0.514032   4.887615  -0.000003   0.000000
    11  H   -0.000000   0.000000  -0.000000  -0.000003   0.581943  -0.037859
    12  H   -0.000000   0.000000  -0.000000   0.000000  -0.037859   0.587274
    13  H   -0.000007  -0.000005  -0.000159   0.003426  -0.002257  -0.001574
    14  H   -0.000085  -0.000005  -0.000010  -0.000041  -0.003782   0.005360
    15  H    0.000064   0.000010  -0.000230   0.003806   0.000129  -0.000213
    16  H   -0.000173   0.000021   0.000015  -0.005731   0.000017   0.004805
    17  H   -0.049107   0.004716   0.000321   0.004075   0.000001   0.000001
    18  H   -0.050288   0.388161  -0.061771   0.003409  -0.000000  -0.000000
    19  H    0.004886  -0.035530   0.358318  -0.039976   0.000000  -0.000000
    20  H   -0.000297   0.004825  -0.046006   0.374065   0.000002   0.000005
              13         14         15         16         17         18
     1  Br   0.004717  -0.000722   0.012992   0.000066   0.000102  -0.000000
     2  C   -0.030561  -0.036604  -0.005879  -0.003678  -0.000039   0.000000
     3  C    0.367488   0.384789  -0.035164  -0.039645   0.000330   0.000000
     4  C   -0.040171  -0.038894   0.377073   0.369485  -0.003940   0.000014
     5  C   -0.001961  -0.001542  -0.029423  -0.028951  -0.065941   0.000716
     6  C   -0.000038   0.002901  -0.004916   0.003134   0.388910   0.004526
     7  N   -0.000007  -0.000085   0.000064  -0.000173  -0.049107  -0.050288
     8  C   -0.000005  -0.000005   0.000010   0.000021   0.004716   0.388161
     9  C   -0.000159  -0.000010  -0.000230   0.000015   0.000321  -0.061771
    10  C    0.003426  -0.000041   0.003806  -0.005731   0.004075   0.003409
    11  H   -0.002257  -0.003782   0.000129   0.000017   0.000001  -0.000000
    12  H   -0.001574   0.005360  -0.000213   0.004805   0.000001  -0.000000
    13  H    0.623542  -0.034597   0.005641  -0.004676   0.000026  -0.000000
    14  H   -0.034597   0.594319  -0.004989   0.005671   0.000459  -0.000000
    15  H    0.005641  -0.004989   0.582395  -0.036455   0.004525  -0.000000
    16  H   -0.004676   0.005671  -0.036455   0.629401  -0.000046  -0.000000
    17  H    0.000026   0.000459   0.004525  -0.000046   0.612028  -0.000189
    18  H   -0.000000  -0.000000  -0.000000  -0.000000  -0.000189   0.616182
    19  H    0.000002   0.000000   0.000003  -0.000011   0.000026  -0.002283
    20  H    0.000786   0.000033   0.000069   0.004589  -0.000175  -0.000192
              19         20
     1  Br  -0.000000   0.000001
     2  C   -0.000000  -0.000061
     3  C   -0.000001   0.000307
     4  C   -0.000112  -0.009616
     5  C    0.005091  -0.048499
     6  C    0.000467   0.005594
     7  N    0.004886  -0.000297
     8  C   -0.035530   0.004825
     9  C    0.358318  -0.046006
    10  C   -0.039976   0.374065
    11  H    0.000000   0.000002
    12  H   -0.000000   0.000005
    13  H    0.000002   0.000786
    14  H    0.000000   0.000033
    15  H    0.000003   0.000069
    16  H   -0.000011   0.004589
    17  H    0.000026  -0.000175
    18  H   -0.002283  -0.000192
    19  H    0.624362  -0.006539
    20  H   -0.006539   0.630763
 Mulliken charges:
               1
     1  Br  -0.148031
     2  C   -0.207273
     3  C   -0.176059
     4  C   -0.246283
     5  C    0.090624
     6  C    0.062742
     7  N   -0.440573
     8  C    0.093151
     9  C   -0.094993
    10  C   -0.084751
    11  H    0.147733
    12  H    0.145590
    13  H    0.110378
    14  H    0.127739
    15  H    0.130563
    16  H    0.102163
    17  H    0.103918
    18  H    0.101717
    19  H    0.091297
    20  H    0.090348
 Sum of Mulliken charges =  -0.00000
 Mulliken charges with hydrogens summed into heavy atoms:
               1
     1  Br  -0.148031
     2  C    0.086050
     3  C    0.062059
     4  C   -0.013557
     5  C    0.090624
     6  C    0.166659
     7  N   -0.440573
     8  C    0.194868
     9  C   -0.003696
    10  C    0.005597
 Electronic spatial extent (au):  <R**2>=           3326.6086
 Charge=             -0.0000 electrons
 Dipole moment (field-independent basis, Debye):
    X=             -0.3059    Y=              3.5334    Z=              0.0667  Tot=              3.5472
 Quadrupole moment (field-independent basis, Debye-Ang):
   XX=            -76.1006   YY=            -70.2558   ZZ=            -72.7574
   XY=             -5.4034   XZ=              2.0239   YZ=              1.0521
 Traceless Quadrupole moment (field-independent basis, Debye-Ang):
   XX=             -3.0627   YY=              2.7822   ZZ=              0.2805
   XY=             -5.4034   XZ=              2.0239   YZ=              1.0521
 Octapole moment (field-independent basis, Debye-Ang**2):
  XXX=             51.7815  YYY=              1.4932  ZZZ=             -0.7159  XYY=             48.5248
  XXY=             28.8586  XXZ=             -0.2807  XZZ=             39.2343  YZZ=             -2.3032
  YYZ=             -4.1830  XYZ=              2.1320
 Hexadecapole moment (field-independent basis, Debye-Ang**3):
 XXXX=          -3205.7664 YYYY=           -446.0952 ZZZZ=           -159.0429 XXXY=           -136.2574
 XXXZ=            -16.5043 YYYX=            -80.5760 YYYZ=              3.7211 ZZZX=             -7.5139
 ZZZY=              3.7912 XXYY=           -650.8035 XXZZ=           -610.3211 YYZZ=           -100.0442
 XXYZ=             12.2442 YYXZ=              6.7823 ZZXY=             -8.8254
 N-N= 6.912995701710D+02 E-N=-8.363214535218D+03  KE= 2.917992628000D+03
 Calling FoFJK, ICntrl=      2127 FMM=F ISym2X=0 I1Cent= 0 IOpClX= 0 NMat=1 NMatS=1 NMatT=0.
 ***** Axes restored to original set *****
 -------------------------------------------------------------------
 Center     Atomic                   Forces (Hartrees/Bohr)
 Number     Number              X              Y              Z
 -------------------------------------------------------------------
      1       35          -0.002086675   -0.000018172   -0.006718887
      2        6          -0.011965420    0.002659633   -0.000379520
      3        6           0.008745468   -0.005480281    0.003320201
      4        6          -0.006979497    0.001615390    0.004440855
      5        6           0.008881062   -0.002030683   -0.004044060
      6        6          -0.028497748   -0.002313444   -0.004792377
      7        7           0.003169292   -0.003358547   -0.010174248
      8        6           0.021512007    0.003280898    0.005798105
      9        6           0.005651705    0.001794024    0.002903385
     10        6          -0.005925958    0.003513140    0.008065187
     11        1           0.002530376    0.001029801    0.004273761
     12        1           0.002487590   -0.002861168    0.004365632
     13        1          -0.000538435   -0.000168241   -0.005373308
     14        1           0.000278549    0.001015870    0.002341478
     15        1           0.002976080    0.003437651    0.001139166
     16        1           0.000570182   -0.000755716   -0.004971285
     17        1           0.003748503    0.000805073    0.003077911
     18        1          -0.003825190    0.000436061    0.002027919
     19        1          -0.003170385   -0.000942663   -0.001725219
     20        1           0.002438495   -0.001658626   -0.003574699
 -------------------------------------------------------------------
 Cartesian Forces:  Max     0.028497748 RMS     0.006241493

 GradGradGradGradGradGradGradGradGradGradGradGradGradGradGradGradGradGrad
 Berny optimization.
 FormGI is forming the generalized inverse of G from B-inverse, IUseBI=4.
 Internal  Forces:  Max     0.018038429 RMS     0.003608681
 Search for a local minimum.
 Step number   1 out of a maximum of  108
 All quantities printed in internal units (Hartrees-Bohrs-Radians)
 Mixed Optimization -- RFO/linear search
 Second derivative matrix not updated -- first step.
 ITU=  0
     Eigenvalues ---    0.00230   0.00265   0.00504   0.01438   0.02105
     Eigenvalues ---    0.02115   0.02134   0.02139   0.02146   0.02175
     Eigenvalues ---    0.02226   0.03308   0.03952   0.04709   0.05223
     Eigenvalues ---    0.05468   0.05645   0.08492   0.09384   0.12332
     Eigenvalues ---    0.12825   0.14409   0.16000   0.16000   0.16000
     Eigenvalues ---    0.16000   0.16000   0.16000   0.21868   0.21906
     Eigenvalues ---    0.22000   0.22237   0.23190   0.23457   0.25000
     Eigenvalues ---    0.28440   0.28706   0.30385   0.34625   0.34628
     Eigenvalues ---    0.34656   0.34660   0.34704   0.34709   0.35902
     Eigenvalues ---    0.35908   0.35940   0.35978   0.42099   0.43644
     Eigenvalues ---    0.45886   0.46080   0.51717   0.52834
 RFO step:  Lambda=-4.46692075D-03 EMin= 2.30000000D-03
 Linear search not attempted -- first point.
 Iteration  1 RMS(Cart)=  0.02568943 RMS(Int)=  0.00035942
 Iteration  2 RMS(Cart)=  0.00040628 RMS(Int)=  0.00014233
 Iteration  3 RMS(Cart)=  0.00000012 RMS(Int)=  0.00014233
 Variable       Old X    -DE/DX   Delta X   Delta X   Delta X     New X
                                 (Linear)    (Quad)   (Total)
    R1        3.76410  -0.00657   0.00000  -0.04420  -0.04420   3.71990
    R2        2.90621  -0.00910   0.00000  -0.03122  -0.03122   2.87499
    R3        2.06150  -0.00061   0.00000  -0.00173  -0.00173   2.05978
    R4        2.06159   0.00001   0.00000   0.00003   0.00003   2.06162
    R5        2.91186  -0.00419   0.00000  -0.01452  -0.01452   2.89735
    R6        2.06230   0.00454   0.00000   0.01292   0.01292   2.07522
    R7        2.06289   0.00220   0.00000   0.00628   0.00628   2.06917
    R8        2.87202  -0.00451   0.00000  -0.01464  -0.01464   2.85739
    R9        2.06282   0.00189   0.00000   0.00538   0.00538   2.06821
   R10        2.06238   0.00367   0.00000   0.01046   0.01046   2.07283
   R11        2.64418  -0.00099   0.00000  -0.00226  -0.00222   2.64196
   R12        2.64433  -0.00429   0.00000  -0.00776  -0.00773   2.63659
   R13        2.56562  -0.01776   0.00000  -0.03432  -0.03431   2.53131
   R14        2.04225   0.00487   0.00000   0.01339   0.01339   2.05564
   R15        2.56442  -0.01804   0.00000  -0.03469  -0.03473   2.52970
   R16        2.63894  -0.00195   0.00000  -0.00416  -0.00420   2.63474
   R17        2.04236   0.00430   0.00000   0.01183   0.01183   2.05419
   R18        2.63925  -0.00471   0.00000  -0.00852  -0.00853   2.63071
   R19        2.04116   0.00366   0.00000   0.01006   0.01006   2.05122
   R20        2.04176   0.00436   0.00000   0.01199   0.01199   2.05375
    A1        1.92727   0.00456   0.00000   0.01013   0.01019   1.93746
    A2        1.87328  -0.00413   0.00000  -0.03218  -0.03214   1.84114
    A3        1.88621  -0.00480   0.00000  -0.04467  -0.04460   1.84161
    A4        1.94064   0.00159   0.00000   0.01958   0.01914   1.95978
    A5        1.95408   0.00083   0.00000   0.01026   0.00982   1.96390
    A6        1.87938   0.00147   0.00000   0.03382   0.03302   1.91239
    A7        1.98601   0.00055   0.00000  -0.00110  -0.00113   1.98488
    A8        1.89983  -0.00197   0.00000  -0.02047  -0.02046   1.87937
    A9        1.90610   0.00027   0.00000   0.00263   0.00265   1.90875
   A10        1.90267   0.00091   0.00000   0.00545   0.00535   1.90803
   A11        1.91634  -0.00075   0.00000  -0.00210  -0.00211   1.91423
   A12        1.84773   0.00102   0.00000   0.01678   0.01678   1.86451
   A13        1.95913   0.00003   0.00000  -0.00411  -0.00409   1.95505
   A14        1.93031  -0.00297   0.00000  -0.02825  -0.02825   1.90207
   A15        1.93073  -0.00189   0.00000  -0.01978  -0.01979   1.91093
   A16        1.90017   0.00199   0.00000   0.01797   0.01777   1.91795
   A17        1.90342   0.00110   0.00000   0.01152   0.01135   1.91477
   A18        1.83570   0.00196   0.00000   0.02541   0.02492   1.86063
   A19        2.10933   0.00109   0.00000   0.00303   0.00290   2.11223
   A20        2.11101   0.00399   0.00000   0.01440   0.01426   2.12527
   A21        2.06283  -0.00508   0.00000  -0.01753  -0.01752   2.04531
   A22        2.14667   0.00747   0.00000   0.02956   0.02963   2.17630
   A23        2.11101  -0.00423   0.00000  -0.01777  -0.01781   2.09320
   A24        2.02550  -0.00324   0.00000  -0.01178  -0.01182   2.01368
   A25        2.05727  -0.00252   0.00000  -0.01888  -0.01888   2.03838
   A26        2.14394   0.00367   0.00000   0.01307   0.01301   2.15696
   A27        2.02821  -0.00250   0.00000  -0.01054  -0.01052   2.01770
   A28        2.11103  -0.00118   0.00000  -0.00253  -0.00250   2.10853
   A29        2.06914  -0.00086   0.00000  -0.00058  -0.00063   2.06852
   A30        2.10765  -0.00027   0.00000  -0.00397  -0.00396   2.10369
   A31        2.10639   0.00113   0.00000   0.00456   0.00457   2.11097
   A32        2.08651  -0.00268   0.00000  -0.00564  -0.00561   2.08090
   A33        2.10434  -0.00019   0.00000  -0.00651  -0.00653   2.09781
   A34        2.09233   0.00287   0.00000   0.01215   0.01213   2.10447
    D1       -1.13184   0.00060   0.00000   0.00969   0.00973  -1.12212
    D2        3.02574   0.00050   0.00000   0.01839   0.01836   3.04410
    D3        1.01607   0.00022   0.00000   0.00817   0.00819   1.02426
    D4        3.07385   0.00177   0.00000   0.03076   0.03101   3.10486
    D5        0.94825   0.00167   0.00000   0.03946   0.03963   0.98788
    D6       -1.06142   0.00139   0.00000   0.02924   0.02947  -1.03196
    D7        0.97073  -0.00179   0.00000  -0.03317  -0.03335   0.93738
    D8       -1.15487  -0.00189   0.00000  -0.02447  -0.02473  -1.17960
    D9        3.11864  -0.00217   0.00000  -0.03469  -0.03489   3.08375
   D10       -3.11910   0.00061   0.00000  -0.00211  -0.00209  -3.12119
   D11        1.03810   0.00016   0.00000  -0.00217  -0.00214   1.03596
   D12       -0.98863   0.00069   0.00000  -0.00437  -0.00439  -0.99301
   D13       -0.99507  -0.00088   0.00000  -0.02520  -0.02520  -1.02028
   D14       -3.12107  -0.00134   0.00000  -0.02525  -0.02526   3.13686
   D15        1.13540  -0.00081   0.00000  -0.02745  -0.02750   1.10789
   D16        1.02178   0.00043   0.00000  -0.00317  -0.00315   1.01863
   D17       -1.10421  -0.00002   0.00000  -0.00323  -0.00320  -1.10741
   D18       -3.13094   0.00051   0.00000  -0.00543  -0.00545  -3.13638
   D19       -1.59356   0.00048   0.00000   0.01377   0.01389  -1.57967
   D20        1.54343  -0.00001   0.00000  -0.01188  -0.01196   1.53147
   D21        0.54953  -0.00187   0.00000  -0.01220  -0.01228   0.53725
   D22       -2.59666  -0.00236   0.00000  -0.03785  -0.03814  -2.63480
   D23        2.54369   0.00209   0.00000   0.03357   0.03385   2.57754
   D24       -0.60250   0.00160   0.00000   0.00792   0.00799  -0.59451
   D25        3.13717  -0.00046   0.00000  -0.02165  -0.02147   3.11570
   D26       -0.00172  -0.00060   0.00000  -0.02740  -0.02724  -0.02896
   D27        0.00006  -0.00000   0.00000   0.00323   0.00316   0.00321
   D28       -3.13884  -0.00014   0.00000  -0.00252  -0.00261  -3.14144
   D29       -3.13787   0.00046   0.00000   0.02183   0.02186  -3.11601
   D30        0.00373   0.00056   0.00000   0.02610   0.02607   0.02981
   D31       -0.00075   0.00000   0.00000  -0.00310  -0.00300  -0.00376
   D32        3.14084   0.00010   0.00000   0.00117   0.00121  -3.14113
   D33        0.00080  -0.00000   0.00000  -0.00143  -0.00139  -0.00059
   D34        3.13982   0.00013   0.00000   0.00405   0.00412  -3.13925
   D35       -0.00098   0.00001   0.00000  -0.00050  -0.00050  -0.00148
   D36        3.14039  -0.00011   0.00000  -0.00399  -0.00399   3.13640
   D37        0.00030  -0.00001   0.00000   0.00052   0.00049   0.00079
   D38        3.14131  -0.00012   0.00000  -0.00342  -0.00342   3.13789
   D39       -3.14107   0.00011   0.00000   0.00418   0.00416  -3.13691
   D40       -0.00005   0.00000   0.00000   0.00023   0.00025   0.00019
   D41        0.00059   0.00001   0.00000   0.00135   0.00136   0.00195
   D42       -3.14101  -0.00009   0.00000  -0.00289  -0.00287   3.13930
   D43       -3.14042   0.00012   0.00000   0.00529   0.00529  -3.13513
   D44        0.00116   0.00002   0.00000   0.00105   0.00106   0.00222
         Item               Value     Threshold  Converged?
 Maximum Force            0.018038     0.000450     NO 
 RMS     Force            0.003609     0.000300     NO 
 Maximum Displacement     0.078995     0.001800     NO 
 RMS     Displacement     0.025702     0.001200     NO 
 Predicted change in Energy=-2.313958D-03
 GradGradGradGradGradGradGradGradGradGradGradGradGradGradGradGradGradGrad

                          Input orientation:                          
 ---------------------------------------------------------------------
 Center     Atomic      Atomic             Coordinates (Angstroms)
 Number     Number       Type             X           Y           Z
 ---------------------------------------------------------------------
      1         35           0        5.374658   -1.216548    1.289794
      2          6           0        4.162524   -1.058499   -0.253151
      3          6           0        2.709405   -1.023899    0.196119
      4          6           0        2.242210   -2.317509    0.873641
      5          6           0        0.786878   -2.251607    1.278611
      6          6           0        0.410950   -1.785900    2.542088
      7          7           0       -0.854231   -1.669945    2.966546
      8          6           0       -1.814667   -2.029567    2.106172
      9          6           0       -1.559873   -2.505338    0.820623
     10          6           0       -0.236490   -2.615751    0.402956
     11          1           0        4.459248   -0.142385   -0.763798
     12          1           0        4.383553   -1.918340   -0.887203
     13          1           0        2.090475   -0.834331   -0.690981
     14          1           0        2.559128   -0.177462    0.874269
     15          1           0        2.865562   -2.503569    1.753771
     16          1           0        2.399040   -3.163928    0.193816
     17          1           0        1.172546   -1.489664    3.260086
     18          1           0       -2.833632   -1.932499    2.472129
     19          1           0       -2.377626   -2.786401    0.164491
     20          1           0        0.000443   -2.984656   -0.591478
 ---------------------------------------------------------------------
                    Distance matrix (angstroms):
                    1          2          3          4          5
     1  Br   0.000000
     2  C    1.968484   0.000000
     3  C    2.887354   1.521379   0.000000
     4  C    3.346270   2.557806   1.533210   0.000000
     5  C    4.703105   3.894199   2.524910   1.512064   0.000000
     6  C    5.150805   4.734636   3.371515   2.533740   1.398063
     7  N    6.466539   5.992341   4.559840   3.793091   2.425014
     8  C    7.281062   6.498937   5.012674   4.249741   2.739013
     9  C    7.068863   5.999347   4.561952   3.807090   2.404448
    10  C    5.850576   4.712413   3.354858   2.540561   1.395225
    11  H    2.491795   1.089986   2.181847   3.511072   4.701761
    12  H    2.492813   1.090964   2.185493   2.800938   4.211637
    13  H    3.854273   2.129632   1.098161   2.161222   2.754511
    14  H    3.029780   2.148995   1.094955   2.163386   2.757978
    15  H    2.857841   2.792503   2.154086   1.094447   2.147136
    16  H    3.721258   2.782532   2.162418   1.096897   2.146667
    17  H    4.649128   4.633433   3.459302   2.743106   2.157670
    18  H    8.323853   7.558917   6.060614   5.335502   3.825494
    19  H    7.989283   6.777435   5.383800   4.697408   3.397256
    20  H    5.962179   4.598637   3.435601   2.759924   2.157098
                    6          7          8          9         10
     6  C    0.000000
     7  N    1.339513   0.000000
     8  C    2.280958   1.338659   0.000000
     9  C    2.713886   2.408484   1.394242   0.000000
    10  C    2.384055   2.801454   2.394827   1.392114   0.000000
    11  H    5.478935   6.669480   7.152635   6.657609   5.434042
    12  H    5.249681   6.507492   6.884082   6.211727   4.847235
    13  H    3.765504   4.769386   4.950028   4.289785   3.128086
    14  H    3.159646   4.272722   4.906930   4.731603   3.739368
    15  H    2.676119   4.000327   4.717352   4.522748   3.385264
    16  H    3.371327   4.528111   4.764368   4.061973   2.700048
    17  H    1.087798   2.055843   3.247530   3.801143   3.378853
    18  H    3.248646   2.057040   1.087032   2.162886   3.390200
    19  H    3.798701   3.379159   2.158667   1.085461   2.161122
    20  H    3.380055   3.888247   3.388825   2.158324   1.086797
                   11         12         13         14         15
    11  H    0.000000
    12  H    1.781846   0.000000
    13  H    2.468841   2.543970   0.000000
    14  H    2.508973   3.076031   1.761000   0.000000
    15  H    3.801733   3.101859   3.060053   2.505633   0.000000
    16  H    3.780370   2.580383   2.510996   3.067185   1.757037
    17  H    5.367421   5.262540   4.108891   3.055586   2.482598
    18  H    8.176908   7.960720   5.954668   5.891959   5.772606
    19  H    7.388869   6.897327   4.950387   5.628667   5.486057
    20  H    5.290476   4.520634   3.000339   4.071317   3.733704
                   16         17         18         19         20
    16  H    0.000000
    17  H    3.702629   0.000000
    18  H    5.838492   4.106878   0.000000
    19  H    4.791651   4.885484   2.502455   0.000000
    20  H    2.530236   4.294574   4.304033   2.503199   0.000000
 Stoichiometry    C8H10BrN
 Framework group  C1[X(C8H10BrN)]
 Deg. of freedom    54
 Full point group                 C1      NOp   1
 Largest Abelian subgroup         C1      NOp   1
 Largest concise Abelian subgroup C1      NOp   1
                         Standard orientation:                         
 ---------------------------------------------------------------------
 Center     Atomic      Atomic             Coordinates (Angstroms)
 Number     Number       Type             X           Y           Z
 ---------------------------------------------------------------------
      1         35           0        3.009393   -0.402062   -0.098267
      2          6           0        2.005440    1.189700    0.479054
      3          6           0        0.537011    0.858217    0.699124
      4          6           0       -0.196484    0.429015   -0.577005
      5          6           0       -1.657520    0.136478   -0.319844
      6          6           0       -2.085429   -1.149745    0.022362
      7          7           0       -3.353897   -1.484445    0.293026
      8          6           0       -4.263674   -0.504669    0.227042
      9          6           0       -3.953990    0.814538   -0.101135
     10          6           0       -2.628208    1.137036   -0.377318
     11          1           0        2.494595    1.526749    1.392945
     12          1           0        2.153295    1.929646   -0.308867
     13          1           0        0.051918    1.751843    1.113942
     14          1           0        0.451905    0.071266    1.455689
     15          1           0        0.294232   -0.458646   -0.988186
     16          1           0       -0.104765    1.217088   -1.334442
     17          1           0       -1.365999   -1.963592    0.080486
     18          1           0       -5.287228   -0.798537    0.445256
     19          1           0       -4.732643    1.569609   -0.143475
     20          1           0       -2.349670    2.154454   -0.638858
 ---------------------------------------------------------------------
 Rotational constants (GHZ):           3.0949063           0.3181207           0.2976716
 Standard basis: 6-31G(d,p) (6D, 7F)
 There are   215 symmetry adapted cartesian basis functions of A   symmetry.
 There are   215 symmetry adapted basis functions of A   symmetry.
   215 basis functions,   405 primitive gaussians,   215 cartesian basis functions
    50 alpha electrons       50 beta electrons
       nuclear repulsion energy       695.8455236162 Hartrees.
 NAtoms=   20 NActive=   20 NUniq=   20 SFac= 1.00D+00 NAtFMM=   60 NAOKFM=F Big=F
 Integral buffers will be    131072 words long.
 Raffenetti 2 integral format.
 Two-electron integral symmetry is turned on.
 Nuclear repulsion after empirical dispersion term =      695.8078440919 Hartrees.
 One-electron integrals computed using PRISM.
 NBasis=   215 RedAO= T EigKep=  7.43D-04  NBF=   215
 NBsUse=   215 1.00D-06 EigRej= -1.00D+00 NBFU=   215
 Initial guess from the checkpoint file:  "pyrd10_conf-5.chk"
 B after Tr=     0.000000   -0.000000   -0.000000
         Rot=    0.999993   -0.003731    0.000065   -0.000026 Ang=  -0.43 deg.
 ExpMin= 1.43D-01 ExpMax= 5.74D+05 ExpMxC= 5.74D+03 IAcc=3 IRadAn=         5 AccDes= 0.00D+00
 Harris functional with IExCor=  402 and IRadAn=       5 diagonalized for initial guess.
 HarFok:  IExCor=  402 AccDes= 0.00D+00 IRadAn=         5 IDoV= 1 UseB2=F ITyADJ=14
 ICtDFT=  3500011 ScaDFX=  1.000000  1.000000  1.000000  1.000000
 FoFCou: FMM=F IPFlag=           0 FMFlag=      100000 FMFlg1=           0
         NFxFlg=           0 DoJE=T BraDBF=F KetDBF=T FulRan=T
         wScrn=  0.000000 ICntrl=       500 IOpCl=  0 I1Cent=   200000004 NGrid=           0
         NMat0=    1 NMatS0=      1 NMatT0=    0 NMatD0=    1 NMtDS0=    0 NMtDT0=    0
 Petite list used in FoFCou.
 Requested convergence on RMS density matrix=1.00D-08 within 128 cycles.
 Requested convergence on MAX density matrix=1.00D-06.
 Requested convergence on             energy=1.00D-06.
 No special actions if energy rises.
 Integral accuracy reduced to 1.0D-05 until final iterations.
 Initial convergence to 1.0D-05 achieved.  Increase integral accuracy.
 SCF Done:  E(RB3LYP) =  -2937.38771013     A.U. after   11 cycles
            NFock= 11  Conv=0.93D-08     -V/T= 2.0066
 Calling FoFJK, ICntrl=      2127 FMM=F ISym2X=0 I1Cent= 0 IOpClX= 0 NMat=1 NMatS=1 NMatT=0.
 ***** Axes restored to original set *****
 -------------------------------------------------------------------
 Center     Atomic                   Forces (Hartrees/Bohr)
 Number     Number              X              Y              Z
 -------------------------------------------------------------------
      1       35           0.003491851   -0.000290966    0.002705265
      2        6          -0.003386357    0.000718977   -0.002419596
      3        6           0.001413646    0.000834021   -0.001329316
      4        6          -0.003039466   -0.001509438    0.002415947
      5        6           0.004797997   -0.000602490   -0.001447528
      6        6          -0.002403686    0.001142157    0.003017031
      7        7           0.002079620   -0.000852068   -0.002749939
      8        6          -0.000903205    0.000580656    0.001773308
      9        6          -0.000528474   -0.000388618   -0.001020205
     10        6          -0.001880168    0.000093860    0.000013565
     11        1          -0.000121547   -0.000325312    0.000448830
     12        1          -0.000049916    0.000043101    0.000361196
     13        1          -0.000068990    0.000222744   -0.000413353
     14        1          -0.000269735    0.000095007   -0.000106227
     15        1           0.000135127    0.000507365   -0.000182836
     16        1          -0.000020396    0.000263503   -0.000445733
     17        1           0.001858242   -0.000183951   -0.000073263
     18        1          -0.001151941   -0.000271465   -0.000868959
     19        1          -0.000179806    0.000159268    0.000425195
     20        1           0.000227203   -0.000236350   -0.000103382
 -------------------------------------------------------------------
 Cartesian Forces:  Max     0.004797997 RMS     0.001473073

 GradGradGradGradGradGradGradGradGradGradGradGradGradGradGradGradGradGrad
 Berny optimization.
 Using GEDIIS/GDIIS optimizer.
 FormGI is forming the generalized inverse of G from B-inverse, IUseBI=4.
 Internal  Forces:  Max     0.004293860 RMS     0.000833283
 Search for a local minimum.
 Step number   2 out of a maximum of  108
 All quantities printed in internal units (Hartrees-Bohrs-Radians)
 Mixed Optimization -- En-DIIS/RFO-DIIS
 Update second derivatives using D2CorX and points    1    2
 DE= -2.21D-03 DEPred=-2.31D-03 R= 9.56D-01
 TightC=F SS=  1.41D+00  RLast= 1.78D-01 DXNew= 5.0454D-01 5.3533D-01
 Trust test= 9.56D-01 RLast= 1.78D-01 DXMaxT set to 5.05D-01
 ITU=  1  0
 Use linear search instead of GDIIS.
     Eigenvalues ---    0.00230   0.00265   0.00504   0.01430   0.02096
     Eigenvalues ---    0.02115   0.02135   0.02138   0.02146   0.02176
     Eigenvalues ---    0.02225   0.03344   0.04048   0.04755   0.05341
     Eigenvalues ---    0.05471   0.05480   0.08435   0.09009   0.12258
     Eigenvalues ---    0.12749   0.15304   0.15728   0.16000   0.16000
     Eigenvalues ---    0.16000   0.16000   0.16459   0.20946   0.21928
     Eigenvalues ---    0.21955   0.22007   0.23305   0.24502   0.24947
     Eigenvalues ---    0.28314   0.29148   0.30153   0.34510   0.34627
     Eigenvalues ---    0.34638   0.34663   0.34705   0.34754   0.35556
     Eigenvalues ---    0.35905   0.35948   0.36052   0.41987   0.43500
     Eigenvalues ---    0.45900   0.46149   0.51870   0.53647
 RFO step:  Lambda=-3.39401780D-04 EMin= 2.30076339D-03
 Quartic linear search produced a step of -0.01913.
 Iteration  1 RMS(Cart)=  0.01503927 RMS(Int)=  0.00008799
 Iteration  2 RMS(Cart)=  0.00011848 RMS(Int)=  0.00000546
 Iteration  3 RMS(Cart)=  0.00000001 RMS(Int)=  0.00000546
 Variable       Old X    -DE/DX   Delta X   Delta X   Delta X     New X
                                 (Linear)    (Quad)   (Total)
    R1        3.71990   0.00429   0.00085   0.02500   0.02585   3.74574
    R2        2.87499  -0.00039   0.00060  -0.00425  -0.00365   2.87134
    R3        2.05978  -0.00052   0.00003  -0.00162  -0.00159   2.05819
    R4        2.06162  -0.00025  -0.00000  -0.00071  -0.00071   2.06091
    R5        2.89735   0.00173   0.00028   0.00462   0.00489   2.90224
    R6        2.07522   0.00041  -0.00025   0.00237   0.00212   2.07734
    R7        2.06917   0.00004  -0.00012   0.00071   0.00059   2.06976
    R8        2.85739  -0.00214   0.00028  -0.00828  -0.00800   2.84939
    R9        2.06821  -0.00016  -0.00010   0.00006  -0.00004   2.06816
   R10        2.07283   0.00007  -0.00020   0.00117   0.00097   2.07381
   R11        2.64196   0.00107   0.00004   0.00212   0.00216   2.64412
   R12        2.63659   0.00223   0.00015   0.00413   0.00428   2.64087
   R13        2.53131  -0.00082   0.00066  -0.00474  -0.00409   2.52722
   R14        2.05564   0.00120  -0.00026   0.00453   0.00427   2.05991
   R15        2.52970   0.00084   0.00066  -0.00176  -0.00109   2.52861
   R16        2.63474   0.00019   0.00008  -0.00002   0.00006   2.63479
   R17        2.05419   0.00076  -0.00023   0.00319   0.00296   2.05715
   R18        2.63071   0.00064   0.00016   0.00061   0.00077   2.63149
   R19        2.05122  -0.00016  -0.00019   0.00049   0.00030   2.05153
   R20        2.05375   0.00022  -0.00023   0.00173   0.00150   2.05525
    A1        1.93746   0.00285  -0.00019   0.01398   0.01378   1.95124
    A2        1.84114  -0.00111   0.00061  -0.00722  -0.00661   1.83453
    A3        1.84161  -0.00107   0.00085  -0.00776  -0.00691   1.83470
    A4        1.95978  -0.00050  -0.00037  -0.00099  -0.00135   1.95843
    A5        1.96390  -0.00051  -0.00019  -0.00172  -0.00190   1.96201
    A6        1.91239   0.00029  -0.00063   0.00307   0.00245   1.91484
    A7        1.98488   0.00057   0.00002   0.00309   0.00311   1.98799
    A8        1.87937  -0.00034   0.00039  -0.00483  -0.00444   1.87492
    A9        1.90875  -0.00004  -0.00005   0.00162   0.00157   1.91032
   A10        1.90803  -0.00004  -0.00010   0.00025   0.00015   1.90818
   A11        1.91423  -0.00019   0.00004   0.00020   0.00023   1.91446
   A12        1.86451  -0.00000  -0.00032  -0.00063  -0.00095   1.86356
   A13        1.95505   0.00019   0.00008  -0.00025  -0.00017   1.95488
   A14        1.90207  -0.00040   0.00054  -0.00640  -0.00586   1.89621
   A15        1.91093  -0.00034   0.00038  -0.00516  -0.00478   1.90615
   A16        1.91795   0.00016  -0.00034   0.00356   0.00322   1.92117
   A17        1.91477   0.00011  -0.00022   0.00252   0.00230   1.91707
   A18        1.86063   0.00028  -0.00048   0.00595   0.00546   1.86608
   A19        2.11223  -0.00055  -0.00006  -0.00210  -0.00216   2.11007
   A20        2.12527   0.00126  -0.00027   0.00604   0.00576   2.13103
   A21        2.04531  -0.00071   0.00034  -0.00416  -0.00383   2.04148
   A22        2.17630  -0.00088  -0.00057  -0.00104  -0.00160   2.17470
   A23        2.09320  -0.00101   0.00034  -0.00867  -0.00833   2.08487
   A24        2.01368   0.00190   0.00023   0.00970   0.00993   2.02361
   A25        2.03838   0.00209   0.00036   0.00629   0.00666   2.04504
   A26        2.15696  -0.00097  -0.00025  -0.00318  -0.00343   2.15353
   A27        2.01770   0.00177   0.00020   0.00907   0.00927   2.02697
   A28        2.10853  -0.00080   0.00005  -0.00589  -0.00584   2.10269
   A29        2.06852  -0.00028   0.00001  -0.00113  -0.00112   2.06740
   A30        2.10369  -0.00033   0.00008  -0.00273  -0.00265   2.10104
   A31        2.11097   0.00061  -0.00009   0.00386   0.00377   2.11474
   A32        2.08090   0.00075   0.00011   0.00322   0.00333   2.08423
   A33        2.09781  -0.00056   0.00012  -0.00360  -0.00347   2.09434
   A34        2.10447  -0.00019  -0.00023   0.00037   0.00014   2.10461
    D1       -1.12212  -0.00006  -0.00019  -0.00832  -0.00851  -1.13062
    D2        3.04410  -0.00014  -0.00035  -0.00719  -0.00754   3.03655
    D3        1.02426   0.00007  -0.00016  -0.00467  -0.00482   1.01944
    D4        3.10486  -0.00023  -0.00059  -0.00787  -0.00847   3.09638
    D5        0.98788  -0.00031  -0.00076  -0.00675  -0.00751   0.98037
    D6       -1.03196  -0.00011  -0.00056  -0.00422  -0.00479  -1.03674
    D7        0.93738   0.00017   0.00064  -0.00985  -0.00921   0.92816
    D8       -1.17960   0.00009   0.00047  -0.00873  -0.00825  -1.18784
    D9        3.08375   0.00030   0.00067  -0.00620  -0.00552   3.07823
   D10       -3.12119   0.00007   0.00004  -0.01321  -0.01317  -3.13436
   D11        1.03596   0.00002   0.00004  -0.01314  -0.01310   1.02286
   D12       -0.99301   0.00009   0.00008  -0.01377  -0.01369  -1.00670
   D13       -1.02028  -0.00001   0.00048  -0.01716  -0.01668  -1.03696
   D14        3.13686  -0.00007   0.00048  -0.01709  -0.01660   3.12026
   D15        1.10789   0.00001   0.00053  -0.01772  -0.01720   1.09070
   D16        1.01863  -0.00014   0.00006  -0.01767  -0.01761   1.00102
   D17       -1.10741  -0.00020   0.00006  -0.01759  -0.01753  -1.12494
   D18       -3.13638  -0.00012   0.00010  -0.01823  -0.01812   3.12868
   D19       -1.57967   0.00006  -0.00027   0.00373   0.00347  -1.57620
   D20        1.53147  -0.00004   0.00023  -0.00498  -0.00476   1.52671
   D21        0.53725  -0.00021   0.00023  -0.00209  -0.00186   0.53539
   D22       -2.63480  -0.00031   0.00073  -0.01080  -0.01008  -2.64488
   D23        2.57754   0.00029  -0.00065   0.00869   0.00805   2.58559
   D24       -0.59451   0.00019  -0.00015  -0.00002  -0.00017  -0.59468
   D25        3.11570  -0.00018   0.00041  -0.01201  -0.01158   3.10412
   D26       -0.02896  -0.00019   0.00052  -0.01292  -0.01238  -0.04134
   D27        0.00321  -0.00012  -0.00006  -0.00386  -0.00392  -0.00071
   D28       -3.14144  -0.00012   0.00005  -0.00477  -0.00473   3.13702
   D29       -3.11601   0.00018  -0.00042   0.01123   0.01083  -3.10518
   D30        0.02981   0.00019  -0.00050   0.01206   0.01158   0.04138
   D31       -0.00376   0.00009   0.00006   0.00287   0.00293  -0.00083
   D32       -3.14113   0.00009  -0.00002   0.00370   0.00368  -3.13745
   D33       -0.00059   0.00005   0.00003   0.00155   0.00159   0.00099
   D34       -3.13925   0.00006  -0.00008   0.00246   0.00239  -3.13685
   D35       -0.00148   0.00005   0.00001   0.00174   0.00175   0.00027
   D36        3.13640   0.00005   0.00008   0.00201   0.00209   3.13849
   D37        0.00079  -0.00006  -0.00001  -0.00252  -0.00253  -0.00174
   D38        3.13789  -0.00003   0.00007  -0.00151  -0.00145   3.13645
   D39       -3.13691  -0.00008  -0.00008  -0.00283  -0.00291  -3.13982
   D40        0.00019  -0.00004  -0.00000  -0.00182  -0.00182  -0.00163
   D41        0.00195  -0.00001  -0.00003   0.00004   0.00002   0.00196
   D42        3.13930  -0.00001   0.00005  -0.00080  -0.00074   3.13856
   D43       -3.13513  -0.00004  -0.00010  -0.00096  -0.00106  -3.13619
   D44        0.00222  -0.00004  -0.00002  -0.00180  -0.00182   0.00040
         Item               Value     Threshold  Converged?
 Maximum Force            0.004294     0.000450     NO 
 RMS     Force            0.000833     0.000300     NO 
 Maximum Displacement     0.067758     0.001800     NO 
 RMS     Displacement     0.015070     0.001200     NO 
 Predicted change in Energy=-1.711763D-04
 GradGradGradGradGradGradGradGradGradGradGradGradGradGradGradGradGradGrad

                          Input orientation:                          
 ---------------------------------------------------------------------
 Center     Atomic      Atomic             Coordinates (Angstroms)
 Number     Number       Type             X           Y           Z
 ---------------------------------------------------------------------
      1         35           0        5.391742   -1.180692    1.304333
      2          6           0        4.160714   -1.051311   -0.243825
      3          6           0        2.705476   -1.030073    0.192701
      4          6           0        2.239898   -2.327536    0.869834
      5          6           0        0.789223   -2.263755    1.276065
      6          6           0        0.417245   -1.795844    2.541164
      7          7           0       -0.845504   -1.669435    2.963054
      8          6           0       -1.813400   -2.018786    2.107723
      9          6           0       -1.565074   -2.499111    0.822569
     10          6           0       -0.242595   -2.620834    0.403813
     11          1           0        4.449034   -0.136709   -0.760171
     12          1           0        4.395412   -1.915094   -0.866862
     13          1           0        2.095550   -0.848251   -0.703599
     14          1           0        2.538881   -0.182207    0.865741
     15          1           0        2.868117   -2.509125    1.747405
     16          1           0        2.397992   -3.169637    0.184132
     17          1           0        1.189548   -1.510047    3.255377
     18          1           0       -2.834566   -1.912016    2.469476
     19          1           0       -2.388441   -2.772967    0.170157
     20          1           0       -0.009154   -2.994371   -0.590586
 ---------------------------------------------------------------------
                    Distance matrix (angstroms):
                    1          2          3          4          5
     1  Br   0.000000
     2  C    1.982161   0.000000
     3  C    2.911089   1.519448   0.000000
     4  C    3.382035   2.560960   1.535800   0.000000
     5  C    4.728320   3.891920   2.523426   1.507830   0.000000
     6  C    5.162730   4.724834   3.367148   2.529448   1.399209
     7  N    6.472516   5.977321   4.548967   3.786076   2.423113
     8  C    7.298076   6.492751   5.006506   4.249343   2.743230
     9  C    7.097014   6.001497   4.559869   3.809131   2.409100
    10  C    5.884786   4.719319   3.356519   2.542828   1.397490
    11  H    2.498155   1.089147   2.178545   3.512396   4.697319
    12  H    2.499221   1.090586   2.182159   2.798653   4.209311
    13  H    3.873912   2.125448   1.099283   2.164443   2.762103
    14  H    3.054203   2.148679   1.095269   2.166066   2.750002
    15  H    2.886127   2.785861   2.152011   1.094424   2.145733
    16  H    3.764743   2.788842   2.161563   1.097413   2.145012
    17  H    4.644727   4.613316   3.450855   2.731728   2.155460
    18  H    8.340536   7.552268   6.054222   5.336825   3.831422
    19  H    8.022029   6.784314   5.383882   4.702072   3.402922
    20  H    6.004151   4.613407   3.441107   2.763282   2.157682
                    6          7          8          9         10
     6  C    0.000000
     7  N    1.337350   0.000000
     8  C    2.283277   1.338081   0.000000
     9  C    2.716200   2.405788   1.394273   0.000000
    10  C    2.384171   2.796135   2.394409   1.392524   0.000000
    11  H    5.468718   6.651600   7.140386   6.652481   5.434807
    12  H    5.239721   6.495829   6.885365   6.222752   4.860432
    13  H    3.774007   4.771633   4.955156   4.295893   3.136134
    14  H    3.148365   4.250250   4.884453   4.712998   3.727853
    15  H    2.673125   3.996731   4.720896   4.528642   3.390317
    16  H    3.371389   4.526949   4.770794   4.069778   2.705946
    17  H    1.090060   2.062108   3.254784   3.805882   3.378801
    18  H    3.254675   2.063694   1.088598   2.160693   3.389351
    19  H    3.801095   3.376198   2.157225   1.085621   2.163884
    20  H    3.380258   3.883721   3.389386   2.159439   1.087591
                   11         12         13         14         15
    11  H    0.000000
    12  H    1.782390   0.000000
    13  H    2.459346   2.540507   0.000000
    14  H    2.508854   3.074332   1.761529   0.000000
    15  H    3.796788   3.085432   3.059866   2.510035   0.000000
    16  H    3.781156   2.582277   2.503671   3.067438   1.760998
    17  H    5.351162   5.237793   4.114888   3.048642   2.467738
    18  H    8.162914   7.962647   5.958695   5.868401   5.779145
    19  H    7.386910   6.916069   4.957233   5.610202   5.494427
    20  H    5.298154   4.543277   3.008053   4.064681   3.739031
                   16         17         18         19         20
    16  H    0.000000
    17  H    3.694200   0.000000
    18  H    5.846714   4.119795   0.000000
    19  H    4.802861   4.890353   2.495422   0.000000
    20  H    2.534809   4.293196   4.303304   2.507740   0.000000
 Stoichiometry    C8H10BrN
 Framework group  C1[X(C8H10BrN)]
 Deg. of freedom    54
 Full point group                 C1      NOp   1
 Largest Abelian subgroup         C1      NOp   1
 Largest concise Abelian subgroup C1      NOp   1
                         Standard orientation:                         
 ---------------------------------------------------------------------
 Center     Atomic      Atomic             Coordinates (Angstroms)
 Number     Number       Type             X           Y           Z
 ---------------------------------------------------------------------
      1         35           0        3.024696   -0.402973   -0.091425
      2          6           0        1.993581    1.192545    0.474338
      3          6           0        0.524479    0.868484    0.687517
      4          6           0       -0.211135    0.443774   -0.592005
      5          6           0       -1.665807    0.142406   -0.333824
      6          6           0       -2.082853   -1.149662    0.004436
      7          7           0       -3.344488   -1.490511    0.288343
      8          6           0       -4.264831   -0.520332    0.241641
      9          6           0       -3.969149    0.802719   -0.084098
     10          6           0       -2.648440    1.135262   -0.374383
     11          1           0        2.476927    1.533331    1.388932
     12          1           0        2.146903    1.926024   -0.318051
     13          1           0        0.045726    1.767450    1.101133
     14          1           0        0.430379    0.083221    1.445224
     15          1           0        0.287503   -0.438164   -1.005902
     16          1           0       -0.123168    1.241217   -1.340777
     17          1           0       -1.350556   -1.956140    0.043976
     18          1           0       -5.286438   -0.816952    0.472687
     19          1           0       -4.755876    1.550286   -0.111968
     20          1           0       -2.379421    2.156191   -0.635509
 ---------------------------------------------------------------------
 Rotational constants (GHZ):           3.0820057           0.3163639           0.2959954
 Standard basis: 6-31G(d,p) (6D, 7F)
 There are   215 symmetry adapted cartesian basis functions of A   symmetry.
 There are   215 symmetry adapted basis functions of A   symmetry.
   215 basis functions,   405 primitive gaussians,   215 cartesian basis functions
    50 alpha electrons       50 beta electrons
       nuclear repulsion energy       694.1855135137 Hartrees.
 NAtoms=   20 NActive=   20 NUniq=   20 SFac= 1.00D+00 NAtFMM=   60 NAOKFM=F Big=F
 Integral buffers will be    131072 words long.
 Raffenetti 2 integral format.
 Two-electron integral symmetry is turned on.
 Nuclear repulsion after empirical dispersion term =      694.1479035579 Hartrees.
 One-electron integrals computed using PRISM.
 NBasis=   215 RedAO= T EigKep=  7.43D-04  NBF=   215
 NBsUse=   215 1.00D-06 EigRej= -1.00D+00 NBFU=   215
 Initial guess from the checkpoint file:  "pyrd10_conf-5.chk"
 B after Tr=    -0.000000    0.000000    0.000000
         Rot=    0.999999   -0.000492    0.000004   -0.001091 Ang=  -0.14 deg.
 ExpMin= 1.43D-01 ExpMax= 5.74D+05 ExpMxC= 5.74D+03 IAcc=3 IRadAn=         5 AccDes= 0.00D+00
 Harris functional with IExCor=  402 and IRadAn=       5 diagonalized for initial guess.
 HarFok:  IExCor=  402 AccDes= 0.00D+00 IRadAn=         5 IDoV= 1 UseB2=F ITyADJ=14
 ICtDFT=  3500011 ScaDFX=  1.000000  1.000000  1.000000  1.000000
 FoFCou: FMM=F IPFlag=           0 FMFlag=      100000 FMFlg1=           0
         NFxFlg=           0 DoJE=T BraDBF=F KetDBF=T FulRan=T
         wScrn=  0.000000 ICntrl=       500 IOpCl=  0 I1Cent=   200000004 NGrid=           0
         NMat0=    1 NMatS0=      1 NMatT0=    0 NMatD0=    1 NMtDS0=    0 NMtDT0=    0
 Petite list used in FoFCou.
 Requested convergence on RMS density matrix=1.00D-08 within 128 cycles.
 Requested convergence on MAX density matrix=1.00D-06.
 Requested convergence on             energy=1.00D-06.
 No special actions if energy rises.
 Integral accuracy reduced to 1.0D-05 until final iterations.
 Initial convergence to 1.0D-05 achieved.  Increase integral accuracy.
 SCF Done:  E(RB3LYP) =  -2937.38787940     A.U. after   11 cycles
            NFock= 11  Conv=0.59D-08     -V/T= 2.0066
 Calling FoFJK, ICntrl=      2127 FMM=F ISym2X=0 I1Cent= 0 IOpClX= 0 NMat=1 NMatS=1 NMatT=0.
 ***** Axes restored to original set *****
 -------------------------------------------------------------------
 Center     Atomic                   Forces (Hartrees/Bohr)
 Number     Number              X              Y              Z
 -------------------------------------------------------------------
      1       35          -0.000199135   -0.000164040    0.000122634
      2        6          -0.000949892   -0.000069445   -0.000929549
      3        6           0.000689658    0.000751940   -0.000104678
      4        6          -0.000562353   -0.000795975    0.000395621
      5        6           0.000627914   -0.000176263   -0.000956314
      6        6          -0.000100272    0.000580891    0.001518813
      7        7           0.000502773   -0.000069192   -0.000056967
      8        6          -0.000950573    0.000212374    0.000598918
      9        6          -0.000016071   -0.000296919   -0.000697047
     10        6          -0.000090908   -0.000082889   -0.000295803
     11        1           0.000204638   -0.000008204    0.000252008
     12        1           0.000275318    0.000018167    0.000209549
     13        1           0.000196591    0.000098816    0.000171812
     14        1          -0.000266771   -0.000096558   -0.000168957
     15        1           0.000080427   -0.000011461   -0.000080359
     16        1           0.000145343    0.000227838    0.000191590
     17        1          -0.000012905   -0.000148761   -0.000278429
     18        1           0.000244890   -0.000038758   -0.000272996
     19        1           0.000237153    0.000044977    0.000166900
     20        1          -0.000055825    0.000023464    0.000213258
 -------------------------------------------------------------------
 Cartesian Forces:  Max     0.001518813 RMS     0.000431215

 GradGradGradGradGradGradGradGradGradGradGradGradGradGradGradGradGradGrad
 Berny optimization.
 Using GEDIIS/GDIIS optimizer.
 FormGI is forming the generalized inverse of G from B-inverse, IUseBI=4.
 Internal  Forces:  Max     0.001020703 RMS     0.000234849
 Search for a local minimum.
 Step number   3 out of a maximum of  108
 All quantities printed in internal units (Hartrees-Bohrs-Radians)
 Mixed Optimization -- En-DIIS/RFO-DIIS
 Swapping is turned off.
 Update second derivatives using D2CorX and points    1    2    3
 DE= -1.69D-04 DEPred=-1.71D-04 R= 9.89D-01
 TightC=F SS=  1.41D+00  RLast= 7.34D-02 DXNew= 8.4853D-01 2.2006D-01
[...]
   XZ=    -0.9148   YZ=     2.9701   ZZ=    24.5547
   Eigenvalues:    23.0048    29.4641    32.6402
     16  H    Isotropic =    29.5989   Anisotropy =     6.7886
   XX=    30.2348   YX=    -0.1991   ZX=     1.1710
   XY=    -1.9395   YY=    28.5368   ZY=    -3.8771
   XZ=     0.0631   YZ=    -4.9888   ZZ=    30.0252
   Eigenvalues:    24.7532    29.9188    34.1247
     17  H    Isotropic =    22.3113   Anisotropy =    11.0627
   XX=    22.8756   YX=     5.2461   ZX=    -1.0924
   XY=     5.2320   YY=    25.1275   ZY=    -1.5978
   XZ=    -1.3905   YZ=    -1.2118   ZZ=    18.9307
   Eigenvalues:    18.5399    18.7075    29.6864
     18  H    Isotropic =    22.4601   Anisotropy =     6.9896
   XX=    20.7483   YX=     0.1833   ZX=    -0.1730
   XY=    -0.5468   YY=    26.8079   ZY=    -1.4688
   XZ=     0.1836   YZ=    -1.5228   ZZ=    19.8240
   Eigenvalues:    19.5163    20.7441    27.1198
     19  H    Isotropic =    23.9898   Anisotropy =     6.8316
   XX=    26.3778   YX=     2.4354   ZX=    -1.1583
   XY=     3.3639   YY=    23.5018   ZY=    -0.9456
   XZ=    -1.3419   YZ=    -0.8688   ZZ=    22.0898
   Eigenvalues:    21.6033    21.8219    28.5442
     20  H    Isotropic =    23.6718   Anisotropy =     9.9224
   XX=    29.3434   YX=    -3.2937   ZX=     0.0710
   XY=    -2.6928   YY=    20.7878   ZY=     0.1260
   XZ=    -0.0535   YZ=    -0.2511   ZZ=    20.8841
   Eigenvalues:    19.8415    20.8872    30.2868
 End of Minotr F.D. properties file   721 does not exist.
 End of Minotr F.D. properties file   722 does not exist.
 End of Minotr F.D. properties file   788 does not exist.

 **********************************************************************

            Population analysis using the SCF Density.

 **********************************************************************

 Orbital symmetries:
       Occupied  (A) (A) (A) (A) (A) (A) (A) (A) (A) (A) (A) (A)
                 (A) (A) (A) (A) (A) (A) (A) (A) (A) (A) (A) (A)
                 (A) (A) (A) (A) (A) (A) (A) (A) (A) (A) (A) (A)
                 (A) (A) (A) (A) (A) (A) (A) (A) (A) (A) (A) (A)
                 (A) (A)
       Virtual   (A) (A) (A) (A) (A) (A) (A) (A) (A) (A) (A) (A)
                 (A) (A) (A) (A) (A) (A) (A) (A) (A) (A) (A) (A)
                 (A) (A) (A) (A) (A) (A) (A) (A) (A) (A) (A) (A)
                 (A) (A) (A) (A) (A) (A) (A) (A) (A) (A) (A) (A)
                 (A) (A) (A) (A) (A) (A) (A) (A) (A) (A) (A) (A)
                 (A) (A) (A) (A) (A) (A) (A) (A) (A) (A) (A) (A)
                 (A) (A) (A) (A) (A) (A) (A) (A) (A) (A) (A) (A)
                 (A) (A) (A) (A) (A) (A) (A) (A) (A) (A) (A) (A)
                 (A) (A) (A) (A) (A) (A) (A) (A) (A) (A) (A) (A)
                 (A) (A) (A) (A) (A) (A) (A) (A) (A) (A) (A) (A)
                 (A) (A) (A) (A) (A) (A) (A) (A) (A) (A) (A) (A)
                 (A) (A) (A) (A) (A) (A) (A) (A) (A) (A) (A) (A)
                 (A) (A) (A) (A) (A) (A) (A) (A) (A) (A) (A) (A)
                 (A) (A) (A) (A) (A) (A) (A) (A) (A) (A) (A) (A)
                 (A) (A) (A) (A) (A) (A) (A) (A) (A) (A) (A) (A)
                 (A) (A) (A) (A) (A) (A) (A) (A) (A) (A) (A) (A)
                 (A) (A) (A) (A) (A) (A) (A) (A) (A) (A) (A) (A)
                 (A) (A) (A) (A) (A) (A) (A) (A) (A) (A) (A) (A)
                 (A) (A) (A) (A) (A) (A) (A) (A) (A) (A) (A) (A)
                 (A) (A) (A) (A) (A) (A) (A) (A) (A) (A) (A) (A)
                 (A) (A) (A) (A) (A) (A) (A) (A) (A) (A) (A) (A)
                 (A) (A) (A) (A) (A) (A) (A) (A) (A) (A) (A) (A)
                 (A) (A) (A) (A) (A) (A) (A) (A) (A) (A) (A) (A)
                 (A) (A) (A) (A) (A) (A) (A) (A) (A) (A) (A) (A)
                 (A) (A) (A) (A) (A) (A) (A) (A) (A) (A) (A) (A)
                 (A) (A) (A) (A) (A) (A) (A) (A) (A) (A) (A) (A)
                 (A) (A) (A) (A) (A) (A) (A) (A) (A) (A) (A) (A)
                 (A) (A) (A) (A) (A) (A) (A) (A) (A) (A) (A) (A)
                 (A)
 The electronic state is 1-A.
 Alpha  occ. eigenvalues -- -485.36383 -63.34886 -57.16826 -57.16592 -57.16589
 Alpha  occ. eigenvalues --  -14.75088 -10.60433 -10.57709 -10.57684 -10.56391
 Alpha  occ. eigenvalues --  -10.56204 -10.56053 -10.55479 -10.55367  -9.01521
 Alpha  occ. eigenvalues --   -6.83912  -6.83057  -6.83043  -2.87278  -2.86975
 Alpha  occ. eigenvalues --   -2.86963  -2.86164  -2.86164  -1.05329  -0.94274
 Alpha  occ. eigenvalues --   -0.91086  -0.87801  -0.83724  -0.77687  -0.71979
 Alpha  occ. eigenvalues --   -0.70492  -0.67695  -0.60194  -0.57262  -0.55105
 Alpha  occ. eigenvalues --   -0.53932  -0.51628  -0.50633  -0.47661  -0.47280
 Alpha  occ. eigenvalues --   -0.46430  -0.45056  -0.43147  -0.41683  -0.40347
 Alpha  occ. eigenvalues --   -0.34808  -0.34087  -0.33892  -0.32574  -0.31200
 Alpha virt. eigenvalues --   -0.00211   0.01165   0.02682   0.06058   0.08216
 Alpha virt. eigenvalues --    0.09207   0.09475   0.10631   0.12333   0.12591
 Alpha virt. eigenvalues --    0.13532   0.14329   0.15034   0.15637   0.16331
 Alpha virt. eigenvalues --    0.18730   0.20468   0.21209   0.21738   0.22742
 Alpha virt. eigenvalues --    0.23403   0.23825   0.24167   0.25108   0.25883
 Alpha virt. eigenvalues --    0.27883   0.28215   0.28997   0.29361   0.30595
 Alpha virt. eigenvalues --    0.30927   0.32193   0.32798   0.34198   0.34629
 Alpha virt. eigenvalues --    0.35040   0.36112   0.37155   0.37459   0.37908
 Alpha virt. eigenvalues --    0.39633   0.40256   0.40764   0.41947   0.42865
 Alpha virt. eigenvalues --    0.43414   0.43975   0.45510   0.45731   0.46118
 Alpha virt. eigenvalues --    0.46557   0.47324   0.47797   0.49117   0.49445
 Alpha virt. eigenvalues --    0.50579   0.50909   0.51401   0.53109   0.54939
 Alpha virt. eigenvalues --    0.55911   0.57437   0.57665   0.60475   0.61337
 Alpha virt. eigenvalues --    0.62182   0.62469   0.65355   0.66360   0.66906
 Alpha virt. eigenvalues --    0.68311   0.69104   0.70044   0.71866   0.72416
 Alpha virt. eigenvalues --    0.73412   0.75183   0.77551   0.79466   0.81065
 Alpha virt. eigenvalues --    0.81344   0.84072   0.84673   0.85667   0.87396
 Alpha virt. eigenvalues --    0.88973   0.90653   0.91209   0.93854   0.97955
 Alpha virt. eigenvalues --    0.99212   1.01657   1.02270   1.02434   1.05976
 Alpha virt. eigenvalues --    1.08091   1.08580   1.09394   1.12216   1.13149
 Alpha virt. eigenvalues --    1.13652   1.16441   1.18992   1.20701   1.23183
 Alpha virt. eigenvalues --    1.24512   1.26226   1.27914   1.28449   1.30354
 Alpha virt. eigenvalues --    1.32216   1.33087   1.34758   1.36436   1.39059
 Alpha virt. eigenvalues --    1.40165   1.40663   1.41897   1.42835   1.43927
 Alpha virt. eigenvalues --    1.44260   1.45983   1.48315   1.48780   1.51216
 Alpha virt. eigenvalues --    1.51679   1.54967   1.55459   1.57324   1.58009
 Alpha virt. eigenvalues --    1.58188   1.59848   1.60038   1.60934   1.61434
 Alpha virt. eigenvalues --    1.62922   1.63312   1.63917   1.64123   1.66234
 Alpha virt. eigenvalues --    1.66521   1.66866   1.68665   1.69618   1.69643
 Alpha virt. eigenvalues --    1.70472   1.72833   1.73722   1.75721   1.76904
 Alpha virt. eigenvalues --    1.77979   1.78744   1.80810   1.81249   1.82315
 Alpha virt. eigenvalues --    1.85763   1.87446   1.91798   1.92711   1.94142
 Alpha virt. eigenvalues --    1.96269   1.97014   1.97812   1.98142   2.02690
 Alpha virt. eigenvalues --    2.03266   2.06375   2.07162   2.10879   2.14153
 Alpha virt. eigenvalues --    2.15593   2.17189   2.19541   2.20772   2.24162
 Alpha virt. eigenvalues --    2.26892   2.27878   2.28826   2.30590   2.32962
 Alpha virt. eigenvalues --    2.34501   2.36100   2.39493   2.41110   2.43398
 Alpha virt. eigenvalues --    2.44422   2.47181   2.48420   2.49987   2.52588
 Alpha virt. eigenvalues --    2.53208   2.55738   2.57143   2.58210   2.59790
 Alpha virt. eigenvalues --    2.61073   2.63459   2.63823   2.64430   2.65142
 Alpha virt. eigenvalues --    2.65788   2.67055   2.67438   2.70928   2.71700
 Alpha virt. eigenvalues --    2.73471   2.74205   2.75782   2.76452   2.79175
 Alpha virt. eigenvalues --    2.81337   2.82089   2.82815   2.84963   2.86839
 Alpha virt. eigenvalues --    2.88920   2.90824   2.92229   2.95340   2.96039
 Alpha virt. eigenvalues --    2.98829   2.99782   3.02829   3.04848   3.06485
 Alpha virt. eigenvalues --    3.08131   3.09510   3.10309   3.10968   3.13022
 Alpha virt. eigenvalues --    3.13991   3.15450   3.17085   3.17797   3.19316
 Alpha virt. eigenvalues --    3.21074   3.22010   3.23379   3.24292   3.24767
 Alpha virt. eigenvalues --    3.27005   3.27803   3.28094   3.29676   3.31959
 Alpha virt. eigenvalues --    3.33121   3.34144   3.37593   3.37867   3.40133
 Alpha virt. eigenvalues --    3.40839   3.41618   3.42101   3.42975   3.44974
 Alpha virt. eigenvalues --    3.46832   3.48263   3.49258   3.51373   3.52156
 Alpha virt. eigenvalues --    3.53410   3.55911   3.60497   3.61639   3.63281
 Alpha virt. eigenvalues --    3.68013   3.70177   3.74112   3.76272   3.78914
 Alpha virt. eigenvalues --    3.81005   3.83811   3.84922   3.87157   3.89096
 Alpha virt. eigenvalues --    3.90100   3.94101   3.98680   4.00794   4.04101
 Alpha virt. eigenvalues --    4.04792   4.06150   4.08958   4.10734   4.11092
 Alpha virt. eigenvalues --    4.11900   4.13476   4.14558   4.16369   4.22791
 Alpha virt. eigenvalues --    4.25487   4.26926   4.28306   4.29680   4.34896
 Alpha virt. eigenvalues --    4.35775   4.38252   4.40151   4.44178   4.46964
 Alpha virt. eigenvalues --    4.49488   4.50818   4.53495   4.55786   4.57792
 Alpha virt. eigenvalues --    4.59669   4.62826   4.72928   4.74384   4.77137
 Alpha virt. eigenvalues --    4.79879   4.83766   4.89832   4.92141   4.92883
 Alpha virt. eigenvalues --    5.02705   5.06308   5.16277   5.16968   5.20058
 Alpha virt. eigenvalues --    5.26703   5.34467   5.41538   5.52822   5.57999
 Alpha virt. eigenvalues --    5.72546   5.95225   7.68991  22.32860  22.43622
 Alpha virt. eigenvalues --   22.52284  22.59953  22.73179  22.85495  22.88784
 Alpha virt. eigenvalues --   23.20813  32.51566
          Condensed to atoms (all electrons):
               1          2          3          4          5          6
     1  Br  35.026071   0.248497  -0.037996  -0.007434   0.001695   0.001016
     2  C    0.248497   4.941287   0.261115  -0.032202   0.009132   0.000190
     3  C   -0.037996   0.261115   5.301091   0.154970  -0.017343  -0.015175
     4  C   -0.007434  -0.032202   0.154970   5.451171   0.194733  -0.040388
     5  C    0.001695   0.009132  -0.017343   0.194733   5.103355   0.469630
     6  C    0.001016   0.000190  -0.015175  -0.040388   0.469630   4.903640
     7  N   -0.000002  -0.000001   0.000368   0.008636  -0.043171   0.510638
     8  C   -0.000011  -0.000008  -0.000094   0.000622  -0.040556  -0.116908
     9  C    0.000021  -0.000016   0.000957   0.007116  -0.048602  -0.014619
    10  C   -0.000479   0.000481  -0.010725  -0.069654   0.444532  -0.056377
    11  H   -0.041026   0.438022  -0.054265   0.010509  -0.000401   0.000008
    12  H   -0.041614   0.420933  -0.035157  -0.014315   0.000118  -0.000125
    13  H    0.007554  -0.041594   0.408928  -0.040688   0.003457   0.004209
    14  H   -0.003359  -0.032994   0.429447  -0.055897   0.004155  -0.004269
    15  H    0.006301  -0.005230  -0.048370   0.444841  -0.046400  -0.002546
    16  H   -0.000214   0.002644  -0.058349   0.420068  -0.035780   0.002225
    17  H    0.000967  -0.000093  -0.000978   0.005421  -0.086420   0.441814
    18  H   -0.000000  -0.000000   0.000014   0.000074  -0.000658   0.005828
    19  H    0.000000  -0.000001   0.000035   0.000062   0.013007  -0.002102
    20  H    0.000012   0.000064  -0.003091   0.004226  -0.049659   0.004793
               7          8          9         10         11         12
     1  Br  -0.000002  -0.000011   0.000021  -0.000479  -0.041026  -0.041614
     2  C   -0.000001  -0.000008  -0.000016   0.000481   0.438022   0.420933
     3  C    0.000368  -0.000094   0.000957  -0.010725  -0.054265  -0.035157
     4  C    0.008636   0.000622   0.007116  -0.069654   0.010509  -0.014315
     5  C   -0.043171  -0.040556  -0.048602   0.444532  -0.000401   0.000118
     6  C    0.510638  -0.116908  -0.014619  -0.056377   0.000008  -0.000125
     7  N    6.419416   0.496336  -0.043832  -0.069266  -0.000001   0.000000
     8  C    0.496336   4.827532   0.493333  -0.020393  -0.000000   0.000002
     9  C   -0.043832   0.493333   4.980780   0.468721   0.000003  -0.000019
    10  C   -0.069266  -0.020393   0.468721   5.079471  -0.000108   0.000358
    11  H   -0.000001  -0.000000   0.000003  -0.000108   0.506661  -0.026119
    12  H    0.000000   0.000002  -0.000019   0.000358  -0.026119   0.520103
    13  H   -0.000077  -0.000154   0.000375  -0.005377  -0.004184  -0.000457
    14  H   -0.000212   0.000158  -0.000492   0.005287  -0.004323   0.005481
    15  H    0.000166  -0.000142  -0.000075   0.003171  -0.000165   0.002105
    16  H   -0.000481   0.000219  -0.001013   0.000643   0.000085   0.001084
    17  H   -0.031075   0.008512  -0.001953   0.005092   0.000004   0.000019
    18  H   -0.034139   0.433795  -0.067923   0.002264  -0.000000   0.000000
    19  H    0.007245  -0.030087   0.415075  -0.058493   0.000000  -0.000000
    20  H   -0.002275   0.002831  -0.032729   0.420952   0.000004   0.000032
              13         14         15         16         17         18
     1  Br   0.007554  -0.003359   0.006301  -0.000214   0.000967  -0.000000
     2  C   -0.041594  -0.032994  -0.005230   0.002644  -0.000093  -0.000000
     3  C    0.408928   0.429447  -0.048370  -0.058349  -0.000978   0.000014
     4  C   -0.040688  -0.055897   0.444841   0.420068   0.005421   0.000074
     5  C    0.003457   0.004155  -0.046400  -0.035780  -0.086420  -0.000658
     6  C    0.004209  -0.004269  -0.002546   0.002225   0.441814   0.005828
     7  N   -0.000077  -0.000212   0.000166  -0.000481  -0.031075  -0.034139
     8  C   -0.000154   0.000158  -0.000142   0.000219   0.008512   0.433795
     9  C    0.000375  -0.000492  -0.000075  -0.001013  -0.001953  -0.067923
    10  C   -0.005377   0.005287   0.003171   0.000643   0.005092   0.002264
    11  H   -0.004184  -0.004323  -0.000165   0.000085   0.000004  -0.000000
    12  H   -0.000457   0.005481   0.002105   0.001084   0.000019   0.000000
    13  H    0.520114  -0.011348   0.003232   0.000706   0.000080  -0.000002
    14  H   -0.011348   0.483533   0.003389   0.004197   0.000610  -0.000002
    15  H    0.003232   0.003389   0.457961  -0.008296  -0.000071  -0.000002
    16  H    0.000706   0.004197  -0.008296   0.505811   0.000217  -0.000004
    17  H    0.000080   0.000610  -0.000071   0.000217   0.504613  -0.000033
    18  H   -0.000002  -0.000002  -0.000002  -0.000004  -0.000033   0.517296
    19  H    0.000011  -0.000004   0.000011  -0.000067   0.000090  -0.000332
    20  H    0.000869   0.000157   0.000221   0.001566  -0.000228  -0.000281
              19         20
     1  Br   0.000000   0.000012
     2  C   -0.000001   0.000064
     3  C    0.000035  -0.003091
     4  C    0.000062   0.004226
     5  C    0.013007  -0.049659
     6  C   -0.002102   0.004793
     7  N    0.007245  -0.002275
     8  C   -0.030087   0.002831
     9  C    0.415075  -0.032729
    10  C   -0.058493   0.420952
    11  H    0.000000   0.000004
    12  H   -0.000000   0.000032
    13  H    0.000011   0.000869
    14  H   -0.000004   0.000157
    15  H    0.000011   0.000221
    16  H   -0.000067   0.001566
    17  H    0.000090  -0.000228
    18  H   -0.000332  -0.000281
    19  H    0.519475  -0.005765
    20  H   -0.005765   0.503736
 Mulliken charges:
               1
     1  Br  -0.159998
     2  C   -0.210227
     3  C   -0.275382
     4  C   -0.441871
     5  C    0.125173
     6  C   -0.091483
     7  N   -0.218272
     8  C   -0.054987
     9  C   -0.155109
    10  C   -0.140100
    11  H    0.175296
    12  H    0.167573
    13  H    0.154346
    14  H    0.176485
    15  H    0.189897
    16  H    0.164739
    17  H    0.153412
    18  H    0.144104
    19  H    0.141839
    20  H    0.154564
 Sum of Mulliken charges =  -0.00000
 Mulliken charges with hydrogens summed into heavy atoms:
               1
     1  Br  -0.159998
     2  C    0.132642
     3  C    0.055449
     4  C   -0.087235
     5  C    0.125173
     6  C    0.061929
     7  N   -0.218272
     8  C    0.089117
     9  C   -0.013270
    10  C    0.014464
 Electronic spatial extent (au):  <R**2>=           3295.9187
 Charge=              0.0000 electrons
 Dipole moment (field-independent basis, Debye):
    X=             -0.3913    Y=              3.6920    Z=              0.1152  Tot=              3.7145
 Quadrupole moment (field-independent basis, Debye-Ang):
   XX=            -77.0855   YY=            -71.6021   ZZ=            -74.4480
   XY=             -5.2180   XZ=              1.9363   YZ=              0.9007
 Traceless Quadrupole moment (field-independent basis, Debye-Ang):
   XX=             -2.7069   YY=              2.7764   ZZ=             -0.0695
   XY=             -5.2180   XZ=              1.9363   YZ=              0.9007
 Octapole moment (field-independent basis, Debye-Ang**2):
  XXX=             46.9225  YYY=              3.3907  ZZZ=              0.0114  XYY=             47.8998
  XXY=             29.4306  XXZ=              1.8536  XZZ=             41.5950  YZZ=             -1.8059
  YYZ=             -4.7795  XYZ=              2.6816
 Hexadecapole moment (field-independent basis, Debye-Ang**3):
 XXXX=          -3213.6683 YYYY=           -456.7896 ZZZZ=           -172.3454 XXXY=           -130.3925
 XXXZ=            -24.4971 YYYX=            -83.9057 YYYZ=              2.9771 ZZZX=             -6.2669
 ZZZY=              4.0067 XXYY=           -656.6417 XXZZ=           -622.1316 YYZZ=           -103.7450
 XXYZ=             10.1407 YYXZ=              7.1469 ZZXY=             -7.7693
 N-N= 6.945842602324D+02 E-N=-8.390145314101D+03  KE= 2.934433784124D+03
 Unable to Open any file for archive entry.
 1\1\GINC-COMPUTE-0-28\SP\RM062X\def2TZVP\C8H10Br1N1\ZTAN64\14-Aug-2024
 \0\\# M062X/def2tzvp int=(grid=ultrafine) nmr=giao guess=read geom=che
 ck\\pyrd10.xyz\\0,1\Br,0,5.3845016462,-1.2057571154,1.3099207698\C,0,4
 .1596594423,-1.0483714505,-0.2428412325\C,0,2.7051693724,-1.0269300338
 ,0.1920312743\C,0,2.2386184385,-2.327730935,0.8659468514\C,0,0.7892528
 803,-2.263926453,1.2731832956\C,0,0.4188460514,-1.789210934,2.53791600
 66\N,0,-0.8431422397,-1.6614363719,2.9602203464\C,0,-1.8129223725,-2.0
 159956481,2.1082274645\C,0,-1.5656416818,-2.5051114947,0.8256123829\C,
 0,-0.2437103073,-2.6280740168,0.4053731558\H,0,4.456698687,-0.12770996
 51,-0.7428325518\H,0,4.3956518794,-1.9050714386,-0.8746969855\H,0,2.09
 65075847,-0.8421973443,-0.7041640411\H,0,2.535776156,-0.1814110616,0.8
 669232242\H,0,2.8681616788,-2.511249186,1.7420156053\H,0,2.398008498,-
 3.1671194268,0.1779637246\H,0,1.1931887329,-1.5005643422,3.2482208638\
 H,0,-2.8335096103,-1.9067672429,2.4692510454\H,0,-2.3892678406,-2.7845
 187735,0.1765788652\H,0,-0.0117469956,-3.008646766,-0.586350065\\Versi
 on=ES64L-G16RevC.01\State=1-A\HF=-2939.7888676\RMSD=2.925e-09\Dipole=-
 0.2680009,-0.2101524,-1.4211635\Quadrupole=-1.8298195,0.3864967,1.4433
 229,1.6759066,4.014679,0.1055284\PG=C01 [X(C8H10Br1N1)]\\@
 The archive entry for this job was punched.


 Make no judgements where you have no compassion.
                               -- Anne McCaffrey
 Job cpu time:       0 days  0 hours 22 minutes 10.6 seconds.
 Elapsed time:       0 days  0 hours  1 minutes 28.8 seconds.
 File lengths (MBytes):  RWF=     88 Int=      0 D2E=      0 Chk=     15 Scr=      1
 Normal termination of Gaussian 16 at Wed Aug 14 18:54:40 2024.
 
 
-----Kestrel cluster job statistics-----
Time info:

real	8m52.025s
user	135m35.164s
sys	0m18.223s
 
Disk space usage:
15M	/scratch/362952.kestrel.chem.wisc.edu
