 Entering Gaussian System, Link 0=/share/apps/gaussian/g16/g16
 Initial command:
 /share/apps/gaussian/g16/l1.exe "/scratch/362973.kestrel.chem.wisc.edu/Gau-5851.inp" -scrdir="/scratch/362973.kestrel.chem.wisc.edu/"
 Entering Link 1 = /share/apps/gaussian/g16/l1.exe PID=      5852.
  
 Copyright (c) 1988-2019, Gaussian, Inc.  All Rights Reserved.
  
 This is part of the Gaussian(R) 16 program.  It is based on
 the Gaussian(R) 09 system (copyright 2009, Gaussian, Inc.),
 the Gaussian(R) 03 system (copyright 2003, Gaussian, Inc.),
 the Gaussian(R) 98 system (copyright 1998, Gaussian, Inc.),
 the Gaussian(R) 94 system (copyright 1995, Gaussian, Inc.),
 the Gaussian 92(TM) system (copyright 1992, Gaussian, Inc.),
 the Gaussian 90(TM) system (copyright 1990, Gaussian, Inc.),
 the Gaussian 88(TM) system (copyright 1988, Gaussian, Inc.),
 the Gaussian 86(TM) system (copyright 1986, Carnegie Mellon
 University), and the Gaussian 82(TM) system (copyright 1983,
 Carnegie Mellon University). Gaussian is a federally registered
 trademark of Gaussian, Inc.
  
 This software contains proprietary and confidential information,
 including trade secrets, belonging to Gaussian, Inc.
  
 This software is provided under written license and may be
 used, copied, transmitted, or stored only in accord with that
 written license.
  
 The following legend is applicable only to US Government
 contracts under FAR:
  
                    RESTRICTED RIGHTS LEGEND
  
 Use, reproduction and disclosure by the US Government is
 subject to restrictions as set forth in subparagraphs (a)
 and (c) of the Commercial Computer Software - Restricted
 Rights clause in FAR 52.227-19.
  
 Gaussian, Inc.
 340 Quinnipiac St., Bldg. 40, Wallingford CT 06492
  
  
 ---------------------------------------------------------------
 Warning -- This program may not be used in any manner that
 competes with the business of Gaussian, Inc. or will provide
 assistance to any competitor of Gaussian, Inc.  The licensee
 of this program is prohibited from giving any competitor of
 Gaussian, Inc. access to this program.  By using this program,
 the user acknowledges that Gaussian, Inc. is engaged in the
 business of creating and licensing software in the field of
 computational chemistry and represents and warrants to the
 licensee that it is not a competitor of Gaussian, Inc. and that
 it will not use this program in any manner prohibited above.
 ---------------------------------------------------------------
  

 Cite this work as:
 Gaussian 16, Revision C.01,
 M. J. Frisch, G. W. Trucks, H. B. Schlegel, G. E. Scuseria, 
 M. A. Robb, J. R. Cheeseman, G. Scalmani, V. Barone, 
 G. A. Petersson, H. Nakatsuji, X. Li, M. Caricato, A. V. Marenich, 
 J. Bloino, B. G. Janesko, R. Gomperts, B. Mennucci, H. P. Hratchian, 
 J. V. Ortiz, A. F. Izmaylov, J. L. Sonnenberg, D. Williams-Young, 
 F. Ding, F. Lipparini, F. Egidi, J. Goings, B. Peng, A. Petrone, 
 T. Henderson, D. Ranasinghe, V. G. Zakrzewski, J. Gao, N. Rega, 
 G. Zheng, W. Liang, M. Hada, M. Ehara, K. Toyota, R. Fukuda, 
 J. Hasegawa, M. Ishida, T. Nakajima, Y. Honda, O. Kitao, H. Nakai, 
 T. Vreven, K. Throssell, J. A. Montgomery, Jr., J. E. Peralta, 
 F. Ogliaro, M. J. Bearpark, J. J. Heyd, E. N. Brothers, K. N. Kudin, 
 V. N. Staroverov, T. A. Keith, R. Kobayashi, J. Normand, 
 K. Raghavachari, A. P. Rendell, J. C. Burant, S. S. Iyengar, 
 J. Tomasi, M. Cossi, J. M. Millam, M. Klene, C. Adamo, R. Cammi, 
 J. W. Ochterski, R. L. Martin, K. Morokuma, O. Farkas, 
 J. B. Foresman, and D. J. Fox, Gaussian, Inc., Wallingford CT, 2019.
 
 ******************************************
 Gaussian 16:  ES64L-G16RevC.01  3-Jul-2019
                14-Aug-2024 
 ******************************************
 %nprocs=16
 Will use up to   16 processors via shared memory.
 %mem=16GB
 %chk=pyrd6_conf-1.chk
 ----------------------------------------------------------------------
 # B3LYP/6-31G(d,p) symmetry=loose empiricaldispersion=GD3BJ int=(grid=
 ultrafine) opt freq=noraman
 ----------------------------------------------------------------------
 1/18=20,19=15,26=4,38=1/1,3;
 2/9=110,12=2,17=4,18=3,40=1/2;
 3/5=1,6=6,7=101,11=2,25=1,30=1,71=1,74=-5,75=-5,124=41/1,2,3;
 4//1;
 5/5=2,38=5/2;
 6/7=2,8=2,9=2,10=2,28=1/1;
 7//1,2,3,16;
 1/18=20,19=15,26=4/3(2);
 2/9=110/2;
 99//99;
 2/9=110/2;
 3/5=1,6=6,7=101,11=2,25=1,30=1,71=1,74=-5,75=-5,124=41/1,2,3;
 4/5=5,16=3,69=1/1;
 5/5=2,38=5/2;
 7//1,2,3,16;
 1/18=20,19=15,26=4/3(-5);
 2/9=110/2;
 6/7=2,8=2,9=2,10=2,19=2,28=1/1;
 99/9=1/99;
 ---------
 pyrd6.xyz
 ---------
 Symbolic Z-matrix:
 Charge =  0 Multiplicity = 1
 Br                    4.4803   -2.0719   -3.3402 
 C                     3.6445   -1.1521   -1.8998 
 C                     4.4443   -0.5197   -0.9476 
 C                     3.8304    0.1577    0.1083 
 C                     4.6623    0.8466    1.1717 
 C                     2.4356    0.1761    0.1853 
 C                     1.692    -0.4815   -0.807 
 N                     0.2968   -0.5337   -0.8431 
 C                    -0.6336    0.0048    0.0238 
 O                    -1.8612   -0.3179   -0.4391 
 C                    -3.0964    0.0563    0.1821 
 C                    -3.2757    1.588     0.2166 
 C                    -3.232    -0.5525    1.593 
 C                    -4.1671   -0.5549   -0.7344 
 O                    -0.4145    0.6619    1.039 
 N                     2.2892   -1.1352   -1.8348 
 H                     5.5195   -0.5583   -1.0359 
 H                     4.2076    0.7143    2.1543 
 H                     5.6667    0.4263    1.2302 
 H                     4.7311    1.9157    0.9695 
 H                     1.957     0.6944    1.0018 
 H                    -0.0946   -1.0404   -1.6168 
 H                    -4.2715    1.8659    0.5612 
 H                    -2.5581    2.065     0.8842 
 H                    -3.1317    2.0233   -0.7723 
 H                    -4.2256   -0.3829    2.0073 
 H                    -2.5135   -0.1222    2.2906 
 H                    -3.0571   -1.6282    1.5758 
 H                    -4.0906   -0.1632   -1.7493 
 H                    -4.0605   -1.6382   -0.8009 
 H                    -5.1738   -0.3434   -0.3736 
 

 GradGradGradGradGradGradGradGradGradGradGradGradGradGradGradGradGradGrad
 Berny optimization.
 Initialization pass.
                           ----------------------------
                           !    Initial Parameters    !
                           ! (Angstroms and Degrees)  !
 --------------------------                            --------------------------
 ! Name  Definition              Value          Derivative Info.                !
 --------------------------------------------------------------------------------
 ! R1    R(1,2)                  1.9025         estimate D2E/DX2                !
 ! R2    R(2,3)                  1.3951         estimate D2E/DX2                !
 ! R3    R(2,16)                 1.357          estimate D2E/DX2                !
 ! R4    R(3,4)                  1.3967         estimate D2E/DX2                !
 ! R5    R(3,17)                 1.0795         estimate D2E/DX2                !
 ! R6    R(4,5)                  1.5157         estimate D2E/DX2                !
 ! R7    R(4,6)                  1.397          estimate D2E/DX2                !
 ! R8    R(5,18)                 1.0908         estimate D2E/DX2                !
 ! R9    R(5,19)                 1.0904         estimate D2E/DX2                !
 ! R10   R(5,20)                 1.0902         estimate D2E/DX2                !
 ! R11   R(6,7)                  1.4036         estimate D2E/DX2                !
 ! R12   R(6,21)                 1.0791         estimate D2E/DX2                !
 ! R13   R(7,8)                  1.3966         estimate D2E/DX2                !
 ! R14   R(7,16)                 1.3566         estimate D2E/DX2                !
 ! R15   R(8,9)                  1.381          estimate D2E/DX2                !
 ! R16   R(8,22)                 1.0043         estimate D2E/DX2                !
 ! R17   R(9,10)                 1.3511         estimate D2E/DX2                !
 ! R18   R(9,15)                 1.229          estimate D2E/DX2                !
 ! R19   R(10,11)                1.4324         estimate D2E/DX2                !
 ! R20   R(11,12)                1.5425         estimate D2E/DX2                !
 ! R21   R(11,13)                1.5426         estimate D2E/DX2                !
 ! R22   R(11,14)                1.5362         estimate D2E/DX2                !
 ! R23   R(12,23)                1.0898         estimate D2E/DX2                !
 ! R24   R(12,24)                1.09           estimate D2E/DX2                !
 ! R25   R(12,25)                1.09           estimate D2E/DX2                !
 ! R26   R(13,26)                1.0898         estimate D2E/DX2                !
 ! R27   R(13,27)                1.09           estimate D2E/DX2                !
 ! R28   R(13,28)                1.09           estimate D2E/DX2                !
 ! R29   R(14,29)                1.0906         estimate D2E/DX2                !
 ! R30   R(14,30)                1.0906         estimate D2E/DX2                !
 ! R31   R(14,31)                1.0901         estimate D2E/DX2                !
 ! A1    A(1,2,3)              118.9511         estimate D2E/DX2                !
 ! A2    A(1,2,16)             118.7557         estimate D2E/DX2                !
 ! A3    A(3,2,16)             122.2932         estimate D2E/DX2                !
 ! A4    A(2,3,4)              118.9387         estimate D2E/DX2                !
 ! A5    A(2,3,17)             119.9317         estimate D2E/DX2                !
 ! A6    A(4,3,17)             121.1295         estimate D2E/DX2                !
 ! A7    A(3,4,5)              120.6369         estimate D2E/DX2                !
 ! A8    A(3,4,6)              119.1369         estimate D2E/DX2                !
 ! A9    A(5,4,6)              120.2189         estimate D2E/DX2                !
 ! A10   A(4,5,18)             110.3702         estimate D2E/DX2                !
 ! A11   A(4,5,19)             111.5934         estimate D2E/DX2                !
 ! A12   A(4,5,20)             110.5001         estimate D2E/DX2                !
 ! A13   A(18,5,19)            106.793          estimate D2E/DX2                !
 ! A14   A(18,5,20)            108.1993         estimate D2E/DX2                !
 ! A15   A(19,5,20)            109.2577         estimate D2E/DX2                !
 ! A16   A(4,6,7)              118.9339         estimate D2E/DX2                !
 ! A17   A(4,6,21)             119.3967         estimate D2E/DX2                !
 ! A18   A(7,6,21)             121.6693         estimate D2E/DX2                !
 ! A19   A(6,7,8)              124.4041         estimate D2E/DX2                !
 ! A20   A(6,7,16)             121.8819         estimate D2E/DX2                !
 ! A21   A(8,7,16)             113.7141         estimate D2E/DX2                !
 ! A22   A(7,8,9)              129.9577         estimate D2E/DX2                !
 ! A23   A(7,8,22)             115.3474         estimate D2E/DX2                !
 ! A24   A(9,8,22)             114.6948         estimate D2E/DX2                !
 ! A25   A(8,9,10)             107.6943         estimate D2E/DX2                !
 ! A26   A(8,9,15)             127.3669         estimate D2E/DX2                !
 ! A27   A(10,9,15)            124.9388         estimate D2E/DX2                !
 ! A28   A(9,10,11)            124.9287         estimate D2E/DX2                !
 ! A29   A(10,11,12)           111.6755         estimate D2E/DX2                !
 ! A30   A(10,11,13)           111.6763         estimate D2E/DX2                !
 ! A31   A(10,11,14)           103.7898         estimate D2E/DX2                !
 ! A32   A(12,11,13)           111.1743         estimate D2E/DX2                !
 ! A33   A(12,11,14)           109.1107         estimate D2E/DX2                !
 ! A34   A(13,11,14)           109.1095         estimate D2E/DX2                !
 ! A35   A(11,12,23)           111.5            estimate D2E/DX2                !
 ! A36   A(11,12,24)           111.8206         estimate D2E/DX2                !
 ! A37   A(11,12,25)           111.1552         estimate D2E/DX2                !
 ! A38   A(23,12,24)           107.2357         estimate D2E/DX2                !
 ! A39   A(23,12,25)           107.8037         estimate D2E/DX2                !
 ! A40   A(24,12,25)           107.0925         estimate D2E/DX2                !
 ! A41   A(11,13,26)           111.4955         estimate D2E/DX2                !
 ! A42   A(11,13,27)           111.8156         estimate D2E/DX2                !
 ! A43   A(11,13,28)           111.1587         estimate D2E/DX2                !
 ! A44   A(26,13,27)           107.2329         estimate D2E/DX2                !
 ! A45   A(26,13,28)           107.8117         estimate D2E/DX2                !
 ! A46   A(27,13,28)           107.0938         estimate D2E/DX2                !
 ! A47   A(11,14,29)           111.3103         estimate D2E/DX2                !
 ! A48   A(11,14,30)           111.3131         estimate D2E/DX2                !
 ! A49   A(11,14,31)           111.6535         estimate D2E/DX2                !
 ! A50   A(29,14,30)           107.0484         estimate D2E/DX2                !
 ! A51   A(29,14,31)           107.6444         estimate D2E/DX2                !
 ! A52   A(30,14,31)           107.6484         estimate D2E/DX2                !
 ! A53   A(2,16,7)             118.8144         estimate D2E/DX2                !
 ! D1    D(1,2,3,4)            179.876          estimate D2E/DX2                !
 ! D2    D(1,2,3,17)            -0.0335         estimate D2E/DX2                !
 ! D3    D(16,2,3,4)            -0.1609         estimate D2E/DX2                !
 ! D4    D(16,2,3,17)          179.9296         estimate D2E/DX2                !
 ! D5    D(1,2,16,7)           179.8945         estimate D2E/DX2                !
 ! D6    D(3,2,16,7)            -0.0686         estimate D2E/DX2                !
 ! D7    D(2,3,4,5)            179.397          estimate D2E/DX2                !
 ! D8    D(2,3,4,6)              0.3748         estimate D2E/DX2                !
 ! D9    D(17,3,4,5)            -0.6946         estimate D2E/DX2                !
 ! D10   D(17,3,4,6)          -179.7168         estimate D2E/DX2                !
 ! D11   D(3,4,5,18)          -141.1379         estimate D2E/DX2                !
 ! D12   D(3,4,5,19)           -22.5564         estimate D2E/DX2                !
 ! D13   D(3,4,5,20)            99.2248         estimate D2E/DX2                !
 ! D14   D(6,4,5,18)            37.8737         estimate D2E/DX2                !
 ! D15   D(6,4,5,19)           156.4552         estimate D2E/DX2                !
 ! D16   D(6,4,5,20)           -81.7636         estimate D2E/DX2                !
 ! D17   D(3,4,6,7)             -0.3636         estimate D2E/DX2                !
 ! D18   D(3,4,6,21)           179.7234         estimate D2E/DX2                !
 ! D19   D(5,4,6,7)           -179.3899         estimate D2E/DX2                !
 ! D20   D(5,4,6,21)             0.697          estimate D2E/DX2                !
 ! D21   D(4,6,7,8)           -179.8974         estimate D2E/DX2                !
 ! D22   D(4,6,7,16)             0.1375         estimate D2E/DX2                !
 ! D23   D(21,6,7,8)             0.0136         estimate D2E/DX2                !
 ! D24   D(21,6,7,16)         -179.9515         estimate D2E/DX2                !
 ! D25   D(6,7,8,9)             -0.1518         estimate D2E/DX2                !
 ! D26   D(6,7,8,22)           179.8866         estimate D2E/DX2                !
 ! D27   D(16,7,8,9)           179.8158         estimate D2E/DX2                !
 ! D28   D(16,7,8,22)           -0.1457         estimate D2E/DX2                !
 ! D29   D(6,7,16,2)             0.0803         estimate D2E/DX2                !
 ! D30   D(8,7,16,2)          -179.8883         estimate D2E/DX2                !
 ! D31   D(7,8,9,10)           179.9757         estimate D2E/DX2                !
 ! D32   D(7,8,9,15)            -0.0343         estimate D2E/DX2                !
 ! D33   D(22,8,9,10)           -0.0626         estimate D2E/DX2                !
 ! D34   D(22,8,9,15)          179.9275         estimate D2E/DX2                !
 ! D35   D(8,9,10,11)          179.9965         estimate D2E/DX2                !
 ! D36   D(15,9,10,11)           0.0061         estimate D2E/DX2                !
 ! D37   D(9,10,11,12)          62.5943         estimate D2E/DX2                !
 ! D38   D(9,10,11,13)         -62.5924         estimate D2E/DX2                !
 ! D39   D(9,10,11,14)        -179.9985         estimate D2E/DX2                !
 ! D40   D(10,11,12,23)        172.0849         estimate D2E/DX2                !
 ! D41   D(10,11,12,24)        -67.8649         estimate D2E/DX2                !
 ! D42   D(10,11,12,25)         51.7665         estimate D2E/DX2                !
 ! D43   D(13,11,12,23)        -62.4504         estimate D2E/DX2                !
 ! D44   D(13,11,12,24)         57.5997         estimate D2E/DX2                !
 ! D45   D(13,11,12,25)        177.2311         estimate D2E/DX2                !
 ! D46   D(14,11,12,23)         57.9321         estimate D2E/DX2                !
 ! D47   D(14,11,12,24)        177.9822         estimate D2E/DX2                !
 ! D48   D(14,11,12,25)        -62.3864         estimate D2E/DX2                !
 ! D49   D(10,11,13,26)       -172.091          estimate D2E/DX2                !
 ! D50   D(10,11,13,27)         67.869          estimate D2E/DX2                !
 ! D51   D(10,11,13,28)        -51.7631         estimate D2E/DX2                !
 ! D52   D(12,11,13,26)         62.4448         estimate D2E/DX2                !
 ! D53   D(12,11,13,27)        -57.5953         estimate D2E/DX2                !
 ! D54   D(12,11,13,28)       -177.2274         estimate D2E/DX2                !
 ! D55   D(14,11,13,26)        -57.9384         estimate D2E/DX2                !
 ! D56   D(14,11,13,27)       -177.9785         estimate D2E/DX2                !
 ! D57   D(14,11,13,28)         62.3894         estimate D2E/DX2                !
 ! D58   D(10,11,14,29)        -59.6702         estimate D2E/DX2                !
 ! D59   D(10,11,14,30)         59.6699         estimate D2E/DX2                !
 ! D60   D(10,11,14,31)       -179.9966         estimate D2E/DX2                !
 ! D61   D(12,11,14,29)         59.5085         estimate D2E/DX2                !
 ! D62   D(12,11,14,30)        178.8486         estimate D2E/DX2                !
 ! D63   D(12,11,14,31)        -60.8179         estimate D2E/DX2                !
 ! D64   D(13,11,14,29)       -178.8491         estimate D2E/DX2                !
 ! D65   D(13,11,14,30)        -59.509          estimate D2E/DX2                !
 ! D66   D(13,11,14,31)         60.8244         estimate D2E/DX2                !
 --------------------------------------------------------------------------------
 Trust Radius=3.00D-01 FncErr=1.00D-07 GrdErr=1.00D-06 EigMax=2.50D+02 EigMin=1.00D-04
 Number of steps in this run=    160 maximum allowed number of steps=    186.
 GradGradGradGradGradGradGradGradGradGradGradGradGradGradGradGradGradGrad

                          Input orientation:                          
 ---------------------------------------------------------------------
 Center     Atomic      Atomic             Coordinates (Angstroms)
 Number     Number       Type             X           Y           Z
 ---------------------------------------------------------------------
      1         35           0        4.480300   -2.071900   -3.340200
      2          6           0        3.644500   -1.152100   -1.899800
      3          6           0        4.444300   -0.519700   -0.947600
      4          6           0        3.830400    0.157700    0.108300
      5          6           0        4.662300    0.846600    1.171700
      6          6           0        2.435600    0.176100    0.185300
      7          6           0        1.692000   -0.481500   -0.807000
      8          7           0        0.296800   -0.533700   -0.843100
      9          6           0       -0.633600    0.004800    0.023800
     10          8           0       -1.861200   -0.317900   -0.439100
     11          6           0       -3.096400    0.056300    0.182100
     12          6           0       -3.275700    1.588000    0.216600
     13          6           0       -3.232000   -0.552500    1.593000
     14          6           0       -4.167100   -0.554900   -0.734400
     15          8           0       -0.414500    0.661900    1.039000
     16          7           0        2.289200   -1.135200   -1.834800
     17          1           0        5.519500   -0.558300   -1.035900
     18          1           0        4.207600    0.714300    2.154300
     19          1           0        5.666700    0.426300    1.230200
     20          1           0        4.731100    1.915700    0.969500
     21          1           0        1.957000    0.694400    1.001800
     22          1           0       -0.094600   -1.040400   -1.616800
     23          1           0       -4.271500    1.865900    0.561200
     24          1           0       -2.558100    2.065000    0.884200
     25          1           0       -3.131700    2.023300   -0.772300
     26          1           0       -4.225600   -0.382900    2.007300
     27          1           0       -2.513500   -0.122200    2.290600
     28          1           0       -3.057100   -1.628200    1.575800
     29          1           0       -4.090600   -0.163200   -1.749300
     30          1           0       -4.060500   -1.638200   -0.800900
     31          1           0       -5.173800   -0.343400   -0.373600
 ---------------------------------------------------------------------
                    Distance matrix (angstroms):
                    1          2          3          4          5
     1  Br   0.000000
     2  C    1.902458   0.000000
     3  C    2.852219   1.395097   0.000000
     4  C    4.157600   2.404704   1.396663   0.000000
     5  C    5.376617   3.803266   2.530955   1.515738   0.000000
     6  C    4.654401   2.751944   2.408833   1.397045   2.526014
     7  C    4.089143   2.335845   2.756154   2.412282   3.808121
     8  N    5.109133   3.564566   4.148840   3.724181   5.002223
     9  C    6.463834   4.831231   5.196517   4.467417   5.483873
    10  O    7.190794   5.756932   6.329188   5.737609   6.819589
    11  C    8.622193   7.157812   7.646578   6.927935   7.861381
    12  C    9.284462   7.737988   8.086789   7.249424   8.029554
    13  C    9.280335   7.735982   8.085871   7.251635   8.028384
    14  C    9.158002   7.920600   8.614111   8.073286   9.140882
    15  O    7.114079   5.329411   5.380585   4.374882   5.081892
    16  N    2.818609   1.356963   2.410481   2.796878   4.312560
    17  H    2.946306   2.148150   1.079510   2.162154   2.753549
    18  H    6.166588   4.498473   3.346725   2.153648   1.090760
    19  H    5.342013   4.046917   2.670579   2.168595   1.090364
    20  H    5.876850   4.338776   3.112668   2.154876   1.090226
    21  H    5.733448   3.830992   3.385389   2.143832   2.714899
    22  H    4.996380   3.751458   4.617420   4.451633   5.827915
    23  H   10.359594   8.822012   9.161481   8.292397   9.012462
    24  H    9.192310   7.521478   7.685686   6.712134   7.328119
    25  H    9.017057   7.567781   7.993332   7.261319   8.118509
    26  H   10.355731   8.820180   9.160639   8.294431   9.011363
    27  H    9.188062   7.519382   7.684720   6.714599   7.326842
    28  H    9.009790   7.564252   7.991703   7.265029   8.116469
    29  H    8.923812   7.799509   8.579880   8.142229   9.282521
    30  H    8.920841   7.798134   8.579288   8.143599   9.281844
    31  H   10.246466   8.985861   9.636825   9.030999  10.027608
                    6          7          8          9         10
     6  C    0.000000
     7  C    1.403580   0.000000
     8  N    2.477072   1.396643   0.000000
     9  C    3.078216   2.516969   1.380993   0.000000
    10  O    4.369943   3.575940   2.206071   1.351079   0.000000
    11  C    5.533298   4.918976   3.593458   2.468420   1.432353
    12  C    5.883314   5.478013   4.288045   3.086160   2.462358
    13  C    5.885080   5.478213   4.288049   3.086204   2.462430
    14  C    6.706404   5.860009   4.465274   3.657014   2.336781
    15  O    3.014610   3.025297   2.340450   1.228990   2.288608
    16  N    2.412829   1.356593   2.305413   3.646471   4.454411
    17  H    3.397221   3.835108   5.226315   6.269026   7.408690
    18  H    2.703073   4.065400   5.082939   5.336632   6.679932
    19  H    3.405058   4.557689   5.835752   6.428596   7.746591
    20  H    2.985046   4.258949   5.380343   5.772858   7.101517
    21  H    1.079058   2.173643   2.769142   2.853636   4.204711
    22  H    3.336068   2.039629   1.004266   2.018547   2.242735
    23  H    6.926898   6.553289   5.347850   4.121506   3.402812
    24  H    5.384556   5.235281   4.229333   2.947611   2.813362
    25  H    5.943398   5.435376   4.277601   3.308870   2.684476
    26  H    6.928474   6.553472   5.347861   4.121535   3.402864
    27  H    5.386545   5.235499   4.229325   2.947632   2.813371
    28  H    5.946322   5.435679   4.277576   3.308889   2.684564
    29  H    6.815357   5.867513   4.495303   3.888825   2.590517
    30  H    6.816421   5.867644   4.495305   3.888859   2.590562
    31  H    7.647563   6.880851   5.494007   4.570841   3.313346
                   11         12         13         14         15
    11  C    0.000000
    12  C    1.542545   0.000000
    13  C    1.542616   2.545216   0.000000
    14  C    1.536208   2.508190   2.508228   0.000000
    15  O    2.879864   3.117767   3.117690   4.325223   0.000000
    16  N    5.873010   6.526268   6.524799   6.575062   4.335699
    17  H    8.723244   9.139524   9.137828   9.691292   6.403628
    18  H    7.594139   7.779319   7.567529   8.949361   4.755045
    19  H    8.833308   9.074329   8.959717  10.076013   6.088765
    20  H    8.083757   8.048794   8.360127   9.390692   5.296607
    21  H    5.159063   5.366210   5.369357   6.486890   2.372014
    22  H    3.667369   4.515445   4.514880   4.195187   3.170715
    23  H    2.190714   1.089768   2.827336   2.747681   4.068705
    24  H    2.194900   1.090031   2.794252   3.474568   2.566646
    25  H    2.186599   1.090021   3.498493   2.778598   3.537993
    26  H    2.190741   2.827254   1.089793   2.747713   4.068623
    27  H    2.194859   2.794138   1.089975   3.474514   2.566538
    28  H    2.186661   3.498450   1.089962   2.778686   3.537803
    29  H    2.183328   2.755998   3.472710   1.090552   4.687123
    30  H    2.183371   3.472691   2.756069   1.090562   4.687111
    31  H    2.187271   2.771538   2.771611   1.090116   5.065274
                   16         17         18         19         20
    16  N    0.000000
    17  H    3.377261   0.000000
    18  H    4.797273   3.676679   0.000000
    19  H    4.820790   2.475139   1.750965   0.000000
    20  H    4.809882   3.280835   1.766682   1.778096   0.000000
    21  H    3.391768   4.291024   2.528607   3.726381   3.031212
    22  H    2.395624   5.664626   5.984070   6.591600   6.222126
    23  H    7.601987  10.212304   8.703981  10.064185   9.011992
    24  H    6.413311   8.707245   7.015144   8.393592   7.291228
    25  H    6.363268   9.032021   8.008982   9.163638   8.054134
    26  H    7.600678  10.210720   8.505546   9.955716   9.305002
    27  H    6.411788   8.705451   6.774326   8.266860   7.640849
    28  H    6.360673   9.029049   7.654922   8.969119   8.578047
    29  H    6.453987   9.644639   9.212395  10.219092   9.462351
    30  H    6.452957   9.643537   9.090046  10.149185   9.646593
    31  H    7.645811  10.715946   9.773417  10.985493  10.247658
                   21         22         23         24         25
    21  H    0.000000
    22  H    3.751754   0.000000
    23  H    6.353011   5.535048   0.000000
    24  H    4.720011   4.686933   1.754910   0.000000
    25  H    5.550520   4.395841   1.761290   1.753496   0.000000
    26  H    6.355796   5.534579   2.674026   3.167669   3.835700
    27  H    4.723686   4.686357   3.167638   2.600730   3.790343
    28  H    5.555641   4.394839   3.835742   3.790388   4.341957
    29  H    6.699067   4.093294   3.080322   3.774752   2.579690
    30  H    6.700825   4.092850   3.765442   4.337102   3.777575
    31  H    7.336011   5.275379   2.563007   3.771517   3.151254
                   26         27         28         29         30
    26  H    0.000000
    27  H    1.754853   0.000000
    28  H    1.761351   1.753418   0.000000
    29  H    3.765440   4.337017   3.777650   0.000000
    30  H    3.080426   3.774763   2.579848   1.753851   0.000000
    31  H    2.563070   3.771483   3.151395   1.760212   1.760264
                   31
    31  H    0.000000
 Stoichiometry    C11H15BrN2O2
 Framework group  C1[X(C11H15BrN2O2)]
 Deg. of freedom    87
 Full point group                 C1      NOp   1
 Largest Abelian subgroup         C1      NOp   1
 Largest concise Abelian subgroup C1      NOp   1
                         Standard orientation:                         
 ---------------------------------------------------------------------
 Center     Atomic      Atomic             Coordinates (Angstroms)
 Number     Number       Type             X           Y           Z
 ---------------------------------------------------------------------
      1         35           0       -4.088821   -1.412577   -0.001975
      2          6           0       -2.657042   -0.159845    0.002192
      3          6           0       -2.952649    1.203574    0.002811
      4          6           0       -1.901338    2.123020    0.008514
      5          6           0       -2.178363    3.613172   -0.004341
      6          6           0       -0.585984    1.652309    0.005447
      7          6           0       -0.360522    0.266956    0.004504
      8          7           0        0.903609   -0.326831    0.003574
      9          6           0        2.156412    0.254219    0.000558
     10          8           0        3.070513   -0.740684    0.001446
     11          6           0        4.490124   -0.550071   -0.001026
     12          6           0        4.968822    0.182510    1.269256
     13          6           0        4.965185    0.176941   -1.275952
     14          6           0        5.051585   -1.979998    0.001295
     15          8           0        2.422095    1.454143   -0.002594
     16          7           0       -1.382403   -0.625290    0.003721
     17          1           0       -3.981062    1.531757    0.000390
     18          1           0       -1.457844    4.127820   -0.641325
     19          1           0       -3.167819    3.833928   -0.405760
     20          1           0       -2.098452    4.025070    1.001913
     21          1           0        0.229465    2.358998    0.005291
     22          1           0        0.906889   -1.331091    0.004759
     23          1           0        6.056569    0.203735    1.332111
     24          1           0        4.623570    1.216092    1.295295
     25          1           0        4.592403   -0.303770    2.169248
     26          1           0        6.052778    0.197926   -1.341905
     27          1           0        4.619893    1.210358   -1.305426
     28          1           0        4.586180   -0.313185   -2.172694
     29          1           0        4.720150   -2.534493    0.879924
     30          1           0        4.717635   -2.538387   -0.873921
     31          1           0        6.141693   -1.984111   -0.000213
 ---------------------------------------------------------------------
 Rotational constants (GHZ):           0.7746031           0.1480562           0.1279825
 Standard basis: 6-31G(d,p) (6D, 7F)
 There are   330 symmetry adapted cartesian basis functions of A   symmetry.
 There are   330 symmetry adapted basis functions of A   symmetry.
   330 basis functions,   608 primitive gaussians,   330 cartesian basis functions
    73 alpha electrons       73 beta electrons
       nuclear repulsion energy      1381.1601239673 Hartrees.
 NAtoms=   31 NActive=   31 NUniq=   31 SFac= 1.00D+00 NAtFMM=   60 NAOKFM=F Big=F
 Integral buffers will be    131072 words long.
 Raffenetti 2 integral format.
 Two-electron integral symmetry is turned on.
 Nuclear repulsion after empirical dispersion term =     1381.1015007113 Hartrees.
 One-electron integrals computed using PRISM.
 NBasis=   330 RedAO= T EigKep=  7.05D-04  NBF=   330
 NBsUse=   330 1.00D-06 EigRej= -1.00D+00 NBFU=   330
 ExpMin= 1.43D-01 ExpMax= 5.74D+05 ExpMxC= 5.74D+03 IAcc=3 IRadAn=         5 AccDes= 0.00D+00
 Harris functional with IExCor=  402 and IRadAn=       5 diagonalized for initial guess.
 HarFok:  IExCor=  402 AccDes= 0.00D+00 IRadAn=         5 IDoV= 1 UseB2=F ITyADJ=14
 ICtDFT=  3500011 ScaDFX=  1.000000  1.000000  1.000000  1.000000
 FoFCou: FMM=F IPFlag=           0 FMFlag=      100000 FMFlg1=           0
         NFxFlg=           0 DoJE=T BraDBF=F KetDBF=T FulRan=T
         wScrn=  0.000000 ICntrl=       500 IOpCl=  0 I1Cent=   200000004 NGrid=           0
         NMat0=    1 NMatS0=      1 NMatT0=    0 NMatD0=    1 NMtDS0=    0 NMtDT0=    0
 Petite list used in FoFCou.
 Requested convergence on RMS density matrix=1.00D-08 within 128 cycles.
 Requested convergence on MAX density matrix=1.00D-06.
 Requested convergence on             energy=1.00D-06.
 No special actions if energy rises.
 Integral accuracy reduced to 1.0D-05 until final iterations.
 Initial convergence to 1.0D-05 achieved.  Increase integral accuracy.
 SCF Done:  E(RB3LYP) =  -3259.98975343     A.U. after   15 cycles
            NFock= 15  Conv=0.39D-08     -V/T= 2.0069

 **********************************************************************

            Population analysis using the SCF Density.

 **********************************************************************

 Orbital symmetries:
       Occupied  (A) (A) (A) (A) (A) (A) (A) (A) (A) (A) (A) (A)
                 (A) (A) (A) (A) (A) (A) (A) (A) (A) (A) (A) (A)
                 (A) (A) (A) (A) (A) (A) (A) (A) (A) (A) (A) (A)
                 (A) (A) (A) (A) (A) (A) (A) (A) (A) (A) (A) (A)
                 (A) (A) (A) (A) (A) (A) (A) (A) (A) (A) (A) (A)
                 (A) (A) (A) (A) (A) (A) (A) (A) (A) (A) (A) (A)
                 (A)
       Virtual   (A) (A) (A) (A) (A) (A) (A) (A) (A) (A) (A) (A)
                 (A) (A) (A) (A) (A) (A) (A) (A) (A) (A) (A) (A)
                 (A) (A) (A) (A) (A) (A) (A) (A) (A) (A) (A) (A)
                 (A) (A) (A) (A) (A) (A) (A) (A) (A) (A) (A) (A)
                 (A) (A) (A) (A) (A) (A) (A) (A) (A) (A) (A) (A)
                 (A) (A) (A) (A) (A) (A) (A) (A) (A) (A) (A) (A)
                 (A) (A) (A) (A) (A) (A) (A) (A) (A) (A) (A) (A)
                 (A) (A) (A) (A) (A) (A) (A) (A) (A) (A) (A) (A)
                 (A) (A) (A) (A) (A) (A) (A) (A) (A) (A) (A) (A)
                 (A) (A) (A) (A) (A) (A) (A) (A) (A) (A) (A) (A)
                 (A) (A) (A) (A) (A) (A) (A) (A) (A) (A) (A) (A)
                 (A) (A) (A) (A) (A) (A) (A) (A) (A) (A) (A) (A)
                 (A) (A) (A) (A) (A) (A) (A) (A) (A) (A) (A) (A)
                 (A) (A) (A) (A) (A) (A) (A) (A) (A) (A) (A) (A)
                 (A) (A) (A) (A) (A) (A) (A) (A) (A) (A) (A) (A)
                 (A) (A) (A) (A) (A) (A) (A) (A) (A) (A) (A) (A)
                 (A) (A) (A) (A) (A) (A) (A) (A) (A) (A) (A) (A)
                 (A) (A) (A) (A) (A) (A) (A) (A) (A) (A) (A) (A)
                 (A) (A) (A) (A) (A) (A) (A) (A) (A) (A) (A) (A)
                 (A) (A) (A) (A) (A) (A) (A) (A) (A) (A) (A) (A)
                 (A) (A) (A) (A) (A) (A) (A) (A) (A) (A) (A) (A)
                 (A) (A) (A) (A) (A)
 The electronic state is 1-A.
 Alpha  occ. eigenvalues -- -482.91011 -61.87218 -56.39341 -56.38933 -56.38929
 Alpha  occ. eigenvalues --  -19.19129 -19.13276 -14.38525 -14.34261 -10.35139
 Alpha  occ. eigenvalues --  -10.28239 -10.28050 -10.26483 -10.22304 -10.20107
 Alpha  occ. eigenvalues --  -10.19639 -10.19593 -10.18167 -10.17724 -10.17722
 Alpha  occ. eigenvalues --   -8.58390  -6.53793  -6.52529  -6.52463  -2.65368
 Alpha  occ. eigenvalues --   -2.65015  -2.64963  -2.63955  -2.63954  -1.11083
 Alpha  occ. eigenvalues --   -1.01758  -0.97982  -0.92337  -0.82602  -0.81853
 Alpha  occ. eigenvalues --   -0.79974  -0.73746  -0.71827  -0.69731  -0.69523
 Alpha  occ. eigenvalues --   -0.67982  -0.62027  -0.60566  -0.56939  -0.52951
 Alpha  occ. eigenvalues --   -0.51282  -0.49635  -0.49226  -0.48225  -0.46428
 Alpha  occ. eigenvalues --   -0.44659  -0.44334  -0.43537  -0.42929  -0.41455
 Alpha  occ. eigenvalues --   -0.41142  -0.40464  -0.39702  -0.39011  -0.38947
 Alpha  occ. eigenvalues --   -0.37355  -0.36821  -0.36377  -0.35780  -0.33633
 Alpha  occ. eigenvalues --   -0.33561  -0.29766  -0.29573  -0.28661  -0.27647
 Alpha  occ. eigenvalues --   -0.27559  -0.26818  -0.23227
 Alpha virt. eigenvalues --   -0.03060  -0.02042   0.01221   0.04962   0.08331
 Alpha virt. eigenvalues --    0.10314   0.10482   0.10918   0.12969   0.14079
 Alpha virt. eigenvalues --    0.14722   0.14784   0.15004   0.15982   0.16517
 Alpha virt. eigenvalues --    0.17481   0.17904   0.18736   0.19119   0.19233
 Alpha virt. eigenvalues --    0.20321   0.21335   0.22371   0.22414   0.24168
 Alpha virt. eigenvalues --    0.25038   0.25267   0.26668   0.28412   0.30130
 Alpha virt. eigenvalues --    0.31794   0.33237   0.36033   0.39282   0.43580
 Alpha virt. eigenvalues --    0.43650   0.46152   0.46569   0.46728   0.47579
 Alpha virt. eigenvalues --    0.47972   0.48840   0.49230   0.49504   0.50079
 Alpha virt. eigenvalues --    0.50442   0.52622   0.53247   0.53527   0.54172
 Alpha virt. eigenvalues --    0.55221   0.55397   0.57034   0.58768   0.59694
 Alpha virt. eigenvalues --    0.60265   0.60881   0.62511   0.63153   0.65041
 Alpha virt. eigenvalues --    0.65966   0.68215   0.68893   0.69104   0.70277
 Alpha virt. eigenvalues --    0.70534   0.71185   0.73641   0.75558   0.75713
 Alpha virt. eigenvalues --    0.78448   0.79291   0.79963   0.81210   0.82121
 Alpha virt. eigenvalues --    0.82696   0.83409   0.84544   0.84796   0.85713
 Alpha virt. eigenvalues --    0.86027   0.86856   0.87610   0.87851   0.88278
 Alpha virt. eigenvalues --    0.89589   0.89793   0.91262   0.91384   0.92133
 Alpha virt. eigenvalues --    0.92401   0.94788   0.96038   0.96089   0.98055
 Alpha virt. eigenvalues --    1.01384   1.02418   1.03241   1.06134   1.08951
 Alpha virt. eigenvalues --    1.11186   1.12181   1.12845   1.18867   1.21067
 Alpha virt. eigenvalues --    1.22911   1.25175   1.25452   1.26328   1.27900
 Alpha virt. eigenvalues --    1.29986   1.32101   1.33379   1.35407   1.38657
 Alpha virt. eigenvalues --    1.39729   1.40829   1.42067   1.45190   1.46050
 Alpha virt. eigenvalues --    1.46464   1.49474   1.49948   1.53935   1.54356
 Alpha virt. eigenvalues --    1.56599   1.59879   1.62359   1.63294   1.65818
 Alpha virt. eigenvalues --    1.69204   1.70469   1.71314   1.75249   1.75893
 Alpha virt. eigenvalues --    1.78721   1.79534   1.79578   1.80615   1.81046
 Alpha virt. eigenvalues --    1.82793   1.83970   1.85473   1.86433   1.87090
 Alpha virt. eigenvalues --    1.87441   1.89963   1.90560   1.95291   1.97975
 Alpha virt. eigenvalues --    1.98914   1.99963   2.01421   2.03117   2.03835
 Alpha virt. eigenvalues --    2.03999   2.05000   2.05070   2.05792   2.07800
 Alpha virt. eigenvalues --    2.08204   2.08781   2.09459   2.11300   2.12354
 Alpha virt. eigenvalues --    2.12675   2.13512   2.14685   2.14718   2.14959
 Alpha virt. eigenvalues --    2.15962   2.17899   2.17967   2.21402   2.23752
 Alpha virt. eigenvalues --    2.27359   2.29550   2.29964   2.31126   2.32676
 Alpha virt. eigenvalues --    2.33002   2.35581   2.38924   2.39623   2.41702
 Alpha virt. eigenvalues --    2.43097   2.43228   2.48844   2.51562   2.52559
 Alpha virt. eigenvalues --    2.55355   2.57542   2.57702   2.58164   2.61032
 Alpha virt. eigenvalues --    2.62727   2.64804   2.65940   2.66732   2.69532
 Alpha virt. eigenvalues --    2.70121   2.71760   2.72858   2.73938   2.75357
 Alpha virt. eigenvalues --    2.76239   2.77696   2.78451   2.80380   2.84016
 Alpha virt. eigenvalues --    2.85501   2.86674   2.87050   2.89171   2.89394
 Alpha virt. eigenvalues --    2.94656   2.95006   2.95318   2.96441   3.04690
 Alpha virt. eigenvalues --    3.07853   3.11392   3.15517   3.17218   3.18898
 Alpha virt. eigenvalues --    3.20659   3.22936   3.23696   3.32008   3.39828
 Alpha virt. eigenvalues --    3.42160   3.42916   3.43045   3.43947   3.44499
 Alpha virt. eigenvalues --    3.45697   3.52278   3.52929   3.57313   3.69378
 Alpha virt. eigenvalues --    4.06928   4.09202   4.12355   4.17888   4.24536
 Alpha virt. eigenvalues --    4.28601   4.32323   4.37169   4.42883   4.47740
 Alpha virt. eigenvalues --    4.52932   4.55034   4.56359   4.71392   4.77012
 Alpha virt. eigenvalues --    8.60552  72.78280
          Condensed to atoms (all electrons):
               1          2          3          4          5          6
     1  Br  34.942771   0.278555  -0.068081   0.004034  -0.000161   0.000557
     2  C    0.278555   4.721725   0.471150  -0.018842   0.006945  -0.045227
     3  C   -0.068081   0.471150   5.007105   0.511789  -0.054952  -0.032727
     4  C    0.004034  -0.018842   0.511789   4.719823   0.355277   0.506260
     5  C   -0.000161   0.006945  -0.054952   0.355277   5.012177  -0.057620
     6  C    0.000557  -0.045227  -0.032727   0.506260  -0.057620   5.073549
     7  C    0.003435  -0.032819  -0.038846  -0.013276   0.005683   0.467600
     8  N   -0.000095   0.002571   0.001108   0.002043  -0.000112  -0.076052
     9  C    0.000001  -0.000060  -0.000004   0.000426  -0.000002  -0.000209
    10  O   -0.000000   0.000000   0.000000   0.000001  -0.000000   0.000117
    11  C    0.000000  -0.000000  -0.000000  -0.000000   0.000000   0.000003
    12  C   -0.000000  -0.000000  -0.000000   0.000000  -0.000000  -0.000000
    13  C   -0.000000  -0.000000  -0.000000   0.000000  -0.000000  -0.000000
    14  C   -0.000000   0.000000   0.000000  -0.000000  -0.000000  -0.000000
    15  O    0.000000   0.000003  -0.000002   0.000684  -0.000009  -0.004320
    16  N   -0.062739   0.414877  -0.044154  -0.037371   0.000260  -0.068949
    17  H   -0.000195  -0.042042   0.366255  -0.041006  -0.009037   0.005901
    18  H    0.000003  -0.000206   0.002302  -0.028466   0.377802  -0.003264
    19  H   -0.000009   0.000162  -0.003240  -0.028475   0.377071   0.003074
    20  H    0.000003  -0.000198  -0.000830  -0.024978   0.374758  -0.002391
    21  H    0.000013   0.000130   0.005829  -0.042493  -0.007840   0.351818
    22  H   -0.000057   0.000201   0.000009   0.000049   0.000002   0.006400
    23  H    0.000000   0.000000  -0.000000  -0.000000   0.000000   0.000000
    24  H    0.000000  -0.000000   0.000000  -0.000000   0.000000  -0.000002
    25  H   -0.000000  -0.000000  -0.000000  -0.000000   0.000000  -0.000000
    26  H    0.000000   0.000000  -0.000000  -0.000000  -0.000000   0.000000
    27  H    0.000000  -0.000000   0.000000  -0.000000  -0.000000  -0.000002
    28  H   -0.000000  -0.000000  -0.000000  -0.000000  -0.000000  -0.000000
    29  H   -0.000000  -0.000000   0.000000   0.000000   0.000000   0.000000
    30  H   -0.000000  -0.000000   0.000000   0.000000  -0.000000   0.000000
    31  H    0.000000  -0.000000  -0.000000  -0.000000   0.000000  -0.000000
               7          8          9         10         11         12
     1  Br   0.003435  -0.000095   0.000001  -0.000000   0.000000  -0.000000
     2  C   -0.032819   0.002571  -0.000060   0.000000  -0.000000  -0.000000
     3  C   -0.038846   0.001108  -0.000004   0.000000  -0.000000  -0.000000
     4  C   -0.013276   0.002043   0.000426   0.000001  -0.000000   0.000000
     5  C    0.005683  -0.000112  -0.000002  -0.000000   0.000000  -0.000000
     6  C    0.467600  -0.076052  -0.000209   0.000117   0.000003  -0.000000
     7  C    4.509292   0.233589  -0.024807   0.002106  -0.000067   0.000008
     8  N    0.233589   7.107451   0.289326  -0.102461   0.004325  -0.000389
     9  C   -0.024807   0.289326   4.141087   0.294242  -0.015013  -0.003614
    10  O    0.002106  -0.102461   0.294242   8.342226   0.177861  -0.042893
    11  C   -0.000067   0.004325  -0.015013   0.177861   4.611225   0.381419
    12  C    0.000008  -0.000389  -0.003614  -0.042893   0.381419   5.012332
    13  C    0.000008  -0.000388  -0.003626  -0.042879   0.381413  -0.063791
    14  C    0.000002  -0.000183   0.003634  -0.052531   0.406544  -0.065336
    15  O   -0.003241  -0.073236   0.523108  -0.071103   0.003199  -0.004712
    16  N    0.454117  -0.085814   0.002516  -0.000063   0.000001  -0.000000
    17  H    0.000318   0.000013  -0.000000   0.000000  -0.000000   0.000000
    18  H    0.000201  -0.000001  -0.000001  -0.000000   0.000000  -0.000000
    19  H   -0.000154   0.000001  -0.000000  -0.000000  -0.000000  -0.000000
    20  H   -0.000144   0.000002  -0.000000   0.000000  -0.000000   0.000000
    21  H   -0.024111  -0.007306   0.002960   0.000152   0.000000  -0.000000
    22  H   -0.014959   0.320655  -0.023387   0.009207  -0.000146   0.000055
    23  H   -0.000000   0.000004   0.000155   0.002868  -0.024806   0.368758
    24  H    0.000003   0.000067   0.001866  -0.002933  -0.023404   0.377509
    25  H   -0.000001  -0.000047   0.000482   0.000071  -0.026397   0.370828
    26  H   -0.000000   0.000004   0.000156   0.002867  -0.024806  -0.001680
    27  H    0.000003   0.000067   0.001864  -0.002933  -0.023406  -0.005870
    28  H   -0.000001  -0.000047   0.000483   0.000070  -0.026392   0.005332
    29  H   -0.000000  -0.000019   0.000028   0.000461  -0.025343  -0.006270
    30  H   -0.000000  -0.000019   0.000029   0.000461  -0.025339   0.005698
    31  H   -0.000000   0.000003  -0.000048   0.003410  -0.028184  -0.001987
              13         14         15         16         17         18
     1  Br  -0.000000  -0.000000   0.000000  -0.062739  -0.000195   0.000003
     2  C   -0.000000   0.000000   0.000003   0.414877  -0.042042  -0.000206
     3  C   -0.000000   0.000000  -0.000002  -0.044154   0.366255   0.002302
     4  C    0.000000  -0.000000   0.000684  -0.037371  -0.041006  -0.028466
     5  C   -0.000000  -0.000000  -0.000009   0.000260  -0.009037   0.377802
     6  C   -0.000000  -0.000000  -0.004320  -0.068949   0.005901  -0.003264
     7  C    0.000008   0.000002  -0.003241   0.454117   0.000318   0.000201
     8  N   -0.000388  -0.000183  -0.073236  -0.085814   0.000013  -0.000001
     9  C   -0.003626   0.003634   0.523108   0.002516  -0.000000  -0.000001
    10  O   -0.042879  -0.052531  -0.071103  -0.000063   0.000000  -0.000000
    11  C    0.381413   0.406544   0.003199   0.000001  -0.000000   0.000000
    12  C   -0.063791  -0.065336  -0.004712  -0.000000   0.000000  -0.000000
    13  C    5.012308  -0.065333  -0.004717  -0.000000   0.000000  -0.000000
    14  C   -0.065333   4.975273   0.000137  -0.000000   0.000000   0.000000
    15  O   -0.004717   0.000137   8.110112   0.000020   0.000000  -0.000004
    16  N   -0.000000  -0.000000   0.000020   6.953126   0.005163   0.000013
    17  H    0.000000   0.000000   0.000000   0.005163   0.609565   0.000067
    18  H   -0.000000   0.000000  -0.000004   0.000013   0.000067   0.575068
    19  H   -0.000000   0.000000  -0.000000   0.000005   0.004760  -0.029951
    20  H   -0.000000   0.000000  -0.000000   0.000015   0.000412  -0.027730
    21  H   -0.000000   0.000000   0.018491   0.004608  -0.000087   0.003510
    22  H    0.000055  -0.000134   0.002606   0.007570  -0.000001  -0.000000
    23  H   -0.001679  -0.003446   0.000155   0.000000  -0.000000  -0.000000
    24  H   -0.005870   0.004766   0.008609   0.000000  -0.000000  -0.000000
    25  H    0.005333  -0.006060  -0.000055   0.000000  -0.000000  -0.000000
    26  H    0.368755  -0.003446   0.000155   0.000000  -0.000000   0.000000
    27  H    0.377511   0.004767   0.008612   0.000000  -0.000000   0.000000
    28  H    0.370851  -0.006057  -0.000055   0.000000   0.000000   0.000000
    29  H    0.005699   0.372158   0.000003  -0.000000   0.000000  -0.000000
    30  H   -0.006269   0.372167   0.000003  -0.000000   0.000000   0.000000
    31  H   -0.001987   0.372875   0.000008   0.000000  -0.000000   0.000000
              19         20         21         22         23         24
     1  Br  -0.000009   0.000003   0.000013  -0.000057   0.000000   0.000000
     2  C    0.000162  -0.000198   0.000130   0.000201   0.000000  -0.000000
     3  C   -0.003240  -0.000830   0.005829   0.000009  -0.000000   0.000000
     4  C   -0.028475  -0.024978  -0.042493   0.000049  -0.000000  -0.000000
     5  C    0.377071   0.374758  -0.007840   0.000002   0.000000   0.000000
     6  C    0.003074  -0.002391   0.351818   0.006400   0.000000  -0.000002
     7  C   -0.000154  -0.000144  -0.024111  -0.014959  -0.000000   0.000003
     8  N    0.000001   0.000002  -0.007306   0.320655   0.000004   0.000067
     9  C   -0.000000  -0.000000   0.002960  -0.023387   0.000155   0.001866
    10  O   -0.000000   0.000000   0.000152   0.009207   0.002868  -0.002933
    11  C   -0.000000  -0.000000   0.000000  -0.000146  -0.024806  -0.023404
    12  C   -0.000000   0.000000  -0.000000   0.000055   0.368758   0.377509
    13  C   -0.000000  -0.000000  -0.000000   0.000055  -0.001679  -0.005870
    14  C    0.000000   0.000000   0.000000  -0.000134  -0.003446   0.004766
    15  O   -0.000000  -0.000000   0.018491   0.002606   0.000155   0.008609
    16  N    0.000005   0.000015   0.004608   0.007570   0.000000   0.000000
    17  H    0.004760   0.000412  -0.000087  -0.000001  -0.000000  -0.000000
    18  H   -0.029951  -0.027730   0.003510  -0.000000  -0.000000  -0.000000
    19  H    0.582390  -0.026950   0.000044  -0.000000   0.000000   0.000000
    20  H   -0.026950   0.567269   0.000870  -0.000000   0.000000   0.000000
    21  H    0.000044   0.000870   0.564109  -0.000274  -0.000000   0.000003
    22  H   -0.000000  -0.000000  -0.000274   0.402318  -0.000001  -0.000016
    23  H    0.000000   0.000000  -0.000000  -0.000001   0.606835  -0.027779
    24  H    0.000000   0.000000   0.000003  -0.000016  -0.027779   0.556981
    25  H    0.000000   0.000000  -0.000000   0.000007  -0.029026  -0.030060
    26  H   -0.000000  -0.000000  -0.000000  -0.000001   0.001168   0.000111
    27  H    0.000000  -0.000000   0.000003  -0.000016   0.000111   0.003062
    28  H   -0.000000   0.000000  -0.000000   0.000007  -0.000049   0.000001
    29  H    0.000000   0.000000  -0.000000   0.000039   0.000114  -0.000044
    30  H   -0.000000  -0.000000  -0.000000   0.000039   0.000000  -0.000198
    31  H    0.000000   0.000000  -0.000000   0.000002   0.001731   0.000013
              25         26         27         28         29         30
     1  Br  -0.000000   0.000000   0.000000  -0.000000  -0.000000  -0.000000
     2  C   -0.000000   0.000000  -0.000000  -0.000000  -0.000000  -0.000000
     3  C   -0.000000  -0.000000   0.000000  -0.000000   0.000000   0.000000
     4  C   -0.000000  -0.000000  -0.000000  -0.000000   0.000000   0.000000
     5  C    0.000000  -0.000000  -0.000000  -0.000000   0.000000  -0.000000
     6  C   -0.000000   0.000000  -0.000002  -0.000000   0.000000   0.000000
     7  C   -0.000001  -0.000000   0.000003  -0.000001  -0.000000  -0.000000
     8  N   -0.000047   0.000004   0.000067  -0.000047  -0.000019  -0.000019
     9  C    0.000482   0.000156   0.001864   0.000483   0.000028   0.000029
    10  O    0.000071   0.002867  -0.002933   0.000070   0.000461   0.000461
    11  C   -0.026397  -0.024806  -0.023406  -0.026392  -0.025343  -0.025339
    12  C    0.370828  -0.001680  -0.005870   0.005332  -0.006270   0.005698
    13  C    0.005333   0.368755   0.377511   0.370851   0.005699  -0.006269
    14  C   -0.006060  -0.003446   0.004767  -0.006057   0.372158   0.372167
    15  O   -0.000055   0.000155   0.008612  -0.000055   0.000003   0.000003
    16  N    0.000000   0.000000   0.000000   0.000000  -0.000000  -0.000000
    17  H   -0.000000  -0.000000  -0.000000   0.000000   0.000000   0.000000
    18  H   -0.000000   0.000000   0.000000   0.000000  -0.000000   0.000000
    19  H    0.000000  -0.000000   0.000000  -0.000000   0.000000  -0.000000
    20  H    0.000000  -0.000000  -0.000000   0.000000   0.000000  -0.000000
    21  H   -0.000000  -0.000000   0.000003  -0.000000  -0.000000  -0.000000
    22  H    0.000007  -0.000001  -0.000016   0.000007   0.000039   0.000039
    23  H   -0.029026   0.001168   0.000111  -0.000049   0.000114   0.000000
    24  H   -0.030060   0.000111   0.003062   0.000001  -0.000044  -0.000198
    25  H    0.604141  -0.000049   0.000000  -0.000205   0.004059  -0.000069
    26  H   -0.000049   0.606851  -0.027782  -0.029020   0.000000   0.000114
    27  H    0.000000  -0.027782   0.556984  -0.030060  -0.000198  -0.000044
    28  H   -0.000205  -0.029020  -0.030060   0.604065  -0.000069   0.004057
    29  H    0.004059   0.000000  -0.000198  -0.000069   0.599002  -0.031201
    30  H   -0.000069   0.000114  -0.000044   0.004057  -0.031201   0.598964
    31  H    0.000148   0.001731   0.000013   0.000148  -0.028787  -0.028781
              31
     1  Br   0.000000
     2  C   -0.000000
     3  C   -0.000000
     4  C   -0.000000
     5  C    0.000000
     6  C   -0.000000
     7  C   -0.000000
     8  N    0.000003
     9  C   -0.000048
    10  O    0.003410
    11  C   -0.028184
    12  C   -0.001987
    13  C   -0.001987
    14  C    0.372875
    15  O    0.000008
    16  N    0.000000
    17  H   -0.000000
    18  H    0.000000
    19  H    0.000000
    20  H    0.000000
    21  H   -0.000000
    22  H    0.000002
    23  H    0.001731
    24  H    0.000013
    25  H    0.000148
    26  H    0.001731
    27  H    0.000013
    28  H    0.000148
    29  H   -0.028787
    30  H   -0.028781
    31  H    0.602018
 Mulliken charges:
               1
     1  Br  -0.098034
     2  C    0.243073
     3  C   -0.122710
     4  C    0.134522
     5  C   -0.380240
     6  C   -0.124515
     7  C    0.476060
     8  N   -0.615059
     9  C    0.808409
    10  O   -0.518326
    11  C    0.277312
    12  C   -0.325398
    13  C   -0.325393
    14  C   -0.309798
    15  O   -0.514450
    16  N   -0.543199
    17  H    0.099915
    18  H    0.130657
    19  H    0.121271
    20  H    0.139893
    21  H    0.129574
    22  H    0.289771
    23  H    0.104886
    24  H    0.137316
    25  H    0.106900
    26  H    0.104872
    27  H    0.137314
    28  H    0.106941
    29  H    0.110369
    30  H    0.110388
    31  H    0.107677
 Sum of Mulliken charges =  -0.00000
 Mulliken charges with hydrogens summed into heavy atoms:
               1
     1  Br  -0.098034
     2  C    0.243073
     3  C   -0.022796
     4  C    0.134522
     5  C    0.011582
     6  C    0.005059
     7  C    0.476060
     8  N   -0.325288
     9  C    0.808409
    10  O   -0.518326
    11  C    0.277312
    12  C    0.023704
    13  C    0.023734
    14  C    0.018636
    15  O   -0.514450
    16  N   -0.543199
 Electronic spatial extent (au):  <R**2>=           7777.5330
 Charge=              0.0000 electrons
 Dipole moment (field-independent basis, Debye):
    X=              1.6835    Y=              0.9407    Z=              0.0282  Tot=              1.9287
 Quadrupole moment (field-independent basis, Debye-Ang):
   XX=            -95.7328   YY=           -102.6123   ZZ=           -107.0472
   XY=            -12.3637   XZ=             -0.0213   YZ=              0.0818
 Traceless Quadrupole moment (field-independent basis, Debye-Ang):
   XX=              6.0646   YY=             -0.8148   ZZ=             -5.2498
   XY=            -12.3637   XZ=             -0.0213   YZ=              0.0818
 Octapole moment (field-independent basis, Debye-Ang**2):
  XXX=            -32.1487  YYY=            -27.5296  ZZZ=              0.4658  XYY=            -53.6311
  XXY=            -17.0250  XXZ=             -0.5328  XZZ=            -27.1779  YZZ=            -15.2635
  YYZ=              0.2016  XYZ=             -0.1212
 Hexadecapole moment (field-independent basis, Debye-Ang**3):
 XXXX=          -6963.2615 YYYY=          -1480.9265 ZZZZ=           -291.6685 XXXY=            104.2490
 XXXZ=              3.5793 YYYX=            132.8320 YYYZ=              0.6423 ZZZX=             -0.9390
 ZZZY=              2.2816 XXYY=          -1467.6441 XXZZ=          -1302.6011 YYZZ=           -306.0549
 XXYZ=             -1.5801 YYXZ=             -0.5936 ZZXY=             58.9207
 N-N= 1.381101500711D+03 E-N=-1.049654467539D+04  KE= 3.237644479447D+03
 Calling FoFJK, ICntrl=      2127 FMM=F ISym2X=0 I1Cent= 0 IOpClX= 0 NMat=1 NMatS=1 NMatT=0.
 ***** Axes restored to original set *****
 -------------------------------------------------------------------
 Center     Atomic                   Forces (Hartrees/Bohr)
 Number     Number              X              Y              Z
 -------------------------------------------------------------------
      1       35          -0.002973644   -0.001041976   -0.001402605
      2        6          -0.036314437    0.013172215    0.020295226
      3        6           0.001896553   -0.003481804   -0.006741347
      4        6          -0.001034065   -0.001729398    0.002901333
      5        6          -0.004617339   -0.006554363   -0.002322098
      6        6           0.000575417    0.001210395    0.000416963
      7        6           0.017194324   -0.003013988   -0.006373946
      8        7          -0.001222464    0.002995755    0.004792529
      9        6          -0.002171865    0.013607622    0.021211946
     10        8           0.011581366   -0.009000732   -0.014368116
     11        6          -0.024348713    0.008550095    0.014128392
     12        6           0.008829129    0.000551816    0.001937877
     13        6           0.008768355    0.001844980    0.001102866
     14        6           0.003001917   -0.002449511   -0.003910364
     15        8           0.002847028   -0.010516875   -0.016486659
     16        7           0.017970177   -0.001445023   -0.002155644
     17        1           0.002986013   -0.000076667    0.000323954
     18        1          -0.002208055    0.001759872    0.001422251
     19        1           0.002198613    0.001039078   -0.002715996
     20        1           0.001480038    0.003051602    0.000105349
     21        1          -0.005135807   -0.000435898    0.000150487
     22        1           0.000683268   -0.003942883   -0.006022415
     23        1          -0.003414281   -0.003373416    0.000301019
     24        1           0.002314237   -0.002203991    0.001447167
     25        1          -0.000402239   -0.001306838   -0.004072372
     26        1          -0.003502088    0.001559346   -0.002886576
     27        1           0.002248308    0.002306706   -0.001421895
     28        1          -0.000365100   -0.003209210   -0.002874214
     29        1           0.001628402    0.002522878   -0.001702627
     30        1           0.001729981   -0.002538647    0.001562678
     31        1          -0.000223029    0.002148862    0.003356836
 -------------------------------------------------------------------
 Cartesian Forces:  Max     0.036314437 RMS     0.007726193

 GradGradGradGradGradGradGradGradGradGradGradGradGradGradGradGradGradGrad
 Berny optimization.
 FormGI is forming the generalized inverse of G from B-inverse, IUseBI=4.
 Internal  Forces:  Max     0.034741440 RMS     0.005337894
 Search for a local minimum.
 Step number   1 out of a maximum of  160
 All quantities printed in internal units (Hartrees-Bohrs-Radians)
 Mixed Optimization -- RFO/linear search
 Second derivative matrix not updated -- first step.
 ITU=  0
     Eigenvalues ---    0.00230   0.00230   0.00287   0.00558   0.01264
     Eigenvalues ---    0.01492   0.01736   0.01839   0.01943   0.01980
     Eigenvalues ---    0.02070   0.02081   0.02104   0.02142   0.02144
     Eigenvalues ---    0.02189   0.02228   0.02339   0.04488   0.05318
     Eigenvalues ---    0.05319   0.05357   0.05365   0.05365   0.05427
     Eigenvalues ---    0.05438   0.06815   0.07055   0.07245   0.15839
     Eigenvalues ---    0.16000   0.16000   0.16000   0.16000   0.16000
     Eigenvalues ---    0.16000   0.16000   0.16000   0.16000   0.16000
     Eigenvalues ---    0.16000   0.16000   0.16000   0.16000   0.16000
     Eigenvalues ---    0.16281   0.18131   0.22000   0.23489   0.23524
     Eigenvalues ---    0.24996   0.25000   0.25000   0.25000   0.25000
     Eigenvalues ---    0.25000   0.25000   0.28288   0.28295   0.28857
     Eigenvalues ---    0.30781   0.34725   0.34748   0.34749   0.34771
     Eigenvalues ---    0.34787   0.34799   0.34809   0.34810   0.34815
     Eigenvalues ---    0.34817   0.34837   0.34839   0.36054   0.36108
     Eigenvalues ---    0.40653   0.42019   0.43936   0.45630   0.46181
     Eigenvalues ---    0.46265   0.46946   0.48921   0.51856   0.52966
     Eigenvalues ---    0.54793   0.91509
 RFO step:  Lambda=-1.32623747D-02 EMin= 2.30000000D-03
 Linear search not attempted -- first point.
 Iteration  1 RMS(Cart)=  0.14180613 RMS(Int)=  0.00392454
 Iteration  2 RMS(Cart)=  0.00903214 RMS(Int)=  0.00016561
 Iteration  3 RMS(Cart)=  0.00002724 RMS(Int)=  0.00016527
 Iteration  4 RMS(Cart)=  0.00000000 RMS(Int)=  0.00016527
 Variable       Old X    -DE/DX   Delta X   Delta X   Delta X     New X
                                 (Linear)    (Quad)   (Total)
    R1        3.59512   0.00026   0.00000   0.00133   0.00133   3.59646
    R2        2.63635  -0.00333   0.00000  -0.00740  -0.00733   2.62902
    R3        2.56429  -0.03474   0.00000  -0.06552  -0.06549   2.49880
    R4        2.63931  -0.00048   0.00000   0.00121   0.00124   2.64055
    R5        2.03998   0.00295   0.00000   0.00789   0.00789   2.04787
    R6        2.86433  -0.00451   0.00000  -0.01404  -0.01404   2.85028
    R7        2.64003  -0.00443   0.00000  -0.00676  -0.00679   2.63324
    R8        2.06124   0.00199   0.00000   0.00552   0.00552   2.06675
    R9        2.06049   0.00148   0.00000   0.00410   0.00410   2.06459
   R10        2.06023   0.00307   0.00000   0.00849   0.00849   2.06872
   R11        2.65238  -0.00528   0.00000  -0.01109  -0.01115   2.64123
   R12        2.03912   0.00218   0.00000   0.00583   0.00583   2.04495
   R13        2.63927  -0.00778   0.00000  -0.01638  -0.01638   2.62289
   R14        2.56359  -0.01801   0.00000  -0.03469  -0.03472   2.52887
   R15        2.60970  -0.00801   0.00000  -0.01594  -0.01594   2.59376
   R16        1.89779   0.00636   0.00000   0.01318   0.01318   1.91097
   R17        2.55317  -0.00350   0.00000  -0.00623  -0.00623   2.54694
   R18        2.32245  -0.01873   0.00000  -0.02018  -0.02018   2.30227
   R19        2.70675   0.00739   0.00000   0.01761   0.01761   2.72437
   R20        2.91499  -0.00715   0.00000  -0.02413  -0.02413   2.89085
   R21        2.91512  -0.00718   0.00000  -0.02423  -0.02423   2.89089
   R22        2.90301  -0.00374   0.00000  -0.01238  -0.01238   2.89063
   R23        2.05936   0.00235   0.00000   0.00651   0.00651   2.06587
   R24        2.05986   0.00145   0.00000   0.00400   0.00400   2.06386
   R25        2.05984   0.00312   0.00000   0.00863   0.00863   2.06847
   R26        2.05941   0.00234   0.00000   0.00647   0.00647   2.06588
   R27        2.05975   0.00148   0.00000   0.00410   0.00410   2.06386
   R28        2.05973   0.00315   0.00000   0.00873   0.00873   2.06846
   R29        2.06084   0.00260   0.00000   0.00722   0.00722   2.06807
   R30        2.06086   0.00260   0.00000   0.00720   0.00720   2.06806
   R31        2.06002   0.00173   0.00000   0.00480   0.00480   2.06482
    A1        2.07609  -0.00048   0.00000   0.00023   0.00018   2.07626
    A2        2.07268  -0.01284   0.00000  -0.04673  -0.04678   2.02590
    A3        2.13442   0.01332   0.00000   0.04650   0.04660   2.18101
    A4        2.07587  -0.00571   0.00000  -0.01918  -0.01908   2.05679
    A5        2.09320   0.00336   0.00000   0.01248   0.01243   2.10563
    A6        2.11411   0.00235   0.00000   0.00670   0.00665   2.12076
    A7        2.10551   0.00283   0.00000   0.00578   0.00569   2.11120
    A8        2.07933  -0.00554   0.00000  -0.01079  -0.01085   2.06848
    A9        2.09822   0.00272   0.00000   0.00536   0.00528   2.10349
   A10        1.92632   0.00043   0.00000   0.00661   0.00659   1.93291
   A11        1.94767  -0.00131   0.00000  -0.00686  -0.00691   1.94076
   A12        1.92859   0.00119   0.00000   0.00199   0.00195   1.93054
   A13        1.86389   0.00241   0.00000   0.02328   0.02325   1.88714
   A14        1.88843  -0.00117   0.00000  -0.00815  -0.00815   1.88028
   A15        1.90691  -0.00155   0.00000  -0.01655  -0.01661   1.89030
   A16        2.07579  -0.00531   0.00000  -0.01524  -0.01533   2.06046
   A17        2.08387   0.00741   0.00000   0.03504   0.03508   2.11894
   A18        2.12353  -0.00209   0.00000  -0.01979  -0.01975   2.10378
   A19        2.17126  -0.00565   0.00000  -0.02034  -0.02030   2.15096
   A20        2.12724   0.01076   0.00000   0.03861   0.03853   2.16577
   A21        1.98468  -0.00511   0.00000  -0.01827  -0.01823   1.96645
   A22        2.26819  -0.01123   0.00000  -0.04816  -0.04816   2.22003
   A23        2.01319   0.00236   0.00000   0.00527   0.00527   2.01846
   A24        2.00180   0.00888   0.00000   0.04289   0.04289   2.04469
   A25        1.87962   0.00118   0.00000   0.00446   0.00446   1.88408
   A26        2.22297  -0.00789   0.00000  -0.02997  -0.02997   2.19300
   A27        2.18059   0.00672   0.00000   0.02551   0.02551   2.20610
   A28        2.18042  -0.02303   0.00000  -0.08750  -0.08750   2.09292
   A29        1.94910  -0.00160   0.00000  -0.02831  -0.02849   1.92062
   A30        1.94912  -0.00160   0.00000  -0.02831  -0.02849   1.92063
   A31        1.81147  -0.00018   0.00000  -0.00233  -0.00173   1.80975
   A32        1.94036   0.00008   0.00000   0.00451   0.00316   1.94352
   A33        1.90434   0.00174   0.00000   0.02860   0.02818   1.93253
   A34        1.90432   0.00174   0.00000   0.02860   0.02819   1.93251
   A35        1.94604  -0.00468   0.00000  -0.02956  -0.02983   1.91621
   A36        1.95164  -0.00266   0.00000  -0.01232  -0.01241   1.93923
   A37        1.94002  -0.00217   0.00000  -0.01305  -0.01324   1.92679
   A38        1.87162   0.00409   0.00000   0.02457   0.02440   1.89602
   A39        1.88153   0.00287   0.00000   0.01091   0.01054   1.89207
   A40        1.86912   0.00324   0.00000   0.02342   0.02342   1.89253
   A41        1.94596  -0.00468   0.00000  -0.02952  -0.02980   1.91617
   A42        1.95155  -0.00265   0.00000  -0.01226  -0.01235   1.93920
   A43        1.94009  -0.00218   0.00000  -0.01310  -0.01329   1.92680
   A44        1.87157   0.00409   0.00000   0.02461   0.02445   1.89601
   A45        1.88167   0.00287   0.00000   0.01083   0.01046   1.89213
   A46        1.86914   0.00324   0.00000   0.02342   0.02342   1.89256
   A47        1.94273  -0.00172   0.00000  -0.00871  -0.00880   1.93393
   A48        1.94278  -0.00172   0.00000  -0.00877  -0.00886   1.93393
   A49        1.94872  -0.00428   0.00000  -0.02708  -0.02727   1.92145
   A50        1.86835   0.00245   0.00000   0.01859   0.01860   1.88695
   A51        1.87875   0.00291   0.00000   0.01463   0.01445   1.89320
   A52        1.87882   0.00291   0.00000   0.01458   0.01439   1.89321
   A53        2.07370  -0.00752   0.00000  -0.03987  -0.03986   2.03384
    D1        3.13943   0.00010   0.00000   0.00326   0.00326  -3.14049
    D2       -0.00058   0.00010   0.00000   0.00302   0.00302   0.00244
    D3       -0.00281  -0.00004   0.00000  -0.00010  -0.00015  -0.00296
    D4        3.14036  -0.00003   0.00000  -0.00035  -0.00039   3.13997
    D5        3.13975  -0.00001   0.00000   0.00052   0.00052   3.14027
    D6       -0.00120   0.00012   0.00000   0.00386   0.00383   0.00264
    D7        3.13107   0.00063   0.00000   0.02013   0.02008  -3.13204
    D8        0.00654  -0.00007   0.00000  -0.00367  -0.00364   0.00290
    D9       -0.01212   0.00063   0.00000   0.02038   0.02032   0.00820
   D10       -3.13665  -0.00007   0.00000  -0.00342  -0.00340  -3.14005
   D11       -2.46332  -0.00125   0.00000  -0.02219  -0.02227  -2.48559
   D12       -0.39368   0.00121   0.00000   0.00687   0.00679  -0.38690
   D13        1.73180  -0.00084   0.00000  -0.01755  -0.01760   1.71420
   D14        0.66102  -0.00063   0.00000   0.00171   0.00177   0.66279
   D15        2.73066   0.00183   0.00000   0.03077   0.03083   2.76148
   D16       -1.42704  -0.00021   0.00000   0.00635   0.00644  -1.42061
   D17       -0.00635   0.00007   0.00000   0.00363   0.00359  -0.00275
   D18        3.13676   0.00005   0.00000   0.00257   0.00254   3.13930
   D19       -3.13094  -0.00063   0.00000  -0.02007  -0.02002   3.13222
   D20        0.01217  -0.00065   0.00000  -0.02113  -0.02108  -0.00892
   D21       -3.13980  -0.00007   0.00000  -0.00282  -0.00280   3.14058
   D22        0.00240   0.00004   0.00000   0.00014   0.00020   0.00260
   D23        0.00024  -0.00004   0.00000  -0.00169  -0.00170  -0.00146
   D24       -3.14075   0.00007   0.00000   0.00128   0.00130  -3.13945
   D25       -0.00265   0.00009   0.00000   0.00289   0.00286   0.00021
   D26        3.13961   0.00011   0.00000   0.00330   0.00327  -3.14030
   D27        3.13838  -0.00000   0.00000   0.00016   0.00019   3.13856
   D28       -0.00254   0.00001   0.00000   0.00057   0.00060  -0.00195
   D29        0.00140  -0.00012   0.00000  -0.00385  -0.00384  -0.00244
   D30       -3.13964  -0.00002   0.00000  -0.00118  -0.00111  -3.14076
   D31        3.14117   0.00001   0.00000   0.00033   0.00034   3.14151
   D32       -0.00060   0.00002   0.00000   0.00067   0.00067   0.00007
   D33       -0.00109  -0.00000   0.00000  -0.00009  -0.00009  -0.00118
   D34        3.14033   0.00001   0.00000   0.00025   0.00024   3.14057
   D35        3.14153   0.00000   0.00000   0.00012   0.00012  -3.14153
   D36        0.00011  -0.00001   0.00000  -0.00021  -0.00021  -0.00010
   D37        1.09248  -0.00117   0.00000  -0.01874  -0.01845   1.07403
   D38       -1.09244   0.00117   0.00000   0.01871   0.01842  -1.07402
   D39       -3.14157  -0.00000   0.00000  -0.00001  -0.00001  -3.14158
   D40        3.00345   0.00079   0.00000   0.02016   0.02012   3.02356
   D41       -1.18447   0.00096   0.00000   0.02268   0.02262  -1.16184
   D42        0.90350   0.00180   0.00000   0.03526   0.03506   0.93855
   D43       -1.08997  -0.00246   0.00000  -0.03515  -0.03509  -1.12505
   D44        1.00531  -0.00230   0.00000  -0.03263  -0.03258   0.97273
   D45        3.09327  -0.00145   0.00000  -0.02005  -0.02015   3.07312
   D46        1.01111   0.00088   0.00000   0.02189   0.02204   1.03314
   D47        3.10638   0.00104   0.00000   0.02440   0.02455   3.13092
   D48       -1.08885   0.00189   0.00000   0.03698   0.03698  -1.05187
   D49       -3.00355  -0.00079   0.00000  -0.02008  -0.02004  -3.02359
   D50        1.18454  -0.00096   0.00000  -0.02272  -0.02266   1.16188
   D51       -0.90344  -0.00180   0.00000  -0.03530  -0.03510  -0.93853
   D52        1.08987   0.00247   0.00000   0.03523   0.03516   1.12503
   D53       -1.00523   0.00229   0.00000   0.03259   0.03254  -0.97269
   D54       -3.09320   0.00145   0.00000   0.02001   0.02010  -3.07310
   D55       -1.01122  -0.00087   0.00000  -0.02180  -0.02196  -1.03317
   D56       -3.10631  -0.00105   0.00000  -0.02444  -0.02458  -3.13089
   D57        1.08890  -0.00189   0.00000  -0.03702  -0.03702   1.05188
   D58       -1.04144  -0.00040   0.00000  -0.00591  -0.00585  -1.04729
   D59        1.04144   0.00040   0.00000   0.00594   0.00588   1.04732
   D60       -3.14153  -0.00000   0.00000  -0.00004  -0.00004  -3.14157
   D61        1.03862  -0.00153   0.00000  -0.02641  -0.02658   1.01204
   D62        3.12150  -0.00073   0.00000  -0.01457  -0.01484   3.10666
   D63       -1.06147  -0.00113   0.00000  -0.02054  -0.02076  -1.08223
   D64       -3.12151   0.00073   0.00000   0.01460   0.01487  -3.10663
   D65       -1.03863   0.00153   0.00000   0.02645   0.02661  -1.01202
   D66        1.06159   0.00112   0.00000   0.02047   0.02069   1.08228
         Item               Value     Threshold  Converged?
 Maximum Force            0.034741     0.000450     NO 
 RMS     Force            0.005338     0.000300     NO 
 Maximum Displacement     0.541226     0.001800     NO 
 RMS     Displacement     0.147373     0.001200     NO 
 Predicted change in Energy=-7.072045D-03
 GradGradGradGradGradGradGradGradGradGradGradGradGradGradGradGradGradGrad

                          Input orientation:                          
 ---------------------------------------------------------------------
 Center     Atomic      Atomic             Coordinates (Angstroms)
 Number     Number       Type             X           Y           Z
 ---------------------------------------------------------------------
      1         35           0        4.477645   -2.029729   -3.280508
      2          6           0        3.603670   -1.123958   -1.853002
      3          6           0        4.375521   -0.490380   -0.884342
      4          6           0        3.709813    0.166384    0.153927
      5          6           0        4.476952    0.886515    1.234618
      6          6           0        2.316523    0.149436    0.166572
      7          6           0        1.657890   -0.523626   -0.866238
      8          7           0        0.275636   -0.609059   -0.958701
      9          6           0       -0.648368   -0.074555   -0.095891
     10          8           0       -1.875898   -0.390759   -0.553825
     11          6           0       -3.046308    0.047108    0.165085
     12          6           0       -3.092311    1.575510    0.210697
     13          6           0       -3.052100   -0.552638    1.572399
     14          6           0       -4.207661   -0.504944   -0.663375
     15          8           0       -0.394490    0.571135    0.905565
     16          7           0        2.281831   -1.156411   -1.866795
     17          1           0        5.457564   -0.509084   -0.940996
     18          1           0        3.989500    0.760301    2.205490
     19          1           0        5.497895    0.505907    1.314864
     20          1           0        4.525636    1.959473    1.022953
     21          1           0        1.753670    0.640936    0.949296
     22          1           0       -0.078891   -1.125087   -1.752826
     23          1           0       -4.038057    1.904432    0.649435
     24          1           0       -2.271696    1.976025    0.809834
     25          1           0       -3.017434    1.989747   -0.799712
     26          1           0       -3.996083   -0.317402    2.071077
     27          1           0       -2.231455   -0.154423    2.173024
     28          1           0       -2.948804   -1.641239    1.523594
     29          1           0       -4.184153   -0.103859   -1.681329
     30          1           0       -4.155948   -1.596273   -0.726377
     31          1           0       -5.160289   -0.229385   -0.204612
 ---------------------------------------------------------------------
                    Distance matrix (angstroms):
                    1          2          3          4          5
     1  Br   0.000000
     2  C    1.903163   0.000000
     3  C    2.849849   1.391215   0.000000
     4  C    4.148232   2.388308   1.397321   0.000000
     5  C    5.375021   3.786558   2.529055   1.508305   0.000000
     6  C    4.615363   2.712371   2.398595   1.393451   2.520212
     7  C    4.006004   2.262777   2.717894   2.393165   3.788035
     8  N    5.006594   3.484352   4.102277   3.692266   4.969754
     9  C    6.343541   4.718952   5.102355   4.371979   5.381712
    10  O    7.105529   5.679006   6.260943   5.657870   6.722252
    11  C    8.532013   7.047431   7.514901   6.757184   7.645127
    12  C    9.082428   7.508804   7.825313   6.946780   7.669216
    13  C    9.079074   7.507267   7.823619   6.946404   7.672802
    14  C    9.198310   7.925609   8.586038   7.987807   8.997835
    15  O    6.930036   5.144736   5.204189   4.192146   4.892718
    16  N    2.753701   1.322309   2.406730   2.805750   4.314031
    17  H    2.957351   2.155632   1.083687   2.170195   2.764524
    18  H    6.174038   4.491176   3.355634   2.154037   1.093679
    19  H    5.346757   4.034839   2.662483   2.158770   1.092532
    20  H    5.868204   4.316097   3.108390   2.153124   1.094720
    21  H    5.695940   3.793445   3.393553   2.164326   2.749179
    22  H    4.890216   3.683923   4.582456   4.433721   5.807502
    23  H   10.170510   8.592399   8.881210   7.955868   8.595579
    24  H    8.850456   7.156850   7.289641   6.283587   6.849213
    25  H    8.859275   7.392130   7.798331   7.034908   7.843561
    26  H   10.167379   8.590994   8.879650   7.955523   8.598919
    27  H    8.847023   7.155247   7.287831   6.283179   6.853240
    28  H    8.853388   7.389445   7.795407   7.034250   7.849517
    29  H    9.016269   7.856224   8.605382   8.109001   9.192298
    30  H    9.013901   7.855192   8.604297   8.108767   9.194385
    31  H   10.275805   8.962389   9.563568   8.886163   9.807805
                    6          7          8          9         10
     6  C    0.000000
     7  C    1.397678   0.000000
     8  N    2.450872   1.387976   0.000000
     9  C    2.984901   2.472636   1.372559   0.000000
    10  O    4.288027   3.550059   2.200154   1.347783   0.000000
    11  C    5.363807   4.849624   3.567739   2.415166   1.441672
    12  C    5.593846   5.303826   4.181255   2.964720   2.435234
    13  C    5.593869   5.303942   4.181325   2.964740   2.435259
    14  C    6.609235   5.869088   4.494219   3.629854   2.337126
    15  O    2.841396   2.924047   2.305951   1.218311   2.291206
    16  N    2.416820   1.338220   2.269152   3.590624   4.426830
    17  H    3.395069   3.800437   5.182923   6.179436   7.344629
    18  H    2.707249   4.064528   5.067548   5.244345   6.583437
    19  H    3.400997   4.534621   5.803813   6.332750   7.659559
    20  H    2.981578   4.237782   5.346664   5.670926   6.999247
    21  H    1.082143   2.159061   2.718000   2.715535   4.061716
    22  H    3.323628   2.040638   1.011241   2.042880   2.281683
    23  H    6.610132   6.374680   5.245158   3.995234   3.375006
    24  H    4.980157   4.949658   4.037236   2.767744   2.760051
    25  H    5.724643   5.308496   4.198020   3.220121   2.651485
    26  H    6.610149   6.374775   5.245207   3.995237   3.375007
    27  H    4.980189   4.949791   4.037314   2.767764   2.760069
    28  H    5.724657   5.308671   4.198118   3.220130   2.651508
    29  H    6.762964   5.913548   4.546112   3.875081   2.584883
    30  H    6.762968   5.913616   4.546152   3.875082   2.584892
    31  H    7.495599   6.856522   5.501098   4.515886   3.306844
                   11         12         13         14         15
    11  C    0.000000
    12  C    1.529774   0.000000
    13  C    1.529792   2.526829   0.000000
    14  C    1.529656   2.517199   2.517198   0.000000
    15  O    2.802687   2.961393   2.961490   4.261430   0.000000
    16  N    5.828041   6.376579   6.375219   6.632204   4.222924
    17  H    8.593522   8.875376   8.873187   9.669212   6.230827
[...]
 Alpha virt. eigenvalues --    4.11522   4.13336   4.14273   4.15414   4.17106
 Alpha virt. eigenvalues --    4.19076   4.21432   4.22432   4.24693   4.27572
 Alpha virt. eigenvalues --    4.28889   4.30296   4.31991   4.34636   4.35664
 Alpha virt. eigenvalues --    4.36763   4.38682   4.39917   4.40072   4.41304
 Alpha virt. eigenvalues --    4.44725   4.45784   4.46685   4.47808   4.48272
 Alpha virt. eigenvalues --    4.50048   4.50922   4.56092   4.58715   4.63641
 Alpha virt. eigenvalues --    4.65980   4.68264   4.69792   4.70997   4.72623
 Alpha virt. eigenvalues --    4.74337   4.77602   4.82248   4.83344   4.85240
 Alpha virt. eigenvalues --    4.86957   4.88123   4.93200   4.95263   4.98712
 Alpha virt. eigenvalues --    5.02041   5.04078   5.06049   5.09131   5.13301
 Alpha virt. eigenvalues --    5.18598   5.20624   5.20724   5.23568   5.26424
 Alpha virt. eigenvalues --    5.29444   5.30012   5.30875   5.34415   5.35447
 Alpha virt. eigenvalues --    5.37954   5.43801   5.48564   5.50896   5.55669
 Alpha virt. eigenvalues --    5.65913   5.69425   5.69541   5.78920   5.82287
 Alpha virt. eigenvalues --    5.85174   5.95877   6.01648   6.07221   6.17645
 Alpha virt. eigenvalues --    6.20898   6.35390   6.38477   6.39655   6.56506
 Alpha virt. eigenvalues --    6.66216   6.71568   6.78611   6.93310   6.94892
 Alpha virt. eigenvalues --    7.07744   7.16765   7.40791   7.43493   7.83744
 Alpha virt. eigenvalues --   22.47464  22.48414  22.51378  22.51706  22.53434
 Alpha virt. eigenvalues --   22.70770  22.80814  22.95326  23.13601  23.30377
 Alpha virt. eigenvalues --   23.59824  32.60972  32.85767  44.09088  44.58689
          Condensed to atoms (all electrons):
               1          2          3          4          5          6
     1  Br  34.930027   0.333659  -0.096924   0.020639  -0.000807  -0.000644
     2  C    0.333659   4.656014   0.462269  -0.041315   0.003835  -0.049763
     3  C   -0.096924   0.462269   5.353523   0.392996  -0.065550  -0.022623
     4  C    0.020639  -0.041315   0.392996   4.997949   0.268284   0.427196
     5  C   -0.000807   0.003835  -0.065550   0.268284   5.076406  -0.059578
     6  C   -0.000644  -0.049763  -0.022623   0.427196  -0.059578   5.322837
     7  C   -0.004287  -0.065643  -0.065371  -0.036316   0.011342   0.438721
     8  N   -0.000508   0.002888   0.000865   0.003612  -0.000258  -0.051117
     9  C   -0.000059  -0.000748   0.000235  -0.000012   0.000069  -0.011508
    10  O   -0.000000   0.000015  -0.000007   0.000030  -0.000001   0.000221
    11  C   -0.000000  -0.000009   0.000002  -0.000015  -0.000000  -0.000169
    12  C   -0.000000   0.000001  -0.000000  -0.000003  -0.000000  -0.000075
    13  C   -0.000000   0.000001  -0.000001  -0.000007   0.000001  -0.000083
    14  C   -0.000000  -0.000000   0.000000  -0.000002  -0.000000  -0.000001
    15  O    0.000000   0.000297  -0.000235   0.002785  -0.000054  -0.002054
    16  N   -0.070446   0.580455  -0.103890   0.007718  -0.001121  -0.093511
    17  H   -0.005865  -0.009697   0.388515  -0.031704  -0.002419   0.003325
    18  H    0.000021  -0.000409   0.008962  -0.048947   0.431810  -0.017150
    19  H   -0.000026   0.002465  -0.018029  -0.053956   0.429566   0.015487
    20  H    0.000026  -0.000858  -0.001270  -0.015475   0.388452  -0.008797
    21  H    0.000110   0.000458   0.005698  -0.022584  -0.007422   0.371614
    22  H   -0.000466   0.000621   0.001153  -0.000548   0.000047   0.009296
    23  H   -0.000000  -0.000000   0.000000  -0.000000   0.000000   0.000004
    24  H    0.000000  -0.000000   0.000001  -0.000008  -0.000000   0.000036
    25  H    0.000000  -0.000000  -0.000000   0.000000  -0.000000  -0.000026
    26  H   -0.000000  -0.000000   0.000000   0.000000  -0.000000   0.000005
    27  H    0.000000  -0.000000   0.000001  -0.000005  -0.000001   0.000033
    28  H    0.000000  -0.000000  -0.000000   0.000000  -0.000000  -0.000025
    29  H    0.000000  -0.000000  -0.000000   0.000000  -0.000000  -0.000003
    30  H    0.000000  -0.000000  -0.000000   0.000000  -0.000000  -0.000003
    31  H    0.000000  -0.000000  -0.000000   0.000000   0.000000  -0.000000
               7          8          9         10         11         12
     1  Br  -0.004287  -0.000508  -0.000059  -0.000000  -0.000000  -0.000000
     2  C   -0.065643   0.002888  -0.000748   0.000015  -0.000009   0.000001
     3  C   -0.065371   0.000865   0.000235  -0.000007   0.000002  -0.000000
     4  C   -0.036316   0.003612  -0.000012   0.000030  -0.000015  -0.000003
     5  C    0.011342  -0.000258   0.000069  -0.000001  -0.000000  -0.000000
     6  C    0.438721  -0.051117  -0.011508   0.000221  -0.000169  -0.000075
     7  C    4.633169   0.322223  -0.015808   0.001528  -0.000310   0.000265
     8  N    0.322223   6.574489   0.408791  -0.100040   0.008664  -0.001418
     9  C   -0.015808   0.408791   4.259649   0.365525  -0.043607  -0.005998
    10  O    0.001528  -0.100040   0.365525   8.058394   0.165280  -0.038712
    11  C   -0.000310   0.008664  -0.043607   0.165280   5.060364   0.300963
    12  C    0.000265  -0.001418  -0.005998  -0.038712   0.300963   5.224712
    13  C    0.000295  -0.001429  -0.006104  -0.038775   0.301168  -0.096873
    14  C    0.000047   0.000419  -0.002789  -0.054743   0.311516  -0.096083
    15  O   -0.014082  -0.079656   0.553824  -0.070120   0.040747  -0.027866
    16  N    0.507689  -0.107562   0.003423  -0.000118   0.000012   0.000003
    17  H    0.001319   0.000070   0.000009   0.000000   0.000000   0.000000
    18  H    0.003503  -0.000035  -0.000012  -0.000000  -0.000000   0.000000
    19  H   -0.000994   0.000006  -0.000001   0.000000   0.000000  -0.000000
    20  H   -0.001731   0.000008  -0.000004  -0.000000  -0.000000   0.000000
    21  H    0.000921   0.000640  -0.007431   0.000305   0.000072  -0.000075
    22  H   -0.044518   0.372830  -0.033816   0.007458  -0.000502   0.000285
    23  H   -0.000008   0.000019   0.001657   0.004973  -0.023785   0.398219
    24  H   -0.000069   0.000330  -0.004948  -0.002239  -0.025601   0.408794
    25  H    0.000035   0.000084  -0.002227   0.001230  -0.030503   0.398054
    26  H   -0.000009   0.000018   0.001657   0.004975  -0.023793  -0.005988
    27  H   -0.000075   0.000333  -0.004935  -0.002246  -0.025629  -0.010055
    28  H    0.000035   0.000089  -0.002207   0.001229  -0.030530   0.012910
    29  H   -0.000000  -0.000039  -0.000864  -0.000638  -0.028012  -0.012876
    30  H   -0.000001  -0.000037  -0.000859  -0.000633  -0.028018   0.013451
    31  H   -0.000002   0.000000   0.000460   0.005555  -0.026635  -0.009837
              13         14         15         16         17         18
     1  Br  -0.000000  -0.000000   0.000000  -0.070446  -0.005865   0.000021
     2  C    0.000001  -0.000000   0.000297   0.580455  -0.009697  -0.000409
     3  C   -0.000001   0.000000  -0.000235  -0.103890   0.388515   0.008962
     4  C   -0.000007  -0.000002   0.002785   0.007718  -0.031704  -0.048947
     5  C    0.000001  -0.000000  -0.000054  -0.001121  -0.002419   0.431810
     6  C   -0.000083  -0.000001  -0.002054  -0.093511   0.003325  -0.017150
     7  C    0.000295   0.000047  -0.014082   0.507689   0.001319   0.003503
     8  N   -0.001429   0.000419  -0.079656  -0.107562   0.000070  -0.000035
     9  C   -0.006104  -0.002789   0.553824   0.003423   0.000009  -0.000012
    10  O   -0.038775  -0.054743  -0.070120  -0.000118   0.000000  -0.000000
    11  C    0.301168   0.311516   0.040747   0.000012   0.000000  -0.000000
    12  C   -0.096873  -0.096083  -0.027866   0.000003   0.000000   0.000000
    13  C    5.224508  -0.096071  -0.027747   0.000004   0.000000  -0.000000
    14  C   -0.096071   5.149708   0.001063  -0.000001   0.000000  -0.000000
    15  O   -0.027747   0.001063   8.023565   0.000164   0.000001   0.000013
    16  N    0.000004  -0.000001   0.000164   6.536329   0.004789   0.000080
    17  H    0.000000   0.000000   0.000001   0.004789   0.482944  -0.000099
    18  H   -0.000000  -0.000000   0.000013   0.000080  -0.000099   0.517236
    19  H    0.000000   0.000000   0.000001   0.000068   0.000421  -0.026327
    20  H    0.000000  -0.000000  -0.000006   0.000149   0.000396  -0.025003
    21  H   -0.000071   0.000008   0.015129   0.003248  -0.000093  -0.001208
    22  H    0.000287  -0.000317   0.003084   0.012980  -0.000006  -0.000000
    23  H   -0.005985  -0.012795   0.000761   0.000000  -0.000000  -0.000000
    24  H   -0.010039   0.011665   0.006930   0.000000   0.000000  -0.000000
    25  H    0.012913  -0.010355  -0.000288   0.000000  -0.000000  -0.000000
    26  H    0.398247  -0.012780   0.000762   0.000000  -0.000000   0.000000
    27  H    0.408843   0.011667   0.006939   0.000000   0.000000   0.000000
    28  H    0.398092  -0.010365  -0.000299   0.000000  -0.000000   0.000000
    29  H    0.013450   0.404380  -0.000003  -0.000000  -0.000000  -0.000000
    30  H   -0.012875   0.404377  -0.000003  -0.000000  -0.000000   0.000000
    31  H   -0.009844   0.407774   0.000078   0.000000  -0.000000   0.000000
              19         20         21         22         23         24
     1  Br  -0.000026   0.000026   0.000110  -0.000466  -0.000000   0.000000
     2  C    0.002465  -0.000858   0.000458   0.000621  -0.000000  -0.000000
     3  C   -0.018029  -0.001270   0.005698   0.001153   0.000000   0.000001
     4  C   -0.053956  -0.015475  -0.022584  -0.000548  -0.000000  -0.000008
     5  C    0.429566   0.388452  -0.007422   0.000047   0.000000  -0.000000
     6  C    0.015487  -0.008797   0.371614   0.009296   0.000004   0.000036
     7  C   -0.000994  -0.001731   0.000921  -0.044518  -0.000008  -0.000069
     8  N    0.000006   0.000008   0.000640   0.372830   0.000019   0.000330
     9  C   -0.000001  -0.000004  -0.007431  -0.033816   0.001657  -0.004948
    10  O    0.000000  -0.000000   0.000305   0.007458   0.004973  -0.002239
    11  C    0.000000  -0.000000   0.000072  -0.000502  -0.023785  -0.025601
    12  C   -0.000000   0.000000  -0.000075   0.000285   0.398219   0.408794
    13  C    0.000000   0.000000  -0.000071   0.000287  -0.005985  -0.010039
    14  C    0.000000  -0.000000   0.000008  -0.000317  -0.012795   0.011665
    15  O    0.000001  -0.000006   0.015129   0.003084   0.000761   0.006930
    16  N    0.000068   0.000149   0.003248   0.012980   0.000000   0.000000
    17  H    0.000421   0.000396  -0.000093  -0.000006  -0.000000   0.000000
    18  H   -0.026327  -0.025003  -0.001208  -0.000000  -0.000000  -0.000000
    19  H    0.525219  -0.025383   0.000069  -0.000001   0.000000   0.000000
    20  H   -0.025383   0.519575   0.001039  -0.000002  -0.000000  -0.000000
    21  H    0.000069   0.001039   0.429388  -0.000694   0.000001   0.000165
    22  H   -0.000001  -0.000002  -0.000694   0.410674  -0.000006  -0.000072
    23  H    0.000000  -0.000000   0.000001  -0.000006   0.525737  -0.019284
    24  H    0.000000  -0.000000   0.000165  -0.000072  -0.019284   0.469339
    25  H   -0.000000   0.000000  -0.000003   0.000022  -0.020953  -0.020957
    26  H   -0.000000  -0.000000   0.000001  -0.000006  -0.000118   0.000339
    27  H   -0.000000  -0.000000   0.000166  -0.000072   0.000341   0.002285
    28  H    0.000000   0.000000  -0.000004   0.000022  -0.000115  -0.000127
    29  H    0.000000   0.000000  -0.000000   0.000028   0.000612  -0.000126
    30  H   -0.000000   0.000000  -0.000000   0.000028  -0.000070  -0.000354
    31  H   -0.000000  -0.000000  -0.000000   0.000012   0.001346  -0.000061
              25         26         27         28         29         30
     1  Br   0.000000  -0.000000   0.000000   0.000000   0.000000   0.000000
     2  C   -0.000000  -0.000000  -0.000000  -0.000000  -0.000000  -0.000000
     3  C   -0.000000   0.000000   0.000001  -0.000000  -0.000000  -0.000000
     4  C    0.000000   0.000000  -0.000005   0.000000   0.000000   0.000000
     5  C   -0.000000  -0.000000  -0.000001  -0.000000  -0.000000  -0.000000
     6  C   -0.000026   0.000005   0.000033  -0.000025  -0.000003  -0.000003
     7  C    0.000035  -0.000009  -0.000075   0.000035  -0.000000  -0.000001
     8  N    0.000084   0.000018   0.000333   0.000089  -0.000039  -0.000037
     9  C   -0.002227   0.001657  -0.004935  -0.002207  -0.000864  -0.000859
    10  O    0.001230   0.004975  -0.002246   0.001229  -0.000638  -0.000633
    11  C   -0.030503  -0.023793  -0.025629  -0.030530  -0.028012  -0.028018
    12  C    0.398054  -0.005988  -0.010055   0.012910  -0.012876   0.013451
    13  C    0.012913   0.398247   0.408843   0.398092   0.013450  -0.012875
    14  C   -0.010355  -0.012780   0.011667  -0.010365   0.404380   0.404377
    15  O   -0.000288   0.000762   0.006939  -0.000299  -0.000003  -0.000003
    16  N    0.000000   0.000000   0.000000   0.000000  -0.000000  -0.000000
    17  H   -0.000000  -0.000000   0.000000  -0.000000  -0.000000  -0.000000
    18  H   -0.000000   0.000000   0.000000   0.000000  -0.000000   0.000000
    19  H   -0.000000  -0.000000  -0.000000   0.000000   0.000000  -0.000000
    20  H    0.000000  -0.000000  -0.000000   0.000000   0.000000   0.000000
    21  H   -0.000003   0.000001   0.000166  -0.000004  -0.000000  -0.000000
    22  H    0.000022  -0.000006  -0.000072   0.000022   0.000028   0.000028
    23  H   -0.020953  -0.000118   0.000341  -0.000115   0.000612  -0.000070
    24  H   -0.020957   0.000339   0.002285  -0.000127  -0.000126  -0.000354
    25  H    0.517106  -0.000115  -0.000127  -0.000482   0.002720  -0.000320
    26  H   -0.000115   0.525704  -0.019295  -0.020953  -0.000069   0.000610
    27  H   -0.000127  -0.019295   0.469404  -0.020967  -0.000354  -0.000127
    28  H   -0.000482  -0.020953  -0.020967   0.517037  -0.000320   0.002721
    29  H    0.002720  -0.000069  -0.000354  -0.000320   0.511524  -0.020905
    30  H   -0.000320   0.000610  -0.000127   0.002721  -0.020905   0.511514
    31  H    0.000723   0.001344  -0.000061   0.000724  -0.023127  -0.023127
              31
     1  Br   0.000000
     2  C   -0.000000
     3  C   -0.000000
     4  C    0.000000
     5  C    0.000000
     6  C   -0.000000
     7  C   -0.000002
     8  N    0.000000
     9  C    0.000460
    10  O    0.005555
    11  C   -0.026635
    12  C   -0.009837
    13  C   -0.009844
    14  C    0.407774
    15  O    0.000078
    16  N    0.000000
    17  H   -0.000000
    18  H    0.000000
    19  H   -0.000000
    20  H   -0.000000
    21  H   -0.000000
    22  H    0.000012
    23  H    0.001346
    24  H   -0.000061
    25  H    0.000723
    26  H    0.001344
    27  H   -0.000061
    28  H    0.000724
    29  H   -0.023127
    30  H   -0.023127
    31  H    0.530793
 Mulliken charges:
               1
     1  Br  -0.104451
     2  C    0.125464
     3  C   -0.240322
     4  C    0.129686
     5  C   -0.472600
     6  C   -0.271645
     7  C    0.328133
     8  N   -0.354279
     9  C    0.548638
    10  O   -0.308449
    11  C    0.098330
    12  C   -0.451796
    13  C   -0.451905
    14  C   -0.406323
    15  O   -0.433731
    16  N   -0.280463
    17  H    0.168093
    18  H    0.157566
    19  H    0.151415
    20  H    0.168883
    21  H    0.210556
    22  H    0.262201
    23  H    0.149450
    24  H    0.184002
    25  H    0.153470
    26  H    0.149464
    27  H    0.183938
    28  H    0.153534
    29  H    0.154623
    30  H    0.154632
    31  H    0.143886
 Sum of Mulliken charges =  -0.00000
 Mulliken charges with hydrogens summed into heavy atoms:
               1
     1  Br  -0.104451
     2  C    0.125464
     3  C   -0.072228
     4  C    0.129686
     5  C    0.005264
     6  C   -0.061089
     7  C    0.328133
     8  N   -0.092079
     9  C    0.548638
    10  O   -0.308449
    11  C    0.098330
    12  C    0.035126
    13  C    0.035031
    14  C    0.046817
    15  O   -0.433731
    16  N   -0.280463
 Electronic spatial extent (au):  <R**2>=           7617.7481
 Charge=             -0.0000 electrons
 Dipole moment (field-independent basis, Debye):
    X=              2.3145    Y=              1.2790    Z=              0.0481  Tot=              2.6449
 Quadrupole moment (field-independent basis, Debye-Ang):
   XX=            -97.5987   YY=           -103.9158   ZZ=           -109.4448
   XY=            -12.7891   XZ=             -0.0703   YZ=              0.1573
 Traceless Quadrupole moment (field-independent basis, Debye-Ang):
   XX=              6.0544   YY=             -0.2627   ZZ=             -5.7917
   XY=            -12.7891   XZ=             -0.0703   YZ=              0.1573
 Octapole moment (field-independent basis, Debye-Ang**2):
  XXX=            -14.9996  YYY=            -24.7031  ZZZ=              0.9405  XYY=            -52.8755
  XXY=            -10.9395  XXZ=             -0.4389  XZZ=            -27.0574  YZZ=            -16.8125
  YYZ=              0.4688  XYZ=             -0.3829
 Hexadecapole moment (field-independent basis, Debye-Ang**3):
 XXXX=          -6927.0713 YYYY=          -1488.3341 ZZZZ=           -305.8773 XXXY=             78.8874
 XXXZ=              3.9398 YYYX=            124.3838 YYYZ=              1.1388 ZZZX=             -2.0529
 ZZZY=              3.2793 XXYY=          -1468.0732 XXZZ=          -1303.6049 YYZZ=           -311.8057
 XXYZ=             -1.6938 YYXZ=             -1.9606 ZZXY=             53.3406
 N-N= 1.391618077741D+03 E-N=-1.053918081591D+04  KE= 3.255418777726D+03
 Unable to Open any file for archive entry.
 1\1\GINC-COMPUTE-0-28\SP\RM062X\def2TZVP\C11H15Br1N2O2\ZTAN64\14-Aug-2
 024\0\\# M062X/def2tzvp int=(grid=ultrafine) nmr=giao guess=read geom=
 check\\pyrd6.xyz\\0,1\Br,0,4.4619475303,-2.0303894034,-3.3152919365\C,
 0,3.6067097578,-1.1176216135,-1.8556749592\C,0,4.4077784176,-0.5016184
 881,-0.9004445907\C,0,3.759867858,0.1557647909,0.1516735318\C,0,4.5516
 75607,0.8764993621,1.2111784364\C,0,2.3639872639,0.1534251276,0.189425
 428\C,0,1.6748291655,-0.5049095519,-0.8350541758\N,0,0.2848293962,-0.5
 842824754,-0.9180496669\C,0,-0.6525448823,-0.0547345176,-0.0591959305\
 O,0,-1.8750236231,-0.3750886833,-0.5297103969\C,0,-3.0903901736,0.0561
 354368,0.1836465677\C,0,-3.1565952519,1.5834754791,0.2189647912\C,0,-3
 .1181563394,-0.5624716657,1.5818447899\C,0,-4.2045716131,-0.518210025,
 -0.6892506852\O,0,-0.4045568789,0.5880432137,0.9456277895\N,0,2.289941
 1854,-1.1356720927,-1.849614261\H,0,5.4872278951,-0.5351026525,-0.9742
 125918\H,0,4.0300266513,0.8643808404,2.1714470988\H,0,5.5399506296,0.4
 290028719,1.3441029674\H,0,4.69878418,1.9257215005,0.9296495459\H,0,1.
 8131069827,0.6401777617,0.9810718918\H,0,-0.0571184927,-1.0983678124,-
 1.7184725192\H,0,-4.1175143101,1.8955620924,0.639055785\H,0,-2.3540473
 631,1.9967255918,0.8292416297\H,0,-3.0798169451,1.9885978974,-0.794356
 7183\H,0,-4.0775706133,-0.339614917,2.0583917022\H,0,-2.315460273,-0.1
 651732806,2.2024281673\H,0,-3.0144407274,-1.6495681998,1.5162478919\H,
 0,-4.1503210049,-0.1088594192,-1.7015792484\H,0,-4.123586405,-1.606813
 7205,-0.7500876843\H,0,-5.1791476238,-0.2649134476,-0.2631026497\\Vers
 ion=ES64L-G16RevC.01\State=1-A\HF=-3262.3755319\RMSD=2.795e-09\Dipole=
 -0.6476385,0.4453832,0.6818925\Quadrupole=10.5459842,-4.7078383,-5.838
 146,2.9975719,4.0581838,-0.8119162\PG=C01 [X(C11H15Br1N2O2)]\\@
 The archive entry for this job was punched.


 GARLIC THEN HAVE POWER TO SAVE FROM DEATH
 BEAR WITH IT THOUGH IT MAKETH UNSAVORY BREATH,
 AND SCORN NOT GARLIC LIKE SOME THAT THINK
 IT ONLY MAKETH MEN WINK AND DRINK AND STINK.
   --  SIR JOHN HARRINGTON,
       "THE ENGLISHMAN'S DOCTOR", 1609
 Job cpu time:       0 days  1 hours 15 minutes 44.3 seconds.
 Elapsed time:       0 days  0 hours  5 minutes  4.2 seconds.
 File lengths (MBytes):  RWF=    204 Int=      0 D2E=      0 Chk=     34 Scr=      1
 Normal termination of Gaussian 16 at Wed Aug 14 19:34:41 2024.
 
 
-----Kestrel cluster job statistics-----
Time info:

real	29m34.577s
user	464m14.002s
sys	0m47.631s
 
Disk space usage:
34M	/scratch/362973.kestrel.chem.wisc.edu
