 Entering Gaussian System, Link 0=/share/apps/gaussian/g16/g16
 Initial command:
 /share/apps/gaussian/g16/l1.exe "/scratch/362970.kestrel.chem.wisc.edu/Gau-95177.inp" -scrdir="/scratch/362970.kestrel.chem.wisc.edu/"
 Entering Link 1 = /share/apps/gaussian/g16/l1.exe PID=     95178.
  
 Copyright (c) 1988-2019, Gaussian, Inc.  All Rights Reserved.
  
 This is part of the Gaussian(R) 16 program.  It is based on
 the Gaussian(R) 09 system (copyright 2009, Gaussian, Inc.),
 the Gaussian(R) 03 system (copyright 2003, Gaussian, Inc.),
 the Gaussian(R) 98 system (copyright 1998, Gaussian, Inc.),
 the Gaussian(R) 94 system (copyright 1995, Gaussian, Inc.),
 the Gaussian 92(TM) system (copyright 1992, Gaussian, Inc.),
 the Gaussian 90(TM) system (copyright 1990, Gaussian, Inc.),
 the Gaussian 88(TM) system (copyright 1988, Gaussian, Inc.),
 the Gaussian 86(TM) system (copyright 1986, Carnegie Mellon
 University), and the Gaussian 82(TM) system (copyright 1983,
 Carnegie Mellon University). Gaussian is a federally registered
 trademark of Gaussian, Inc.
  
 This software contains proprietary and confidential information,
 including trade secrets, belonging to Gaussian, Inc.
  
 This software is provided under written license and may be
 used, copied, transmitted, or stored only in accord with that
 written license.
  
 The following legend is applicable only to US Government
 contracts under FAR:
  
                    RESTRICTED RIGHTS LEGEND
  
 Use, reproduction and disclosure by the US Government is
 subject to restrictions as set forth in subparagraphs (a)
 and (c) of the Commercial Computer Software - Restricted
 Rights clause in FAR 52.227-19.
  
 Gaussian, Inc.
 340 Quinnipiac St., Bldg. 40, Wallingford CT 06492
  
  
 ---------------------------------------------------------------
 Warning -- This program may not be used in any manner that
 competes with the business of Gaussian, Inc. or will provide
 assistance to any competitor of Gaussian, Inc.  The licensee
 of this program is prohibited from giving any competitor of
 Gaussian, Inc. access to this program.  By using this program,
 the user acknowledges that Gaussian, Inc. is engaged in the
 business of creating and licensing software in the field of
 computational chemistry and represents and warrants to the
 licensee that it is not a competitor of Gaussian, Inc. and that
 it will not use this program in any manner prohibited above.
 ---------------------------------------------------------------
  

 Cite this work as:
 Gaussian 16, Revision C.01,
 M. J. Frisch, G. W. Trucks, H. B. Schlegel, G. E. Scuseria, 
 M. A. Robb, J. R. Cheeseman, G. Scalmani, V. Barone, 
 G. A. Petersson, H. Nakatsuji, X. Li, M. Caricato, A. V. Marenich, 
 J. Bloino, B. G. Janesko, R. Gomperts, B. Mennucci, H. P. Hratchian, 
 J. V. Ortiz, A. F. Izmaylov, J. L. Sonnenberg, D. Williams-Young, 
 F. Ding, F. Lipparini, F. Egidi, J. Goings, B. Peng, A. Petrone, 
 T. Henderson, D. Ranasinghe, V. G. Zakrzewski, J. Gao, N. Rega, 
 G. Zheng, W. Liang, M. Hada, M. Ehara, K. Toyota, R. Fukuda, 
 J. Hasegawa, M. Ishida, T. Nakajima, Y. Honda, O. Kitao, H. Nakai, 
 T. Vreven, K. Throssell, J. A. Montgomery, Jr., J. E. Peralta, 
 F. Ogliaro, M. J. Bearpark, J. J. Heyd, E. N. Brothers, K. N. Kudin, 
 V. N. Staroverov, T. A. Keith, R. Kobayashi, J. Normand, 
 K. Raghavachari, A. P. Rendell, J. C. Burant, S. S. Iyengar, 
 J. Tomasi, M. Cossi, J. M. Millam, M. Klene, C. Adamo, R. Cammi, 
 J. W. Ochterski, R. L. Martin, K. Morokuma, O. Farkas, 
 J. B. Foresman, and D. J. Fox, Gaussian, Inc., Wallingford CT, 2019.
 
 ******************************************
 Gaussian 16:  ES64L-G16RevC.01  3-Jul-2019
                14-Aug-2024 
 ******************************************
 %nprocs=16
 Will use up to   16 processors via shared memory.
 %mem=16GB
 %chk=pyrd4_conf-7.chk
 ----------------------------------------------------------------------
 # B3LYP/6-31G(d,p) symmetry=loose empiricaldispersion=GD3BJ int=(grid=
 ultrafine) opt freq=noraman
 ----------------------------------------------------------------------
 1/18=20,19=15,26=4,38=1/1,3;
 2/9=110,12=2,17=4,18=3,40=1/2;
 3/5=1,6=6,7=101,11=2,25=1,30=1,71=1,74=-5,75=-5,124=41/1,2,3;
 4//1;
 5/5=2,38=5/2;
 6/7=2,8=2,9=2,10=2,28=1/1;
 7//1,2,3,16;
 1/18=20,19=15,26=4/3(2);
 2/9=110/2;
 99//99;
 2/9=110/2;
 3/5=1,6=6,7=101,11=2,25=1,30=1,71=1,74=-5,75=-5,124=41/1,2,3;
 4/5=5,16=3,69=1/1;
 5/5=2,38=5/2;
 7//1,2,3,16;
 1/18=20,19=15,26=4/3(-5);
 2/9=110/2;
 6/7=2,8=2,9=2,10=2,19=2,28=1/1;
 99/9=1/99;
 ---------
 pyrd4.xyz
 ---------
 Symbolic Z-matrix:
 Charge =  0 Multiplicity = 1
 O                     1.0272    1.3983    5.8017 
 C                     1.1184    1.1114    4.6084 
 N                     2.2739    1.0468    3.9183 
 C                     3.5825    1.2363    4.3787 
 N                     3.8993    1.096     5.6948 
 C                     5.1894    1.2682    6.0713 
 C                     6.2052    1.5708    5.1643 
 C                     5.8827    1.7034    3.8089 
 C                     6.9456    2.0316    2.7657 
 C                     8.1019    2.9677    3.0481 
 C                     8.3573    1.489     2.8423 
 C                     4.5517    1.5293    3.4141 
 C                    -0.1277    0.8569    3.7886 
 C                    -0.1195   -0.0126    2.6847 
 C                    -1.2827   -0.2267    1.9493 
 C                    -2.471     0.4143    2.3032 
 B                    -3.7908    0.1678    1.4644 
 O                    -3.8669   -0.6574    0.3647 
 C                    -5.2395   -0.8291    0.0626 
 C                    -5.348    -0.9947   -1.4667 
 C                    -5.6643   -2.1348    0.7801 
 C                    -5.858     0.4963    0.6404 
 C                    -5.7424    1.743    -0.272 
 C                    -7.29      0.3671    1.1978 
 O                    -5.0064    0.7511    1.7423 
 C                    -2.4878    1.2681    3.4071 
 C                    -1.3282    1.4848    4.1464 
 H                     2.1672    0.9456    2.9277 
 H                     5.394     1.1576    7.1266 
 H                     7.2194    1.6993    5.5101 
 H                     6.5347    2.1022    1.7566 
 H                     8.1958    3.3992    4.0458 
 H                     8.3957    3.675     2.2711 
 H                     8.8323    1.1514    1.92 
 H                     8.6343    0.865     3.6934 
 H                     4.2826    1.6293    2.3741 
 H                     0.7738   -0.5477    2.3951 
 H                    -1.2691   -0.9002    1.1037 
 H                    -4.8748   -0.1721   -2.003 
 H                    -6.39     -1.0423   -1.782 
 H                    -4.8566   -1.9085   -1.8023 
 H                    -6.706    -2.3791    0.5736 
 H                    -5.5506   -2.0583    1.8623 
 H                    -5.0596   -2.9827    0.456 
 H                    -6.3996    1.6624   -1.1374 
 H                    -4.7253    1.8833   -0.64 
 H                    -6.016     2.6539    0.262 
 H                    -7.9909    0.0809    0.4141 
 H                    -7.6352    1.3088    1.6258 
 H                    -7.3555   -0.3772    1.9917 
 H                    -3.4059    1.7614    3.6941 
 H                    -1.3654    2.1453    5.0035 
 

 GradGradGradGradGradGradGradGradGradGradGradGradGradGradGradGradGradGrad
 Berny optimization.
 Initialization pass.
                           ----------------------------
                           !    Initial Parameters    !
                           ! (Angstroms and Degrees)  !
 --------------------------                            --------------------------
 ! Name  Definition              Value          Derivative Info.                !
 --------------------------------------------------------------------------------
 ! R1    R(1,2)                  1.2307         estimate D2E/DX2                !
 ! R2    R(2,3)                  1.3474         estimate D2E/DX2                !
 ! R3    R(2,13)                 1.5131         estimate D2E/DX2                !
 ! R4    R(3,4)                  1.4001         estimate D2E/DX2                !
 ! R5    R(3,28)                 1.0015         estimate D2E/DX2                !
 ! R6    R(4,5)                  1.3609         estimate D2E/DX2                !
 ! R7    R(4,12)                 1.3984         estimate D2E/DX2                !
 ! R8    R(5,6)                  1.3549         estimate D2E/DX2                !
 ! R9    R(6,7)                  1.395          estimate D2E/DX2                !
 ! R10   R(6,29)                 1.0806         estimate D2E/DX2                !
 ! R11   R(7,8)                  1.3995         estimate D2E/DX2                !
 ! R12   R(7,30)                 1.0792         estimate D2E/DX2                !
 ! R13   R(8,9)                  1.525          estimate D2E/DX2                !
 ! R14   R(8,12)                 1.3992         estimate D2E/DX2                !
 ! R15   R(9,10)                 1.5143         estimate D2E/DX2                !
 ! R16   R(9,11)                 1.5143         estimate D2E/DX2                !
 ! R17   R(9,31)                 1.0918         estimate D2E/DX2                !
 ! R18   R(10,11)                1.5146         estimate D2E/DX2                !
 ! R19   R(10,32)                1.0911         estimate D2E/DX2                !
 ! R20   R(10,33)                1.091          estimate D2E/DX2                !
 ! R21   R(11,34)                1.091          estimate D2E/DX2                !
 ! R22   R(11,35)                1.0911         estimate D2E/DX2                !
 ! R23   R(12,36)                1.0789         estimate D2E/DX2                !
 ! R24   R(13,14)                1.4052         estimate D2E/DX2                !
 ! R25   R(13,27)                1.4012         estimate D2E/DX2                !
 ! R26   R(14,15)                1.3927         estimate D2E/DX2                !
 ! R27   R(14,37)                1.0808         estimate D2E/DX2                !
 ! R28   R(15,16)                1.3958         estimate D2E/DX2                !
 ! R29   R(15,38)                1.0811         estimate D2E/DX2                !
 ! R30   R(16,17)                1.5831         estimate D2E/DX2                !
 ! R31   R(16,26)                1.3957         estimate D2E/DX2                !
 ! R32   R(17,18)                1.377          estimate D2E/DX2                !
 ! R33   R(17,25)                1.3766         estimate D2E/DX2                !
 ! R34   R(18,19)                1.4159         estimate D2E/DX2                !
 ! R35   R(19,20)                1.5421         estimate D2E/DX2                !
 ! R36   R(19,21)                1.5492         estimate D2E/DX2                !
 ! R37   R(19,22)                1.5726         estimate D2E/DX2                !
 ! R38   R(20,39)                1.09           estimate D2E/DX2                !
 ! R39   R(20,40)                1.0897         estimate D2E/DX2                !
 ! R40   R(20,41)                1.0905         estimate D2E/DX2                !
 ! R41   R(21,42)                1.0897         estimate D2E/DX2                !
 ! R42   R(21,43)                1.0908         estimate D2E/DX2                !
 ! R43   R(21,44)                1.0907         estimate D2E/DX2                !
 ! R44   R(22,23)                1.5492         estimate D2E/DX2                !
 ! R45   R(22,24)                1.5421         estimate D2E/DX2                !
 ! R46   R(22,25)                1.4157         estimate D2E/DX2                !
 ! R47   R(23,45)                1.0896         estimate D2E/DX2                !
 ! R48   R(23,46)                1.0907         estimate D2E/DX2                !
 ! R49   R(23,47)                1.0908         estimate D2E/DX2                !
 ! R50   R(24,48)                1.0897         estimate D2E/DX2                !
 ! R51   R(24,49)                1.0905         estimate D2E/DX2                !
 ! R52   R(24,50)                1.0902         estimate D2E/DX2                !
 ! R53   R(26,27)                1.3922         estimate D2E/DX2                !
 ! R54   R(26,51)                1.081          estimate D2E/DX2                !
 ! R55   R(27,52)                1.0827         estimate D2E/DX2                !
 ! A1    A(1,2,3)              124.8425         estimate D2E/DX2                !
 ! A2    A(1,2,13)             120.2324         estimate D2E/DX2                !
 ! A3    A(3,2,13)             114.8767         estimate D2E/DX2                !
 ! A4    A(2,3,4)              128.7998         estimate D2E/DX2                !
 ! A5    A(2,3,28)             114.8397         estimate D2E/DX2                !
 ! A6    A(4,3,28)             116.0098         estimate D2E/DX2                !
 ! A7    A(3,4,5)              121.4402         estimate D2E/DX2                !
 ! A8    A(3,4,12)             116.6987         estimate D2E/DX2                !
 ! A9    A(5,4,12)             121.8238         estimate D2E/DX2                !
 ! A10   A(4,5,6)              118.5071         estimate D2E/DX2                !
 ! A11   A(5,6,7)              122.6997         estimate D2E/DX2                !
 ! A12   A(5,6,29)             116.017          estimate D2E/DX2                !
 ! A13   A(7,6,29)             121.2832         estimate D2E/DX2                !
 ! A14   A(6,7,8)              118.844          estimate D2E/DX2                !
 ! A15   A(6,7,30)             120.1192         estimate D2E/DX2                !
 ! A16   A(8,7,30)             121.0367         estimate D2E/DX2                !
 ! A17   A(7,8,9)              121.4841         estimate D2E/DX2                !
 ! A18   A(7,8,12)             118.7297         estimate D2E/DX2                !
 ! A19   A(9,8,12)             119.7861         estimate D2E/DX2                !
 ! A20   A(8,9,10)             122.525          estimate D2E/DX2                !
 ! A21   A(8,9,11)             122.549          estimate D2E/DX2                !
 ! A22   A(8,9,31)             112.5714         estimate D2E/DX2                !
 ! A23   A(10,9,31)            114.8192         estimate D2E/DX2                !
 ! A24   A(11,9,31)            114.8822         estimate D2E/DX2                !
 ! A25   A(9,10,32)            118.7332         estimate D2E/DX2                !
 ! A26   A(9,10,33)            118.2666         estimate D2E/DX2                !
 ! A27   A(11,10,32)           119.725          estimate D2E/DX2                !
 ! A28   A(11,10,33)           119.389          estimate D2E/DX2                !
 ! A29   A(32,10,33)           111.8187         estimate D2E/DX2                !
 ! A30   A(9,11,34)            118.2941         estimate D2E/DX2                !
 ! A31   A(9,11,35)            118.7538         estimate D2E/DX2                !
 ! A32   A(10,11,34)           119.3659         estimate D2E/DX2                !
 ! A33   A(10,11,35)           119.68           estimate D2E/DX2                !
 ! A34   A(34,11,35)           111.8348         estimate D2E/DX2                !
 ! A35   A(4,12,8)             119.388          estimate D2E/DX2                !
 ! A36   A(4,12,36)            120.7608         estimate D2E/DX2                !
 ! A37   A(8,12,36)            119.8495         estimate D2E/DX2                !
 ! A38   A(2,13,14)            121.6595         estimate D2E/DX2                !
 ! A39   A(2,13,27)            119.4609         estimate D2E/DX2                !
 ! A40   A(14,13,27)           118.872          estimate D2E/DX2                !
 ! A41   A(13,14,15)           120.3344         estimate D2E/DX2                !
 ! A42   A(13,14,37)           121.4427         estimate D2E/DX2                !
 ! A43   A(15,14,37)           118.2096         estimate D2E/DX2                !
 ! A44   A(14,15,16)           120.4356         estimate D2E/DX2                !
 ! A45   A(14,15,38)           119.8848         estimate D2E/DX2                !
 ! A46   A(16,15,38)           119.6774         estimate D2E/DX2                !
 ! A47   A(15,16,17)           120.2588         estimate D2E/DX2                !
 ! A48   A(15,16,26)           119.4551         estimate D2E/DX2                !
 ! A49   A(17,16,26)           120.2851         estimate D2E/DX2                !
 ! A50   A(16,17,18)           124.2313         estimate D2E/DX2                !
 ! A51   A(16,17,25)           124.2787         estimate D2E/DX2                !
 ! A52   A(18,17,25)           111.49           estimate D2E/DX2                !
 ! A53   A(17,18,19)           107.2562         estimate D2E/DX2                !
 ! A54   A(18,19,20)           107.0273         estimate D2E/DX2                !
 ! A55   A(18,19,21)           105.6169         estimate D2E/DX2                !
 ! A56   A(18,19,22)           101.5763         estimate D2E/DX2                !
 ! A57   A(20,19,21)           110.4567         estimate D2E/DX2                !
 ! A58   A(20,19,22)           115.2907         estimate D2E/DX2                !
 ! A59   A(21,19,22)           115.6147         estimate D2E/DX2                !
 ! A60   A(19,20,39)           112.1072         estimate D2E/DX2                !
 ! A61   A(19,20,40)           111.0341         estimate D2E/DX2                !
 ! A62   A(19,20,41)           111.3149         estimate D2E/DX2                !
 ! A63   A(39,20,40)           107.8011         estimate D2E/DX2                !
 ! A64   A(39,20,41)           106.5794         estimate D2E/DX2                !
 ! A65   A(40,20,41)           107.7733         estimate D2E/DX2                !
 ! A66   A(19,21,42)           111.3032         estimate D2E/DX2                !
 ! A67   A(19,21,43)           111.8253         estimate D2E/DX2                !
 ! A68   A(19,21,44)           111.4413         estimate D2E/DX2                !
 ! A69   A(42,21,43)           107.6596         estimate D2E/DX2                !
 ! A70   A(42,21,44)           107.4213         estimate D2E/DX2                !
 ! A71   A(43,21,44)           106.9492         estimate D2E/DX2                !
 ! A72   A(19,22,23)           115.626          estimate D2E/DX2                !
 ! A73   A(19,22,24)           115.3036         estimate D2E/DX2                !
 ! A74   A(19,22,25)           101.5999         estimate D2E/DX2                !
 ! A75   A(23,22,24)           110.4623         estimate D2E/DX2                !
 ! A76   A(23,22,25)           105.585          estimate D2E/DX2                !
 ! A77   A(24,22,25)           106.9975         estimate D2E/DX2                !
 ! A78   A(22,23,45)           111.2974         estimate D2E/DX2                !
 ! A79   A(22,23,46)           111.8272         estimate D2E/DX2                !
 ! A80   A(22,23,47)           111.4069         estimate D2E/DX2                !
 ! A81   A(45,23,46)           107.6973         estimate D2E/DX2                !
 ! A82   A(45,23,47)           107.4157         estimate D2E/DX2                !
 ! A83   A(46,23,47)           106.9579         estimate D2E/DX2                !
 ! A84   A(22,24,48)           111.0603         estimate D2E/DX2                !
 ! A85   A(22,24,49)           111.3139         estimate D2E/DX2                !
 ! A86   A(22,24,50)           112.0991         estimate D2E/DX2                !
 ! A87   A(48,24,49)           107.7871         estimate D2E/DX2                !
 ! A88   A(48,24,50)           107.8051         estimate D2E/DX2                !
 ! A89   A(49,24,50)           106.5431         estimate D2E/DX2                !
 ! A90   A(17,25,22)           107.3242         estimate D2E/DX2                !
 ! A91   A(16,26,27)           120.3459         estimate D2E/DX2                !
 ! A92   A(16,26,51)           119.9584         estimate D2E/DX2                !
 ! A93   A(27,26,51)           119.6951         estimate D2E/DX2                !
 ! A94   A(13,27,26)           120.548          estimate D2E/DX2                !
 ! A95   A(13,27,52)           120.327          estimate D2E/DX2                !
 ! A96   A(26,27,52)           119.125          estimate D2E/DX2                !
 ! D1    D(1,2,3,4)              2.2677         estimate D2E/DX2                !
 ! D2    D(1,2,3,28)          -170.5871         estimate D2E/DX2                !
 ! D3    D(13,2,3,4)           179.7307         estimate D2E/DX2                !
 ! D4    D(13,2,3,28)            6.8759         estimate D2E/DX2                !
 ! D5    D(1,2,13,14)         -150.8221         estimate D2E/DX2                !
 ! D6    D(1,2,13,27)           28.1674         estimate D2E/DX2                !
 ! D7    D(3,2,13,14)           31.5877         estimate D2E/DX2                !
 ! D8    D(3,2,13,27)         -149.4227         estimate D2E/DX2                !
 ! D9    D(2,3,4,5)             21.7563         estimate D2E/DX2                !
 ! D10   D(2,3,4,12)          -160.429          estimate D2E/DX2                !
 ! D11   D(28,3,4,5)          -165.459          estimate D2E/DX2                !
 ! D12   D(28,3,4,12)           12.3557         estimate D2E/DX2                !
 ! D13   D(3,4,5,6)            178.7595         estimate D2E/DX2                !
 ! D14   D(12,4,5,6)             1.0573         estimate D2E/DX2                !
 ! D15   D(3,4,12,8)          -178.7497         estimate D2E/DX2                !
 ! D16   D(3,4,12,36)            1.7171         estimate D2E/DX2                !
 ! D17   D(5,4,12,8)            -0.944          estimate D2E/DX2                !
 ! D18   D(5,4,12,36)          179.5228         estimate D2E/DX2                !
 ! D19   D(4,5,6,7)             -0.5972         estimate D2E/DX2                !
 ! D20   D(4,5,6,29)           179.388          estimate D2E/DX2                !
 ! D21   D(5,6,7,8)              0.0277         estimate D2E/DX2                !
 ! D22   D(5,6,7,30)           179.9976         estimate D2E/DX2                !
 ! D23   D(29,6,7,8)          -179.9567         estimate D2E/DX2                !
 ! D24   D(29,6,7,30)            0.0132         estimate D2E/DX2                !
 ! D25   D(6,7,8,9)           -179.9342         estimate D2E/DX2                !
 ! D26   D(6,7,8,12)             0.0953         estimate D2E/DX2                !
 ! D27   D(30,7,8,9)             0.0963         estimate D2E/DX2                !
 ! D28   D(30,7,8,12)         -179.8743         estimate D2E/DX2                !
 ! D29   D(7,8,9,10)           -36.3923         estimate D2E/DX2                !
 ! D30   D(7,8,9,11)            36.3794         estimate D2E/DX2                !
 ! D31   D(7,8,9,31)          -179.9257         estimate D2E/DX2                !
 ! D32   D(12,8,9,10)          143.578          estimate D2E/DX2                !
 ! D33   D(12,8,9,11)         -143.6503         estimate D2E/DX2                !
 ! D34   D(12,8,9,31)            0.0445         estimate D2E/DX2                !
 ! D35   D(7,8,12,4)             0.3442         estimate D2E/DX2                !
 ! D36   D(7,8,12,36)          179.8817         estimate D2E/DX2                !
 ! D37   D(9,8,12,4)          -179.6268         estimate D2E/DX2                !
 ! D38   D(9,8,12,36)           -0.0893         estimate D2E/DX2                !
 ! D39   D(8,9,10,32)            1.9827         estimate D2E/DX2                !
 ! D40   D(8,9,10,33)         -138.9161         estimate D2E/DX2                !
 ! D41   D(31,9,10,32)         144.7771         estimate D2E/DX2                !
 ! D42   D(31,9,10,33)           3.8784         estimate D2E/DX2                !
 ! D43   D(8,9,11,34)          138.9951         estimate D2E/DX2                !
 ! D44   D(8,9,11,35)           -2.0083         estimate D2E/DX2                !
 ! D45   D(31,9,11,34)          -3.943          estimate D2E/DX2                !
 ! D46   D(31,9,11,35)        -144.9464         estimate D2E/DX2                !
 ! D47   D(32,10,11,34)       -144.3259         estimate D2E/DX2                !
 ! D48   D(32,10,11,35)         -0.0433         estimate D2E/DX2                !
 ! D49   D(33,10,11,34)          0.0425         estimate D2E/DX2                !
 ! D50   D(33,10,11,35)        144.3252         estimate D2E/DX2                !
 ! D51   D(2,13,14,15)        -179.9993         estimate D2E/DX2                !
 ! D52   D(2,13,14,37)           1.3559         estimate D2E/DX2                !
 ! D53   D(27,13,14,15)          1.0053         estimate D2E/DX2                !
 ! D54   D(27,13,14,37)       -177.6395         estimate D2E/DX2                !
 ! D55   D(2,13,27,26)         179.9191         estimate D2E/DX2                !
 ! D56   D(2,13,27,52)          -0.1234         estimate D2E/DX2                !
 ! D57   D(14,13,27,26)         -1.063          estimate D2E/DX2                !
 ! D58   D(14,13,27,52)        178.8945         estimate D2E/DX2                !
 ! D59   D(13,14,15,16)         -0.2987         estimate D2E/DX2                !
 ! D60   D(13,14,15,38)       -179.7588         estimate D2E/DX2                !
 ! D61   D(37,14,15,16)        178.3893         estimate D2E/DX2                !
 ! D62   D(37,14,15,38)         -1.0709         estimate D2E/DX2                !
 ! D63   D(14,15,16,17)       -179.9949         estimate D2E/DX2                !
 ! D64   D(14,15,16,26)         -0.3654         estimate D2E/DX2                !
 ! D65   D(38,15,16,17)         -0.5337         estimate D2E/DX2                !
 ! D66   D(38,15,16,26)        179.0959         estimate D2E/DX2                !
 ! D67   D(15,16,17,18)         -0.2698         estimate D2E/DX2                !
 ! D68   D(15,16,17,25)        179.7308         estimate D2E/DX2                !
 ! D69   D(26,16,17,18)       -179.8963         estimate D2E/DX2                !
 ! D70   D(26,16,17,25)          0.1043         estimate D2E/DX2                !
 ! D71   D(15,16,26,27)          0.3095         estimate D2E/DX2                !
 ! D72   D(15,16,26,51)       -179.417          estimate D2E/DX2                !
 ! D73   D(17,16,26,27)        179.939          estimate D2E/DX2                !
 ! D74   D(17,16,26,51)          0.2125         estimate D2E/DX2                !
 ! D75   D(16,17,18,19)        168.3311         estimate D2E/DX2                !
 ! D76   D(25,17,18,19)        -11.6694         estimate D2E/DX2                !
 ! D77   D(16,17,25,22)        168.9406         estimate D2E/DX2                !
 ! D78   D(18,17,25,22)        -11.0589         estimate D2E/DX2                !
 ! D79   D(17,18,19,20)        147.8846         estimate D2E/DX2                !
 ! D80   D(17,18,19,21)        -94.3963         estimate D2E/DX2                !
 ! D81   D(17,18,19,22)         26.6324         estimate D2E/DX2                !
 ! D82   D(18,19,20,39)        -54.2495         estimate D2E/DX2                !
 ! D83   D(18,19,20,40)       -174.8956         estimate D2E/DX2                !
 ! D84   D(18,19,20,41)         65.0315         estimate D2E/DX2                !
 ! D85   D(21,19,20,39)       -168.7521         estimate D2E/DX2                !
 ! D86   D(21,19,20,40)         70.6018         estimate D2E/DX2                !
 ! D87   D(21,19,20,41)        -49.4711         estimate D2E/DX2                !
 ! D88   D(22,19,20,39)         57.8876         estimate D2E/DX2                !
 ! D89   D(22,19,20,40)        -62.7585         estimate D2E/DX2                !
 ! D90   D(22,19,20,41)        177.1687         estimate D2E/DX2                !
 ! D91   D(18,19,21,42)       -177.6554         estimate D2E/DX2                !
 ! D92   D(18,19,21,43)         61.8858         estimate D2E/DX2                !
 ! D93   D(18,19,21,44)        -57.7617         estimate D2E/DX2                !
 ! D94   D(20,19,21,42)        -62.2648         estimate D2E/DX2                !
 ! D95   D(20,19,21,43)        177.2764         estimate D2E/DX2                !
 ! D96   D(20,19,21,44)         57.6288         estimate D2E/DX2                !
 ! D97   D(22,19,21,42)         70.9317         estimate D2E/DX2                !
 ! D98   D(22,19,21,43)        -49.5272         estimate D2E/DX2                !
 ! D99   D(22,19,21,44)       -169.1747         estimate D2E/DX2                !
 ! D100  D(18,19,22,23)         81.4676         estimate D2E/DX2                !
 ! D101  D(18,19,22,24)       -147.5629         estimate D2E/DX2                !
 ! D102  D(18,19,22,25)        -32.2765         estimate D2E/DX2                !
 ! D103  D(20,19,22,23)        -33.8339         estimate D2E/DX2                !
 ! D104  D(20,19,22,24)         97.1356         estimate D2E/DX2                !
 ! D105  D(20,19,22,25)       -147.578          estimate D2E/DX2                !
 ! D106  D(21,19,22,23)       -164.7697         estimate D2E/DX2                !
 ! D107  D(21,19,22,24)        -33.8001         estimate D2E/DX2                !
 ! D108  D(21,19,22,25)         81.4862         estimate D2E/DX2                !
 ! D109  D(19,22,23,45)         70.9622         estimate D2E/DX2                !
 ! D110  D(19,22,23,46)        -49.5421         estimate D2E/DX2                !
 ! D111  D(19,22,23,47)       -169.1784         estimate D2E/DX2                !
 ! D112  D(24,22,23,45)        -62.2697         estimate D2E/DX2                !
 ! D113  D(24,22,23,46)        177.226          estimate D2E/DX2                !
 ! D114  D(24,22,23,47)         57.5896         estimate D2E/DX2                !
 ! D115  D(25,22,23,45)       -177.6107         estimate D2E/DX2                !
 ! D116  D(25,22,23,46)         61.885          estimate D2E/DX2                !
 ! D117  D(25,22,23,47)        -57.7513         estimate D2E/DX2                !
 ! D118  D(19,22,24,48)        -62.755          estimate D2E/DX2                !
 ! D119  D(19,22,24,49)        177.1377         estimate D2E/DX2                !
 ! D120  D(19,22,24,50)         57.909          estimate D2E/DX2                !
 ! D121  D(23,22,24,48)         70.6398         estimate D2E/DX2                !
 ! D122  D(23,22,24,49)        -49.4675         estimate D2E/DX2                !
 ! D123  D(23,22,24,50)       -168.6962         estimate D2E/DX2                !
 ! D124  D(25,22,24,48)       -174.9088         estimate D2E/DX2                !
 ! D125  D(25,22,24,49)         64.9839         estimate D2E/DX2                !
 ! D126  D(25,22,24,50)        -54.2448         estimate D2E/DX2                !
 ! D127  D(19,22,25,17)         26.2859         estimate D2E/DX2                !
 ! D128  D(23,22,25,17)        -94.7529         estimate D2E/DX2                !
 ! D129  D(24,22,25,17)        147.5514         estimate D2E/DX2                !
 ! D130  D(16,26,27,13)          0.4129         estimate D2E/DX2                !
 ! D131  D(16,26,27,52)       -179.5451         estimate D2E/DX2                !
 ! D132  D(51,26,27,13)       -179.8599         estimate D2E/DX2                !
 ! D133  D(51,26,27,52)          0.1821         estimate D2E/DX2                !
 --------------------------------------------------------------------------------
 Trust Radius=3.00D-01 FncErr=1.00D-07 GrdErr=1.00D-06 EigMax=2.50D+02 EigMin=1.00D-04
 Number of steps in this run=    294 maximum allowed number of steps=    312.
 GradGradGradGradGradGradGradGradGradGradGradGradGradGradGradGradGradGrad

 Stoichiometry    C21H25BN2O3
 Framework group  C1[X(C21H25BN2O3)]
 Deg. of freedom   150
 Full point group                 C1      NOp   1
 Largest Abelian subgroup         C1      NOp   1
 Largest concise Abelian subgroup C1      NOp   1
                         Standard orientation:                         
 ---------------------------------------------------------------------
 Center     Atomic      Atomic             Coordinates (Angstroms)
 Number     Number       Type             X           Y           Z
 ---------------------------------------------------------------------
      1          8           0        2.065157   -2.706363    0.023314
      2          6           0        1.759273   -1.519392   -0.086814
      3          7           0        2.639079   -0.502466   -0.172804
      4          6           0        4.037997   -0.552724   -0.201349
      5          7           0        4.700313   -1.681536   -0.574562
      6          6           0        6.054634   -1.656380   -0.605278
      7          6           0        6.794796   -0.518917   -0.282163
      8          6           0        6.114452    0.646094    0.090102
      9          6           0        6.863188    1.923899    0.453899
     10          6           0        8.179402    1.911225    1.202553
     11          6           0        8.136454    2.349637   -0.246615
     12          6           0        4.715875    0.625752    0.126256
     13          6           0        0.304553   -1.103170   -0.074280
     14          6           0       -0.141859    0.038651   -0.761051
     15          6           0       -1.487523    0.396370   -0.730849
     16          6           0       -2.409180   -0.377578   -0.023929
     17          5           0       -3.937834    0.032848    0.007496
     18          8           0       -4.455914    1.139634   -0.627094
     19          6           0       -5.866335    1.018605   -0.598104
     20          6           0       -6.440563    2.447400   -0.515871
     21          6           0       -6.255719    0.355129   -1.942832
     22          6           0       -6.080838    0.133515    0.683958
     23          6           0       -6.049303    0.891763    2.034574
     24          6           0       -7.289868   -0.822197    0.630360
     25          8           0       -4.916210   -0.671366    0.672336
     26          6           0       -1.973268   -1.520313    0.648372
     27          6           0       -0.629470   -1.883120    0.620528
     28          1           0        2.233652    0.411067   -0.109556
     29          1           0        6.539321   -2.577035   -0.897211
     30          1           0        7.872993   -0.545412   -0.320647
     31          1           0        6.191123    2.741453    0.722299
     32          1           0        8.624855    0.950178    1.464040
     33          1           0        8.337047    2.657026    1.983097
     34          1           0        8.264473    3.405342   -0.490202
     35          1           0        8.552089    1.701492   -1.019681
     36          1           0        4.173143    1.513152    0.412574
     37          1           0        0.536048    0.648643   -1.341169
     38          1           0       -1.823698    1.274117   -1.265052
     39          1           0       -6.025736    3.008676    0.321442
     40          1           0       -7.523848    2.427457   -0.399505
     41          1           0       -6.212984    3.018502   -1.416527
     42          1           0       -7.336740    0.254491   -2.036256
     43          1           0       -5.820668   -0.639968   -2.045062
     44          1           0       -5.907806    0.943138   -2.793032
     45          1           0       -6.934888    1.514165    2.159797
     46          1           0       -5.175068    1.538814    2.116061
     47          1           0       -6.013699    0.201161    2.878111
     48          1           0       -8.224004   -0.267546    0.546039
     49          1           0       -7.348172   -1.438341    1.528198
     50          1           0       -7.232594   -1.509069   -0.214315
     51          1           0       -2.681686   -2.130874    1.190572
     52          1           0       -0.314192   -2.777590    1.142818
 ---------------------------------------------------------------------
 Rotational constants (GHZ):           0.5401600           0.0518461           0.0494852
 Standard basis: 6-31G(d,p) (6D, 7F)
 There are   530 symmetry adapted cartesian basis functions of A   symmetry.
 There are   530 symmetry adapted basis functions of A   symmetry.
   530 basis functions,   931 primitive gaussians,   530 cartesian basis functions
    97 alpha electrons       97 beta electrons
       nuclear repulsion energy      2216.8511005235 Hartrees.
 NAtoms=   52 NActive=   52 NUniq=   52 SFac= 1.00D+00 NAtFMM=   60 NAOKFM=F Big=F
 Integral buffers will be    131072 words long.
 Raffenetti 2 integral format.
 Two-electron integral symmetry is turned on.
 Nuclear repulsion after empirical dispersion term =     2216.7451134637 Hartrees.
 One-electron integrals computed using PRISM.
 NBasis=   530 RedAO= T EigKep=  4.38D-04  NBF=   530
 NBsUse=   530 1.00D-06 EigRej= -1.00D+00 NBFU=   530
 ExpMin= 1.27D-01 ExpMax= 5.48D+03 ExpMxC= 8.25D+02 IAcc=3 IRadAn=         5 AccDes= 0.00D+00
 Harris functional with IExCor=  402 and IRadAn=       5 diagonalized for initial guess.
 HarFok:  IExCor=  402 AccDes= 0.00D+00 IRadAn=         5 IDoV= 1 UseB2=F ITyADJ=14
 ICtDFT=  3500011 ScaDFX=  1.000000  1.000000  1.000000  1.000000
 FoFCou: FMM=F IPFlag=           0 FMFlag=      100000 FMFlg1=           0
         NFxFlg=           0 DoJE=T BraDBF=F KetDBF=T FulRan=T
         wScrn=  0.000000 ICntrl=       500 IOpCl=  0 I1Cent=   200000004 NGrid=           0
         NMat0=    1 NMatS0=      1 NMatT0=    0 NMatD0=    1 NMtDS0=    0 NMtDT0=    0
 Petite list used in FoFCou.
 Requested convergence on RMS density matrix=1.00D-08 within 128 cycles.
 Requested convergence on MAX density matrix=1.00D-06.
 Requested convergence on             energy=1.00D-06.
 No special actions if energy rises.
 Integral accuracy reduced to 1.0D-05 until final iterations.
 Initial convergence to 1.0D-05 achieved.  Increase integral accuracy.
 SCF Done:  E(RB3LYP) =  -1175.56459342     A.U. after   15 cycles
            NFock= 15  Conv=0.53D-08     -V/T= 2.0096

 **********************************************************************

            Population analysis using the SCF Density.

 **********************************************************************

 Orbital symmetries:
       Occupied  (A) (A) (A) (A) (A) (A) (A) (A) (A) (A) (A) (A)
                 (A) (A) (A) (A) (A) (A) (A) (A) (A) (A) (A) (A)
                 (A) (A) (A) (A) (A) (A) (A) (A) (A) (A) (A) (A)
                 (A) (A) (A) (A) (A) (A) (A) (A) (A) (A) (A) (A)
                 (A) (A) (A) (A) (A) (A) (A) (A) (A) (A) (A) (A)
                 (A) (A) (A) (A) (A) (A) (A) (A) (A) (A) (A) (A)
                 (A) (A) (A) (A) (A) (A) (A) (A) (A) (A) (A) (A)
                 (A) (A) (A) (A) (A) (A) (A) (A) (A) (A) (A) (A)
                 (A)
       Virtual   (A) (A) (A) (A) (A) (A) (A) (A) (A) (A) (A) (A)
                 (A) (A) (A) (A) (A) (A) (A) (A) (A) (A) (A) (A)
                 (A) (A) (A) (A) (A) (A) (A) (A) (A) (A) (A) (A)
                 (A) (A) (A) (A) (A) (A) (A) (A) (A) (A) (A) (A)
                 (A) (A) (A) (A) (A) (A) (A) (A) (A) (A) (A) (A)
                 (A) (A) (A) (A) (A) (A) (A) (A) (A) (A) (A) (A)
                 (A) (A) (A) (A) (A) (A) (A) (A) (A) (A) (A) (A)
                 (A) (A) (A) (A) (A) (A) (A) (A) (A) (A) (A) (A)
                 (A) (A) (A) (A) (A) (A) (A) (A) (A) (A) (A) (A)
                 (A) (A) (A) (A) (A) (A) (A) (A) (A) (A) (A) (A)
                 (A) (A) (A) (A) (A) (A) (A) (A) (A) (A) (A) (A)
                 (A) (A) (A) (A) (A) (A) (A) (A) (A) (A) (A) (A)
                 (A) (A) (A) (A) (A) (A) (A) (A) (A) (A) (A) (A)
                 (A) (A) (A) (A) (A) (A) (A) (A) (A) (A) (A) (A)
                 (A) (A) (A) (A) (A) (A) (A) (A) (A) (A) (A) (A)
                 (A) (A) (A) (A) (A) (A) (A) (A) (A) (A) (A) (A)
                 (A) (A) (A) (A) (A) (A) (A) (A) (A) (A) (A) (A)
                 (A) (A) (A) (A) (A) (A) (A) (A) (A) (A) (A) (A)
                 (A) (A) (A) (A) (A) (A) (A) (A) (A) (A) (A) (A)
                 (A) (A) (A) (A) (A) (A) (A) (A) (A) (A) (A) (A)
                 (A) (A) (A) (A) (A) (A) (A) (A) (A) (A) (A) (A)
                 (A) (A) (A) (A) (A) (A) (A) (A) (A) (A) (A) (A)
                 (A) (A) (A) (A) (A) (A) (A) (A) (A) (A) (A) (A)
                 (A) (A) (A) (A) (A) (A) (A) (A) (A) (A) (A) (A)
                 (A) (A) (A) (A) (A) (A) (A) (A) (A) (A) (A) (A)
                 (A) (A) (A) (A) (A) (A) (A) (A) (A) (A) (A) (A)
                 (A) (A) (A) (A) (A) (A) (A) (A) (A) (A) (A) (A)
                 (A) (A) (A) (A) (A) (A) (A) (A) (A) (A) (A) (A)
                 (A) (A) (A) (A) (A) (A) (A) (A) (A) (A) (A) (A)
                 (A) (A) (A) (A) (A) (A) (A) (A) (A) (A) (A) (A)
                 (A) (A) (A) (A) (A) (A) (A) (A) (A) (A) (A) (A)
                 (A) (A) (A) (A) (A) (A) (A) (A) (A) (A) (A) (A)
                 (A) (A) (A) (A) (A) (A) (A) (A) (A) (A) (A) (A)
                 (A) (A) (A) (A) (A) (A) (A) (A) (A) (A) (A) (A)
                 (A) (A) (A) (A) (A) (A) (A) (A) (A) (A) (A) (A)
                 (A) (A) (A) (A) (A) (A) (A) (A) (A) (A) (A) (A)
                 (A)
 The electronic state is 1-A.
 Alpha  occ. eigenvalues --  -19.15098 -19.15074 -19.10376 -14.37570 -14.32164
 Alpha  occ. eigenvalues --  -10.28440 -10.26756 -10.25427 -10.25402 -10.22214
 Alpha  occ. eigenvalues --  -10.21826 -10.21157 -10.20320 -10.20162 -10.20132
 Alpha  occ. eigenvalues --  -10.19739 -10.19708 -10.19223 -10.19001 -10.18981
 Alpha  occ. eigenvalues --  -10.18920 -10.18182 -10.18140 -10.18114 -10.18106
 Alpha  occ. eigenvalues --  -10.17639  -6.77882  -1.07434  -1.02748  -1.00244
 Alpha  occ. eigenvalues --   -0.95831  -0.90958  -0.86896  -0.85519  -0.79977
 Alpha  occ. eigenvalues --   -0.79678  -0.77101  -0.75079  -0.74630  -0.74412
 Alpha  occ. eigenvalues --   -0.70812  -0.68580  -0.67100  -0.64287  -0.62982
 Alpha  occ. eigenvalues --   -0.61928  -0.61076  -0.60826  -0.59182  -0.56657
 Alpha  occ. eigenvalues --   -0.56063  -0.54680  -0.54061  -0.51878  -0.50070
 Alpha  occ. eigenvalues --   -0.49559  -0.47974  -0.47421  -0.46461  -0.45775
 Alpha  occ. eigenvalues --   -0.45548  -0.45156  -0.44689  -0.44040  -0.43626
 Alpha  occ. eigenvalues --   -0.43442  -0.42248  -0.41902  -0.40658  -0.40199
 Alpha  occ. eigenvalues --   -0.40043  -0.40008  -0.38959  -0.38788  -0.38113
 Alpha  occ. eigenvalues --   -0.37940  -0.37814  -0.37256  -0.36859  -0.36310
 Alpha  occ. eigenvalues --   -0.35980  -0.35917  -0.34506  -0.33405  -0.33157
 Alpha  occ. eigenvalues --   -0.32686  -0.32513  -0.31048  -0.30548  -0.29913
 Alpha  occ. eigenvalues --   -0.27103  -0.26447  -0.25766  -0.25435  -0.24876
 Alpha  occ. eigenvalues --   -0.22892  -0.22527
 Alpha virt. eigenvalues --   -0.04680  -0.01848  -0.00651  -0.00453   0.04883
 Alpha virt. eigenvalues --    0.07296   0.07595   0.08619   0.09655   0.09743
 Alpha virt. eigenvalues --    0.10682   0.12165   0.12480   0.12802   0.13076
 Alpha virt. eigenvalues --    0.13378   0.13461   0.14017   0.14459   0.14727
 Alpha virt. eigenvalues --    0.15213   0.15490   0.15678   0.15876   0.17090
 Alpha virt. eigenvalues --    0.17501   0.17735   0.18272   0.18632   0.19039
 Alpha virt. eigenvalues --    0.19458   0.19550   0.19945   0.20910   0.21712
 Alpha virt. eigenvalues --    0.21832   0.21849   0.22062   0.22736   0.22906
 Alpha virt. eigenvalues --    0.24338   0.24482   0.25723   0.26244   0.27100
 Alpha virt. eigenvalues --    0.28690   0.28825   0.29800   0.31006   0.31847
 Alpha virt. eigenvalues --    0.32322   0.32703   0.33269   0.34632   0.35759
 Alpha virt. eigenvalues --    0.37616   0.38539   0.39759   0.44040   0.44212
 Alpha virt. eigenvalues --    0.45592   0.46177   0.46394   0.48193   0.49216
 Alpha virt. eigenvalues --    0.49770   0.51031   0.51372   0.52330   0.52747
 Alpha virt. eigenvalues --    0.53565   0.54154   0.54991   0.55349   0.55918
 Alpha virt. eigenvalues --    0.55994   0.56504   0.57085   0.57559   0.57738
 Alpha virt. eigenvalues --    0.58016   0.58294   0.58494   0.58877   0.59460
 Alpha virt. eigenvalues --    0.59549   0.59852   0.60300   0.60671   0.61271
 Alpha virt. eigenvalues --    0.61456   0.62360   0.63270   0.63933   0.64069
 Alpha virt. eigenvalues --    0.64187   0.65072   0.65889   0.66357   0.67090
 Alpha virt. eigenvalues --    0.67494   0.69214   0.70359   0.70720   0.70880
 Alpha virt. eigenvalues --    0.71765   0.71923   0.72567   0.73238   0.74038
 Alpha virt. eigenvalues --    0.75267   0.75939   0.77771   0.78552   0.78954
 Alpha virt. eigenvalues --    0.79705   0.80120   0.80440   0.80737   0.81616
 Alpha virt. eigenvalues --    0.82164   0.82574   0.83149   0.83291   0.84418
 Alpha virt. eigenvalues --    0.84905   0.85261   0.85318   0.85753   0.87337
 Alpha virt. eigenvalues --    0.87677   0.87681   0.87819   0.88445   0.88699
 Alpha virt. eigenvalues --    0.88987   0.89248   0.89354   0.90284   0.91386
 Alpha virt. eigenvalues --    0.92353   0.92660   0.93042   0.93443   0.93567
 Alpha virt. eigenvalues --    0.94613   0.94900   0.95309   0.96009   0.97615
 Alpha virt. eigenvalues --    0.98288   0.98746   0.98968   1.01139   1.01682
 Alpha virt. eigenvalues --    1.02489   1.02848   1.03651   1.05488   1.06846
 Alpha virt. eigenvalues --    1.08131   1.09918   1.10558   1.11666   1.13828
 Alpha virt. eigenvalues --    1.14535   1.16408   1.16635   1.17254   1.18171
 Alpha virt. eigenvalues --    1.19462   1.20144   1.20696   1.21951   1.22231
 Alpha virt. eigenvalues --    1.24980   1.25787   1.26604   1.28151   1.28792
 Alpha virt. eigenvalues --    1.29811   1.31363   1.32099   1.33856   1.34457
 Alpha virt. eigenvalues --    1.34905   1.36025   1.36995   1.37973   1.39836
 Alpha virt. eigenvalues --    1.40070   1.40605   1.40738   1.41033   1.42881
 Alpha virt. eigenvalues --    1.44046   1.44516   1.45463   1.46175   1.46704
 Alpha virt. eigenvalues --    1.48157   1.49188   1.49935   1.52093   1.53143
 Alpha virt. eigenvalues --    1.56315   1.56625   1.58193   1.58659   1.60641
 Alpha virt. eigenvalues --    1.60966   1.65358   1.65547   1.66843   1.68203
 Alpha virt. eigenvalues --    1.69210   1.69478   1.71217   1.72121   1.72375
 Alpha virt. eigenvalues --    1.73568   1.75159   1.75887   1.76857   1.76915
 Alpha virt. eigenvalues --    1.77662   1.78747   1.79460   1.80510   1.81670
 Alpha virt. eigenvalues --    1.82509   1.82909   1.84824   1.85411   1.86052
 Alpha virt. eigenvalues --    1.87305   1.87750   1.88606   1.89337   1.90397
 Alpha virt. eigenvalues --    1.91276   1.91521   1.92772   1.92906   1.93504
 Alpha virt. eigenvalues --    1.94124   1.95198   1.95593   1.96163   1.96602
 Alpha virt. eigenvalues --    1.97687   2.00465   2.01117   2.01681   2.03299
 Alpha virt. eigenvalues --    2.03875   2.04048   2.04869   2.05657   2.05989
 Alpha virt. eigenvalues --    2.06187   2.06920   2.07853   2.08040   2.09078
 Alpha virt. eigenvalues --    2.09365   2.09453   2.10131   2.10961   2.11343
 Alpha virt. eigenvalues --    2.11487   2.11723   2.13856   2.14106   2.14687
 Alpha virt. eigenvalues --    2.15093   2.15381   2.16189   2.17744   2.18689
 Alpha virt. eigenvalues --    2.18984   2.20685   2.21463   2.22909   2.23491
 Alpha virt. eigenvalues --    2.24488   2.25179   2.25305   2.25346   2.26205
 Alpha virt. eigenvalues --    2.27045   2.27909   2.28903   2.29784   2.31058
 Alpha virt. eigenvalues --    2.31537   2.32598   2.33156   2.33955   2.35937
 Alpha virt. eigenvalues --    2.36399   2.36603   2.37513   2.37660   2.39167
 Alpha virt. eigenvalues --    2.40823   2.41168   2.41369   2.42534   2.42916
 Alpha virt. eigenvalues --    2.43111   2.45078   2.45664   2.46549   2.47653
 Alpha virt. eigenvalues --    2.48339   2.48579   2.50012   2.50139   2.51134
 Alpha virt. eigenvalues --    2.52477   2.53091   2.54332   2.56244   2.57155
 Alpha virt. eigenvalues --    2.57887   2.58791   2.59020   2.59990   2.61191
 Alpha virt. eigenvalues --    2.62158   2.62881   2.64096   2.65810   2.66516
 Alpha virt. eigenvalues --    2.67278   2.67603   2.68179   2.68546   2.69195
 Alpha virt. eigenvalues --    2.71204   2.72597   2.73748   2.74488   2.74845
 Alpha virt. eigenvalues --    2.75165   2.75797   2.76462   2.77794   2.78186
 Alpha virt. eigenvalues --    2.79184   2.79688   2.82114   2.83003   2.83788
 Alpha virt. eigenvalues --    2.84412   2.84963   2.85995   2.86914   2.87956
 Alpha virt. eigenvalues --    2.88232   2.90511   2.91227   2.91770   2.93298
 Alpha virt. eigenvalues --    2.95611   2.97528   2.98180   2.99930   3.00548
 Alpha virt. eigenvalues --    3.01419   3.03208   3.06571   3.08726   3.10567
 Alpha virt. eigenvalues --    3.15489   3.16835   3.19186   3.19349   3.21269
 Alpha virt. eigenvalues --    3.21691   3.22592   3.23785   3.25164   3.26319
 Alpha virt. eigenvalues --    3.27024   3.29979   3.33357   3.35215   3.37131
 Alpha virt. eigenvalues --    3.38230   3.42549   3.42638   3.44665   3.44754
 Alpha virt. eigenvalues --    3.45952   3.47344   3.48405   3.49268   3.50292
 Alpha virt. eigenvalues --    3.51298   3.52248   3.57445   3.58364   3.71869
 Alpha virt. eigenvalues --    3.77267   3.83576   4.08376   4.10334   4.15174
 Alpha virt. eigenvalues --    4.15639   4.16338   4.19053   4.22337   4.26150
 Alpha virt. eigenvalues --    4.30751   4.30954   4.31865   4.36009   4.37339
 Alpha virt. eigenvalues --    4.43644   4.44525   4.48081   4.49502   4.53233
 Alpha virt. eigenvalues --    4.54876   4.56025   4.61405   4.65568   4.67976
 Alpha virt. eigenvalues --    4.78183   4.84150   4.85799
          Condensed to atoms (all electrons):
 Mulliken charges:
               1
     1  O   -0.482725
     2  C    0.553950
     3  N   -0.599938
     4  C    0.512747
     5  N   -0.469176
     6  C    0.095408
     7  C   -0.166371
     8  C    0.213756
     9  C   -0.156607
    10  C   -0.216485
    11  C   -0.217141
    12  C   -0.194289
    13  C    0.021023
    14  C   -0.125720
    15  C   -0.137582
    16  C    0.026009
    17  B    0.480764
    18  O   -0.474097
    19  C    0.246786
    20  C   -0.325850
    21  C   -0.319428
    22  C    0.246927
    23  C   -0.319034
    24  C   -0.325938
    25  O   -0.471935
    26  C   -0.137351
    27  C   -0.090543
    28  H    0.265103
    29  H    0.105575
    30  H    0.083461
    31  H    0.095467
    32  H    0.120540
    33  H    0.117876
    34  H    0.117440
    35  H    0.119859
    36  H    0.077704
    37  H    0.084099
    38  H    0.099057
    39  H    0.114595
    40  H    0.102203
    41  H    0.113388
    42  H    0.102219
    43  H    0.115269
    44  H    0.117215
    45  H    0.101856
    46  H    0.112747
    47  H    0.118185
    48  H    0.101573
    49  H    0.114481
    50  H    0.116191
    51  H    0.103187
    52  H    0.113550
 Sum of Mulliken charges =  -0.00000
 Mulliken charges with hydrogens summed into heavy atoms:
               1
     1  O   -0.482725
     2  C    0.553950
     3  N   -0.334836
     4  C    0.512747
     5  N   -0.469176
     6  C    0.200983
     7  C   -0.082910
     8  C    0.213756
     9  C   -0.061140
    10  C    0.021932
    11  C    0.020159
    12  C   -0.116585
    13  C    0.021023
    14  C   -0.041621
    15  C   -0.038524
    16  C    0.026009
    17  B    0.480764
    18  O   -0.474097
    19  C    0.246786
    20  C    0.004337
    21  C    0.015275
    22  C    0.246927
    23  C    0.013754
    24  C    0.006307
    25  O   -0.471935
    26  C   -0.034163
    27  C    0.023007
 Electronic spatial extent (au):  <R**2>=          20976.5053
 Charge=             -0.0000 electrons
 Dipole moment (field-independent basis, Debye):
    X=             -1.3687    Y=              5.6738    Z=              0.5920  Tot=              5.8665
 Quadrupole moment (field-independent basis, Debye-Ang):
   XX=           -111.7744   YY=           -164.0843   ZZ=           -156.5732
   XY=             13.0717   XZ=              1.2990   YZ=             -0.7207
 Traceless Quadrupole moment (field-independent basis, Debye-Ang):
   XX=             32.3696   YY=            -19.9403   ZZ=            -12.4292
   XY=             13.0717   XZ=              1.2990   YZ=             -0.7207
 Octapole moment (field-independent basis, Debye-Ang**2):
  XXX=              2.4794  YYY=             38.7250  ZZZ=              2.2196  XYY=            -13.3383
  XXY=             70.6369  XXZ=              6.1770  XZZ=            -22.4645  YZZ=              0.3351
  YYZ=              8.0464  XYZ=              6.7781
 Hexadecapole moment (field-independent basis, Debye-Ang**3):
 XXXX=         -22518.2522 YYYY=          -2053.6582 ZZZZ=           -840.0444 XXXY=            -63.4940
 XXXZ=             -2.0329 YYYX=            124.2654 YYYZ=            -12.0564 ZZZX=              5.7172
 ZZZY=            -13.5221 XXYY=          -4452.2630 XXZZ=          -4355.5441 YYZZ=           -459.7236
 XXYZ=             68.8897 YYXZ=              9.3686 ZZXY=             -0.1977
 N-N= 2.216745113464D+03 E-N=-7.165625964400D+03  KE= 1.164430550124D+03
 Calling FoFJK, ICntrl=      2127 FMM=F ISym2X=0 I1Cent= 0 IOpClX= 0 NMat=1 NMatS=1 NMatT=0.
 ***** Axes restored to original set *****
 -------------------------------------------------------------------
 Center     Atomic                   Forces (Hartrees/Bohr)
 Number     Number              X              Y              Z
 -------------------------------------------------------------------
      1        8           0.001817648   -0.002568349   -0.013255709
      2        6          -0.035320207    0.008673536    0.034711985
      3        7           0.019332289   -0.004032254   -0.003417904
      4        6           0.020281703   -0.001988680    0.021511562
      5        7          -0.003275953    0.001024659   -0.011026829
      6        6          -0.017219832    0.001426014   -0.024437441
      7        6          -0.005783831   -0.001130441    0.003666160
      8        6           0.014667629    0.003732816   -0.014580589
      9        6          -0.016893169   -0.003488440    0.004439310
     10        6           0.003744830   -0.000580054    0.001571083
     11        6           0.003505176    0.001431659    0.001903249
     12        6           0.010418242    0.001460405    0.005238031
     13        6           0.004973913   -0.003451685   -0.004845321
     14        6          -0.004782570    0.003079916   -0.000910113
     15        6           0.004785554    0.000685985    0.003712056
     16        6          -0.023464428   -0.004807864   -0.015624661
     17        5           0.008728623    0.001690934    0.005434216
     18        8           0.026769546    0.005114128    0.010890191
     19        6          -0.008125984   -0.010078849   -0.020249783
     20        6          -0.004191957    0.002680374    0.004210241
     21        6          -0.009014707    0.007281343   -0.000914051
     22        6          -0.023695903    0.004113029    0.000196195
     23        6          -0.002600209   -0.009426983   -0.006152933
     24        6           0.002740629   -0.003038488   -0.004982182
     25        8           0.021759268    0.003744733    0.019678203
     26        6           0.008213017    0.000392532    0.003827990
     27        6          -0.001877443    0.000913044    0.002164292
     28        1           0.003116465    0.000734789   -0.007321249
     29        1          -0.000069301   -0.000922562    0.004046179
     30        1           0.003897905    0.000469519    0.001199311
     31        1           0.000583796   -0.000373931    0.003073609
     32        1          -0.001332118   -0.005156731   -0.001184971
     33        1          -0.001566226   -0.004482936    0.000168230
     34        1          -0.002941111    0.003455446    0.001245875
     35        1          -0.003036597    0.004504774    0.000134070
     36        1          -0.001451765    0.000997953   -0.005279173
     37        1           0.004614826   -0.001482890    0.001154032
     38        1          -0.000430347   -0.002047145   -0.002338472
     39        1           0.000606561    0.002992386    0.002438643
     40        1          -0.003750201   -0.000632801   -0.000290166
     41        1           0.000835854   -0.002773614    0.003193157
     42        1          -0.003392076   -0.000356823   -0.000790963
     43        1           0.000396992    0.003158507    0.001804783
     44        1           0.003555079    0.002845028   -0.003890762
     45        1          -0.002129030   -0.000695179   -0.002769479
     46        1           0.002695778   -0.002583073    0.000011839
     47        1          -0.001235623   -0.002441000    0.005296884
     48        1          -0.001907116   -0.000458706   -0.003328667
     49        1           0.002421351    0.003371986   -0.001178666
     50        1           0.003199754   -0.002174194   -0.000144908
     51        1          -0.002713058    0.001409065    0.000007147
     52        1           0.004538333   -0.000210890    0.001986468
 -------------------------------------------------------------------
 Cartesian Forces:  Max     0.035320207 RMS     0.008369375

 GradGradGradGradGradGradGradGradGradGradGradGradGradGradGradGradGradGrad
 Berny optimization.
 FormGI is forming the generalized inverse of G from B-inverse, IUseBI=4.
 Internal  Forces:  Max     0.032177128 RMS     0.004974139
 Search for a local minimum.
 Step number   1 out of a maximum of  294
 All quantities printed in internal units (Hartrees-Bohrs-Radians)
 Mixed Optimization -- RFO/linear search
 Second derivative matrix not updated -- first step.
 ITU=  0
     Eigenvalues ---    0.00230   0.00230   0.00230   0.00230   0.00230
     Eigenvalues ---    0.00435   0.00592   0.00822   0.01310   0.01421
     Eigenvalues ---    0.01520   0.01542   0.01632   0.01690   0.01861
     Eigenvalues ---    0.01985   0.02061   0.02062   0.02100   0.02102
     Eigenvalues ---    0.02105   0.02125   0.02129   0.02137   0.02151
     Eigenvalues ---    0.02154   0.02167   0.02172   0.02192   0.02223
     Eigenvalues ---    0.02251   0.02341   0.02387   0.02990   0.02990
     Eigenvalues ---    0.03432   0.03484   0.03723   0.03809   0.05301
     Eigenvalues ---    0.05301   0.05310   0.05310   0.05361   0.05366
     Eigenvalues ---    0.05381   0.05383   0.05758   0.06308   0.07709
     Eigenvalues ---    0.10004   0.10272   0.10898   0.11660   0.12781
     Eigenvalues ---    0.14683   0.15637   0.15950   0.15996   0.15999
     Eigenvalues ---    0.15999   0.16000   0.16000   0.16000   0.16000
     Eigenvalues ---    0.16000   0.16000   0.16000   0.16000   0.16000
     Eigenvalues ---    0.16000   0.16000   0.16000   0.16000   0.16000
     Eigenvalues ---    0.16000   0.16000   0.16000   0.17375   0.17862
     Eigenvalues ---    0.21363   0.21999   0.22021   0.22315   0.22969
     Eigenvalues ---    0.23489   0.23999   0.24547   0.24982   0.24987
     Eigenvalues ---    0.24996   0.24999   0.25000   0.25000   0.25000
     Eigenvalues ---    0.25018   0.25045   0.26305   0.27196   0.27717
     Eigenvalues ---    0.27717   0.28335   0.28337   0.29887   0.30911
     Eigenvalues ---    0.31037   0.34601   0.34687   0.34690   0.34695
     Eigenvalues ---    0.34700   0.34715   0.34725   0.34731   0.34733
     Eigenvalues ---    0.34757   0.34758   0.34789   0.34807   0.34846
     Eigenvalues ---    0.34847   0.34852   0.34854   0.35669   0.35859
     Eigenvalues ---    0.35870   0.35895   0.35919   0.36090   0.36128
     Eigenvalues ---    0.39792   0.40954   0.41773   0.42062   0.42148
     Eigenvalues ---    0.43571   0.45027   0.45406   0.45602   0.45775
     Eigenvalues ---    0.45864   0.46229   0.46471   0.46895   0.47433
     Eigenvalues ---    0.48781   0.51390   0.52973   0.55570   0.90800
 RFO step:  Lambda=-2.25668661D-02 EMin= 2.30000000D-03
 Linear search not attempted -- first point.
 Iteration  1 RMS(Cart)=  0.06483438 RMS(Int)=  0.00076691
 Iteration  2 RMS(Cart)=  0.00168625 RMS(Int)=  0.00025798
 Iteration  3 RMS(Cart)=  0.00000081 RMS(Int)=  0.00025798
 Variable       Old X    -DE/DX   Delta X   Delta X   Delta X     New X
                                 (Linear)    (Quad)   (Total)
    R1        2.32566  -0.01359   0.00000  -0.01460  -0.01460   2.31106
    R2        2.54629   0.03218   0.00000   0.05564   0.05564   2.60193
    R3        2.85943  -0.00436   0.00000  -0.01309  -0.01309   2.84634
    R4        2.64583   0.00062   0.00000   0.00129   0.00129   2.64712
    R5        1.89248   0.00684   0.00000   0.01376   0.01376   1.90623
    R6        2.57181  -0.02821   0.00000  -0.05273  -0.05273   2.51908
    R7        2.64268   0.00492   0.00000   0.01043   0.01044   2.65312
    R8        2.56040  -0.01810   0.00000  -0.03381  -0.03382   2.52657
    R9        2.63620  -0.00286   0.00000  -0.00618  -0.00619   2.63000
   R10        2.04209   0.00403   0.00000   0.01056   0.01056   2.05265
   R11        2.64474  -0.00278   0.00000  -0.00412  -0.00412   2.64062
   R12        2.03941   0.00410   0.00000   0.01070   0.01070   2.05011
   R13        2.88190  -0.02127   0.00000  -0.06618  -0.06618   2.81572
   R14        2.64409  -0.00864   0.00000  -0.01607  -0.01606   2.62803
   R15        2.86159  -0.00189   0.00000  -0.00266  -0.00257   2.85901
   R16        2.86166  -0.00186   0.00000  -0.00254  -0.00246   2.85920
   R17        2.06327  -0.00308   0.00000  -0.00837  -0.00837   2.05490
   R18        2.86226  -0.00732   0.00000  -0.02819  -0.02836   2.83389
   R19        2.06181  -0.00324   0.00000  -0.00876  -0.00876   2.05304
   R20        2.06173  -0.00345   0.00000  -0.00933  -0.00933   2.05239
   R21        2.06165  -0.00340   0.00000  -0.00921  -0.00921   2.05244
   R22        2.06186  -0.00324   0.00000  -0.00878  -0.00878   2.05308
   R23        2.03882   0.00554   0.00000   0.01444   0.01444   2.05326
   R24        2.65551  -0.00149   0.00000  -0.00382  -0.00382   2.65170
   R25        2.64796  -0.00369   0.00000  -0.00844  -0.00845   2.63951
   R26        2.63187   0.00100   0.00000   0.00209   0.00210   2.63397
   R27        2.04247   0.00424   0.00000   0.01111   0.01111   2.05358
   R28        2.63763   0.00530   0.00000   0.01161   0.01162   2.64924
   R29        2.04303   0.00310   0.00000   0.00813   0.00813   2.05116
   R30        2.99163  -0.01624   0.00000  -0.05955  -0.05955   2.93209
   R31        2.63741   0.00718   0.00000   0.01539   0.01540   2.65280
   R32        2.60212  -0.00106   0.00000  -0.00390  -0.00350   2.59863
   R33        2.60148  -0.00136   0.00000  -0.00449  -0.00407   2.59741
   R34        2.67567   0.02563   0.00000   0.05837   0.05831   2.73398
   R35        2.91407  -0.00926   0.00000  -0.03027  -0.03027   2.88381
   R36        2.92762  -0.01033   0.00000  -0.03448  -0.03448   2.89314
   R37        2.97179  -0.00569   0.00000  -0.01948  -0.02010   2.95169
   R38        2.05989   0.00132   0.00000   0.00357   0.00357   2.06346
   R39        2.05923   0.00370   0.00000   0.00997   0.00997   2.06920
   R40        2.06070   0.00172   0.00000   0.00464   0.00464   2.06534
   R41        2.05925   0.00347   0.00000   0.00936   0.00936   2.06861
   R42        2.06139   0.00205   0.00000   0.00555   0.00555   2.06695
   R43        2.06113   0.00092   0.00000   0.00247   0.00247   2.06361
   R44        2.92761  -0.01030   0.00000  -0.03438  -0.03438   2.89324
   R45        2.91411  -0.00928   0.00000  -0.03035  -0.03035   2.88376
   R46        2.67537   0.02569   0.00000   0.05841   0.05836   2.73373
   R47        2.05913   0.00353   0.00000   0.00953   0.00953   2.06866
   R48        2.06110   0.00218   0.00000   0.00589   0.00589   2.06699
   R49        2.06123   0.00086   0.00000   0.00234   0.00234   2.06357
   R50        2.05916   0.00374   0.00000   0.01008   0.01008   2.06924
   R51        2.06071   0.00168   0.00000   0.00455   0.00455   2.06526
   R52        2.06019   0.00119   0.00000   0.00320   0.00320   2.06339
   R53        2.63086   0.00031   0.00000   0.00058   0.00057   2.63143
   R54        2.04285   0.00295   0.00000   0.00773   0.00773   2.05058
   R55        2.04603   0.00129   0.00000   0.00340   0.00340   2.04942
    A1        2.17891   0.00130   0.00000   0.00501   0.00496   2.18387
    A2        2.09845   0.00331   0.00000   0.01233   0.01228   2.11073
    A3        2.00498  -0.00458   0.00000  -0.01659  -0.01664   1.98833
    A4        2.24798   0.00092   0.00000   0.00372   0.00371   2.25169
    A5        2.00433   0.00320   0.00000   0.01809   0.01809   2.02242
    A6        2.02475  -0.00414   0.00000  -0.02223  -0.02223   2.00252
    A7        2.11953  -0.01428   0.00000  -0.05103  -0.05105   2.06848
    A8        2.03678   0.00502   0.00000   0.01978   0.01977   2.05655
    A9        2.12623   0.00927   0.00000   0.03153   0.03153   2.15775
   A10        2.06834  -0.00773   0.00000  -0.03799  -0.03801   2.03033
   A11        2.14151   0.00983   0.00000   0.03622   0.03618   2.17770
   A12        2.02488  -0.00586   0.00000  -0.02326  -0.02326   2.00162
   A13        2.11679  -0.00398   0.00000  -0.01296  -0.01295   2.10384
   A14        2.07422  -0.00222   0.00000  -0.00628  -0.00629   2.06793
   A15        2.09648   0.00123   0.00000   0.00379   0.00380   2.10027
   A16        2.11249   0.00099   0.00000   0.00248   0.00249   2.11498
   A17        2.12030   0.00525   0.00000   0.01600   0.01599   2.13629
   A18        2.07222  -0.00750   0.00000  -0.02101  -0.02099   2.05123
   A19        2.09066   0.00225   0.00000   0.00500   0.00499   2.09565
   A20        2.13847  -0.00186   0.00000  -0.01525  -0.01542   2.12304
   A21        2.13888  -0.00186   0.00000  -0.01529  -0.01547   2.12342
   A22        1.96474   0.00055   0.00000   0.00984   0.00994   1.97468
   A23        2.00397   0.00219   0.00000   0.01113   0.01114   2.01511
   A24        2.00507   0.00217   0.00000   0.01081   0.01083   2.01590
   A25        2.07228  -0.00166   0.00000  -0.01038  -0.01041   2.06188
   A26        2.06414  -0.00125   0.00000  -0.00767  -0.00767   2.05647
   A27        2.08959  -0.00299   0.00000  -0.01879  -0.01876   2.07084
   A28        2.08373  -0.00021   0.00000  -0.00478  -0.00484   2.07889
   A29        1.95160   0.00330   0.00000   0.02349   0.02351   1.97511
   A30        2.06462  -0.00125   0.00000  -0.00779  -0.00779   2.05684
   A31        2.07265  -0.00166   0.00000  -0.01055  -0.01058   2.06207
   A32        2.08333  -0.00018   0.00000  -0.00454  -0.00460   2.07873
   A33        2.08881  -0.00297   0.00000  -0.01850  -0.01847   2.07034
   A34        1.95189   0.00328   0.00000   0.02334   0.02336   1.97525
   A35        2.08371  -0.00165   0.00000  -0.00245  -0.00242   2.08129
   A36        2.10767   0.00084   0.00000   0.00130   0.00128   2.10896
   A37        2.09177   0.00081   0.00000   0.00115   0.00113   2.09290
   A38        2.12336   0.00465   0.00000   0.01830   0.01828   2.14164
   A39        2.08499  -0.00755   0.00000  -0.02648  -0.02648   2.05851
   A40        2.07471   0.00289   0.00000   0.00804   0.00802   2.08272
   A41        2.10023   0.00021   0.00000  -0.00044  -0.00046   2.09977
   A42        2.11957  -0.00271   0.00000  -0.01412  -0.01414   2.10543
   A43        2.06315   0.00248   0.00000   0.01431   0.01428   2.07742
   A44        2.10200   0.00042   0.00000   0.00316   0.00318   2.10517
   A45        2.09238   0.00022   0.00000   0.00078   0.00078   2.09316
   A46        2.08877  -0.00064   0.00000  -0.00395  -0.00396   2.08481
   A47        2.09891   0.00193   0.00000   0.00593   0.00593   2.10484
   A48        2.08488  -0.00454   0.00000  -0.01435  -0.01434   2.07054
   A49        2.09937   0.00261   0.00000   0.00841   0.00840   2.10777
   A50        2.16825  -0.00208   0.00000  -0.00596  -0.00595   2.16229
   A51        2.16907  -0.00221   0.00000  -0.00641  -0.00641   2.16267
   A52        1.94587   0.00429   0.00000   0.01237   0.01236   1.95823
   A53        1.87197  -0.00115   0.00000   0.00096   0.00042   1.87239
   A54        1.86798   0.00249   0.00000   0.03339   0.03330   1.90128
   A55        1.84336   0.00170   0.00000   0.03089   0.03124   1.87460
   A56        1.77284  -0.00032   0.00000   0.00761   0.00761   1.78045
   A57        1.92783   0.00097   0.00000  -0.00176  -0.00359   1.92425
   A58        2.01220   0.00023   0.00000  -0.00839  -0.00907   2.00313
   A59        2.01786  -0.00436   0.00000  -0.04798  -0.04832   1.96954
   A60        1.95664  -0.00385   0.00000  -0.02031  -0.02043   1.93620
   A61        1.93791   0.00053   0.00000   0.00295   0.00295   1.94086
   A62        1.94281  -0.00449   0.00000  -0.02537  -0.02552   1.91729
   A63        1.88148   0.00202   0.00000   0.01256   0.01258   1.89407
   A64        1.86016   0.00445   0.00000   0.02429   0.02403   1.88419
   A65        1.88100   0.00185   0.00000   0.00870   0.00867   1.88967
   A66        1.94261   0.00157   0.00000   0.01078   0.01085   1.95345
   A67        1.95172  -0.00268   0.00000  -0.01463  -0.01487   1.93685
   A68        1.94502  -0.00779   0.00000  -0.04486  -0.04510   1.89991
   A69        1.87901   0.00127   0.00000   0.01099   0.01105   1.89006
   A70        1.87486   0.00330   0.00000   0.01803   0.01810   1.89296
   A71        1.86662   0.00494   0.00000   0.02301   0.02246   1.88908
   A72        2.01805  -0.00431   0.00000  -0.04778  -0.04812   1.96993
   A73        2.01243   0.00020   0.00000  -0.00868  -0.00937   2.00306
   A74        1.77325  -0.00036   0.00000   0.00726   0.00727   1.78053
   A75        1.92793   0.00094   0.00000  -0.00187  -0.00372   1.92422
   A76        1.84281   0.00172   0.00000   0.03126   0.03160   1.87440
   A77        1.86746   0.00253   0.00000   0.03370   0.03361   1.90107
   A78        1.94251   0.00160   0.00000   0.01095   0.01102   1.95352
   A79        1.95175  -0.00269   0.00000  -0.01477  -0.01501   1.93675
   A80        1.94442  -0.00776   0.00000  -0.04464  -0.04488   1.89954
   A81        1.87967   0.00123   0.00000   0.01068   0.01073   1.89040
   A82        1.87476   0.00329   0.00000   0.01809   0.01817   1.89292
   A83        1.86677   0.00493   0.00000   0.02297   0.02242   1.88919
   A84        1.93837   0.00049   0.00000   0.00271   0.00270   1.94107
   A85        1.94279  -0.00450   0.00000  -0.02547  -0.02562   1.91717
   A86        1.95650  -0.00385   0.00000  -0.02028  -0.02040   1.93610
   A87        1.88124   0.00188   0.00000   0.00878   0.00875   1.88999
   A88        1.88155   0.00205   0.00000   0.01270   0.01272   1.89427
   A89        1.85953   0.00446   0.00000   0.02441   0.02415   1.88367
   A90        1.87316  -0.00110   0.00000   0.00095   0.00042   1.87358
   A91        2.10043   0.00210   0.00000   0.00968   0.00967   2.11011
   A92        2.09367  -0.00172   0.00000  -0.00854  -0.00854   2.08513
   A93        2.08907  -0.00037   0.00000  -0.00113  -0.00113   2.08794
   A94        2.10396  -0.00109   0.00000  -0.00613  -0.00615   2.09781
   A95        2.10010  -0.00435   0.00000  -0.02372  -0.02371   2.07639
   A96        2.07912   0.00543   0.00000   0.02985   0.02986   2.10898
    D1        0.03958   0.00029   0.00000   0.00627   0.00627   0.04585
    D2       -2.97731   0.00071   0.00000   0.01195   0.01199  -2.96532
    D3        3.13689   0.00108   0.00000   0.02640   0.02636  -3.11993
    D4        0.12001   0.00149   0.00000   0.03208   0.03208   0.15209
    D5       -2.63234   0.00010   0.00000  -0.00060  -0.00060  -2.63294
    D6        0.49161  -0.00024   0.00000  -0.01003  -0.00999   0.48162
    D7        0.55131  -0.00060   0.00000  -0.01956  -0.01960   0.53171
    D8       -2.60792  -0.00094   0.00000  -0.02899  -0.02899  -2.63691
    D9        0.37972  -0.00027   0.00000  -0.00189  -0.00182   0.37790
   D10       -2.80001   0.00031   0.00000   0.00700   0.00689  -2.79312
   D11       -2.88780  -0.00024   0.00000  -0.00519  -0.00509  -2.89289
   D12        0.21565   0.00034   0.00000   0.00369   0.00362   0.21927
   D13        3.11994   0.00049   0.00000   0.00884   0.00869   3.12864
   D14        0.01845   0.00001   0.00000  -0.00012  -0.00015   0.01830
   D15       -3.11977   0.00012   0.00000  -0.00111  -0.00129  -3.12106
   D16        0.02997   0.00014   0.00000  -0.00020  -0.00034   0.02963
   D17       -0.01648   0.00014   0.00000   0.00587   0.00595  -0.01053
   D18        3.13326   0.00016   0.00000   0.00678   0.00690   3.14016
   D19       -0.01042  -0.00016   0.00000  -0.00447  -0.00452  -0.01494
   D20        3.13091   0.00019   0.00000   0.00388   0.00387   3.13478
   D21        0.00048   0.00012   0.00000   0.00308   0.00313   0.00362
   D22        3.14155   0.00018   0.00000   0.00473   0.00480  -3.13683
   D23       -3.14084  -0.00024   0.00000  -0.00570  -0.00571   3.13664
   D24        0.00023  -0.00018   0.00000  -0.00405  -0.00404  -0.00381
   D25       -3.14044  -0.00004   0.00000  -0.00079  -0.00074  -3.14118
   D26        0.00166   0.00009   0.00000   0.00314   0.00320   0.00486
   D27        0.00168  -0.00010   0.00000  -0.00246  -0.00242  -0.00074
   D28       -3.13940   0.00003   0.00000   0.00148   0.00151  -3.13788
   D29       -0.63516   0.00234   0.00000   0.01566   0.01555  -0.61961
   D30        0.63494  -0.00221   0.00000  -0.01188  -0.01171   0.62323
   D31       -3.14030   0.00005   0.00000   0.00156   0.00158  -3.13871
   D32        2.50591   0.00220   0.00000   0.01168   0.01151   2.51742
   D33       -2.50717  -0.00235   0.00000  -0.01586  -0.01575  -2.52292
   D34        0.00078  -0.00009   0.00000  -0.00242  -0.00245  -0.00168
   D35        0.00601  -0.00034   0.00000  -0.00773  -0.00768  -0.00167
   D36        3.13953  -0.00035   0.00000  -0.00863  -0.00862   3.13091
   D37       -3.13508  -0.00020   0.00000  -0.00387  -0.00385  -3.13893
   D38       -0.00156  -0.00022   0.00000  -0.00477  -0.00479  -0.00635
   D39        0.03460  -0.00010   0.00000  -0.00157  -0.00152   0.03309
   D40       -2.42454  -0.00194   0.00000  -0.01875  -0.01866  -2.44320
   D41        2.52684   0.00166   0.00000   0.01211   0.01206   2.53889
   D42        0.06769  -0.00018   0.00000  -0.00507  -0.00508   0.06261
   D43        2.42592   0.00192   0.00000   0.01837   0.01828   2.44420
   D44       -0.03505   0.00012   0.00000   0.00191   0.00186  -0.03319
   D45       -0.06882   0.00019   0.00000   0.00526   0.00527  -0.06354
   D46       -2.52979  -0.00161   0.00000  -0.01120  -0.01114  -2.54093
   D47       -2.51896  -0.00133   0.00000  -0.00817  -0.00813  -2.52709
   D48       -0.00076   0.00002   0.00000   0.00037   0.00036  -0.00039
   D49        0.00074  -0.00002   0.00000  -0.00028  -0.00028   0.00047
   D50        2.51895   0.00133   0.00000   0.00826   0.00822   2.52717
   D51       -3.14158  -0.00049   0.00000  -0.01078  -0.01087   3.13073
   D52        0.02366   0.00006   0.00000   0.00205   0.00188   0.02555
   D53        0.01755  -0.00004   0.00000  -0.00106  -0.00102   0.01652
   D54       -3.10039   0.00050   0.00000   0.01177   0.01173  -3.08866
   D55        3.14018   0.00008   0.00000   0.00343   0.00331  -3.13969
   D56       -0.00215   0.00013   0.00000   0.00462   0.00451   0.00235
   D57       -0.01855  -0.00024   0.00000  -0.00562  -0.00563  -0.02418
   D58        3.12230  -0.00018   0.00000  -0.00444  -0.00443   3.11787
   D59       -0.00521   0.00031   0.00000   0.00661   0.00661   0.00140
   D60       -3.13738   0.00033   0.00000   0.00695   0.00698  -3.13041
   D61        3.11348  -0.00029   0.00000  -0.00619  -0.00631   3.10717
   D62       -0.01869  -0.00027   0.00000  -0.00585  -0.00595  -0.02464
   D63       -3.14150  -0.00015   0.00000  -0.00318  -0.00319   3.13849
   D64       -0.00638  -0.00020   0.00000  -0.00517  -0.00517  -0.01155
   D65       -0.00931  -0.00016   0.00000  -0.00349  -0.00353  -0.01284
   D66        3.12581  -0.00022   0.00000  -0.00548  -0.00551   3.12030
   D67       -0.00471  -0.00030   0.00000  -0.01138  -0.01140  -0.01610
   D68        3.13689  -0.00032   0.00000  -0.01226  -0.01227   3.12462
   D69       -3.13978  -0.00021   0.00000  -0.00929  -0.00928   3.13412
   D70        0.00182  -0.00024   0.00000  -0.01017  -0.01016  -0.00834
   D71        0.00540  -0.00008   0.00000  -0.00156  -0.00156   0.00384
   D72       -3.13142  -0.00011   0.00000  -0.00174  -0.00175  -3.13317
   D73        3.14053  -0.00014   0.00000  -0.00356  -0.00356   3.13697
   D74        0.00371  -0.00017   0.00000  -0.00374  -0.00375  -0.00004
   D75        2.93793   0.00196   0.00000   0.01853   0.01840   2.95633
   D76       -0.20367   0.00198   0.00000   0.01931   0.01919  -0.18448
   D77        2.94857   0.00190   0.00000   0.01761   0.01748   2.96605
   D78       -0.19301   0.00188   0.00000   0.01683   0.01669  -0.17632
   D79        2.58107   0.00054   0.00000  -0.02442  -0.02499   2.55608
   D80       -1.64753   0.00368   0.00000   0.00469   0.00452  -1.64301
   D81        0.46482  -0.00063   0.00000  -0.03282  -0.03328   0.43154
   D82       -0.94683   0.00085   0.00000   0.00650   0.00670  -0.94013
   D83       -3.05250   0.00054   0.00000   0.00234   0.00262  -3.04989
   D84        1.13501   0.00084   0.00000   0.00635   0.00668   1.14170
   D85       -2.94528  -0.00301   0.00000  -0.04745  -0.04779  -2.99307
   D86        1.23223  -0.00333   0.00000  -0.05161  -0.05187   1.18036
   D87       -0.86343  -0.00302   0.00000  -0.04760  -0.04781  -0.91124
   D88        1.01033   0.00217   0.00000   0.03262   0.03254   1.04287
   D89       -1.09534   0.00185   0.00000   0.02845   0.02846  -1.06688
   D90        3.09218   0.00216   0.00000   0.03246   0.03252   3.12470
   D91       -3.10067  -0.00147   0.00000  -0.00653  -0.00698  -3.10765
   D92        1.08011  -0.00234   0.00000  -0.01799  -0.01829   1.06182
   D93       -1.00813  -0.00148   0.00000  -0.00666  -0.00728  -1.01541
   D94       -1.08673   0.00284   0.00000   0.04863   0.04841  -1.03831
   D95        3.09406   0.00198   0.00000   0.03716   0.03711   3.13116
   D96        1.00581   0.00284   0.00000   0.04850   0.04811   1.05392
   D97        1.23799  -0.00003   0.00000  -0.01162  -0.01094   1.22706
   D98       -0.86441  -0.00089   0.00000  -0.02308  -0.02224  -0.88666
   D99       -2.95266  -0.00003   0.00000  -0.01175  -0.01124  -2.96389
   D100       1.42188   0.00367   0.00000   0.06693   0.06651   1.48838
   D101      -2.57546   0.00082   0.00000   0.00518   0.00534  -2.57011
   D102      -0.56333   0.00371   0.00000   0.04602   0.04580  -0.51753
   D103      -0.59051   0.00079   0.00000   0.02612   0.02608  -0.56443
   D104       1.69534  -0.00206   0.00000  -0.03563  -0.03508   1.66025
   D105      -2.57572   0.00083   0.00000   0.00522   0.00538  -2.57035
   D106      -2.87577   0.00361   0.00000   0.08753   0.08691  -2.78887
   D107      -0.58992   0.00076   0.00000   0.02578   0.02574  -0.56418
   D108       1.42220   0.00365   0.00000   0.06662   0.06620   1.48840
   D109       1.23852  -0.00005   0.00000  -0.01194  -0.01126   1.22727
   D110      -0.86467  -0.00089   0.00000  -0.02303  -0.02219  -0.88686
   D111      -2.95272  -0.00003   0.00000  -0.01172  -0.01121  -2.96393
   D112      -1.08681   0.00285   0.00000   0.04871   0.04850  -1.03831
   D113       3.09318   0.00201   0.00000   0.03763   0.03757   3.13075
   D114       1.00513   0.00287   0.00000   0.04894   0.04855   1.05368
   D115      -3.09989  -0.00151   0.00000  -0.00693  -0.00738  -3.10727
   D116       1.08010  -0.00235   0.00000  -0.01801  -0.01831   1.06179
   D117      -1.00795  -0.00149   0.00000  -0.00670  -0.00733  -1.01528
   D118      -1.09528   0.00183   0.00000   0.02839   0.02840  -1.06689
   D119       3.09164   0.00215   0.00000   0.03254   0.03260   3.12424
   D120       1.01070   0.00215   0.00000   0.03258   0.03250   1.04320
   D121       1.23290  -0.00334   0.00000  -0.05182  -0.05208   1.18082
   D122      -0.86337  -0.00302   0.00000  -0.04766  -0.04787  -0.91124
   D123      -2.94430  -0.00302   0.00000  -0.04763  -0.04797  -2.99228
   D124      -3.05273   0.00056   0.00000   0.00264   0.00293  -3.04981
   D125       1.13418   0.00088   0.00000   0.00680   0.00713   1.14132
   D126      -0.94675   0.00088   0.00000   0.00683   0.00703  -0.93972
[...]
 Alpha virt. eigenvalues --    0.34121   0.34163   0.34511   0.34779   0.34948
 Alpha virt. eigenvalues --    0.35517   0.35803   0.36146   0.36519   0.36818
 Alpha virt. eigenvalues --    0.37028   0.37380   0.38156   0.38832   0.39116
 Alpha virt. eigenvalues --    0.39247   0.39394   0.39839   0.40179   0.40385
 Alpha virt. eigenvalues --    0.40791   0.41047   0.41575   0.41780   0.42230
 Alpha virt. eigenvalues --    0.42675   0.42781   0.43040   0.43357   0.43574
 Alpha virt. eigenvalues --    0.43800   0.44024   0.44295   0.44552   0.44824
 Alpha virt. eigenvalues --    0.45153   0.45490   0.45741   0.46032   0.46221
 Alpha virt. eigenvalues --    0.46565   0.47135   0.47515   0.47929   0.48124
 Alpha virt. eigenvalues --    0.48535   0.48832   0.49212   0.49472   0.49901
 Alpha virt. eigenvalues --    0.50095   0.50237   0.50371   0.50581   0.50942
 Alpha virt. eigenvalues --    0.51087   0.51323   0.51577   0.51858   0.52464
 Alpha virt. eigenvalues --    0.53052   0.53412   0.53512   0.53766   0.53974
 Alpha virt. eigenvalues --    0.54488   0.55005   0.55447   0.56106   0.56459
 Alpha virt. eigenvalues --    0.56747   0.57213   0.57865   0.58156   0.58459
 Alpha virt. eigenvalues --    0.58786   0.59023   0.60143   0.60802   0.61121
 Alpha virt. eigenvalues --    0.61962   0.62003   0.62640   0.63069   0.63648
 Alpha virt. eigenvalues --    0.63865   0.64296   0.65631   0.66129   0.67038
 Alpha virt. eigenvalues --    0.67219   0.68011   0.68353   0.68889   0.69149
 Alpha virt. eigenvalues --    0.69585   0.69780   0.70406   0.71190   0.71325
 Alpha virt. eigenvalues --    0.71368   0.72599   0.73073   0.73500   0.73694
 Alpha virt. eigenvalues --    0.74114   0.75210   0.75941   0.76702   0.77178
 Alpha virt. eigenvalues --    0.77384   0.78024   0.78202   0.78839   0.79065
 Alpha virt. eigenvalues --    0.80014   0.80481   0.80638   0.81702   0.82281
 Alpha virt. eigenvalues --    0.83304   0.83862   0.83956   0.84579   0.85073
 Alpha virt. eigenvalues --    0.85698   0.86679   0.87089   0.87369   0.87897
 Alpha virt. eigenvalues --    0.88407   0.89896   0.90195   0.90421   0.90658
 Alpha virt. eigenvalues --    0.91194   0.91708   0.92250   0.92958   0.93342
 Alpha virt. eigenvalues --    0.93590   0.94334   0.94524   0.95344   0.95617
 Alpha virt. eigenvalues --    0.95874   0.96575   0.97230   0.97774   0.98748
 Alpha virt. eigenvalues --    0.99976   1.00560   1.00789   1.01043   1.01310
 Alpha virt. eigenvalues --    1.01843   1.02214   1.02778   1.03590   1.04311
 Alpha virt. eigenvalues --    1.04898   1.05588   1.06062   1.06862   1.08061
 Alpha virt. eigenvalues --    1.08504   1.08737   1.09729   1.10414   1.10560
 Alpha virt. eigenvalues --    1.10779   1.11415   1.11776   1.12399   1.13253
 Alpha virt. eigenvalues --    1.14388   1.14934   1.16123   1.16450   1.16926
 Alpha virt. eigenvalues --    1.17412   1.17512   1.17926   1.18568   1.19758
 Alpha virt. eigenvalues --    1.20098   1.20535   1.20851   1.21773   1.22831
 Alpha virt. eigenvalues --    1.22923   1.23420   1.24292   1.25167   1.25865
 Alpha virt. eigenvalues --    1.26826   1.27453   1.27642   1.28109   1.28895
 Alpha virt. eigenvalues --    1.29656   1.30155   1.30907   1.31447   1.31737
 Alpha virt. eigenvalues --    1.32463   1.33604   1.34133   1.34434   1.34704
 Alpha virt. eigenvalues --    1.35345   1.35978   1.36709   1.37428   1.38922
 Alpha virt. eigenvalues --    1.39469   1.41222   1.42273   1.43185   1.43303
 Alpha virt. eigenvalues --    1.44130   1.45232   1.45835   1.45971   1.47735
 Alpha virt. eigenvalues --    1.47914   1.49689   1.49810   1.50789   1.52080
 Alpha virt. eigenvalues --    1.52408   1.52511   1.52722   1.53541   1.53662
 Alpha virt. eigenvalues --    1.54060   1.54289   1.54515   1.55558   1.56344
 Alpha virt. eigenvalues --    1.56482   1.57058   1.57671   1.58378   1.58462
 Alpha virt. eigenvalues --    1.59175   1.59290   1.60316   1.60379   1.60860
 Alpha virt. eigenvalues --    1.61178   1.61579   1.61916   1.62967   1.63434
 Alpha virt. eigenvalues --    1.63842   1.64243   1.64386   1.64979   1.65257
 Alpha virt. eigenvalues --    1.65732   1.66425   1.66544   1.66795   1.67016
 Alpha virt. eigenvalues --    1.68193   1.69055   1.69166   1.69972   1.70610
 Alpha virt. eigenvalues --    1.70998   1.71201   1.72214   1.72454   1.72979
 Alpha virt. eigenvalues --    1.73409   1.73950   1.74570   1.74996   1.76933
 Alpha virt. eigenvalues --    1.77773   1.78177   1.78550   1.78745   1.79712
 Alpha virt. eigenvalues --    1.80006   1.80879   1.81744   1.82258   1.82626
 Alpha virt. eigenvalues --    1.83273   1.83631   1.84609   1.85561   1.86293
 Alpha virt. eigenvalues --    1.87067   1.87648   1.88079   1.88501   1.89325
 Alpha virt. eigenvalues --    1.90815   1.91337   1.91908   1.92168   1.92795
 Alpha virt. eigenvalues --    1.93335   1.93682   1.93881   1.94484   1.95917
 Alpha virt. eigenvalues --    1.96189   1.96284   1.97068   1.97273   1.97585
 Alpha virt. eigenvalues --    1.98431   1.99540   2.00417   2.02978   2.03164
 Alpha virt. eigenvalues --    2.04029   2.04185   2.05798   2.06034   2.06642
 Alpha virt. eigenvalues --    2.07665   2.08631   2.08798   2.09157   2.09893
 Alpha virt. eigenvalues --    2.10109   2.11543   2.11817   2.12478   2.12663
 Alpha virt. eigenvalues --    2.14311   2.15178   2.15759   2.16220   2.16502
 Alpha virt. eigenvalues --    2.17538   2.17814   2.18605   2.18910   2.19293
 Alpha virt. eigenvalues --    2.19382   2.19847   2.21588   2.22110   2.23134
 Alpha virt. eigenvalues --    2.23199   2.23540   2.25475   2.26395   2.28306
 Alpha virt. eigenvalues --    2.29387   2.29732   2.30466   2.31305   2.31590
 Alpha virt. eigenvalues --    2.31849   2.32682   2.33792   2.34577   2.35012
 Alpha virt. eigenvalues --    2.35381   2.35680   2.36051   2.36985   2.37681
 Alpha virt. eigenvalues --    2.38083   2.38307   2.38614   2.38782   2.39143
 Alpha virt. eigenvalues --    2.39446   2.40426   2.40713   2.41383   2.42185
 Alpha virt. eigenvalues --    2.42320   2.42888   2.43745   2.45128   2.46090
 Alpha virt. eigenvalues --    2.46213   2.46555   2.47750   2.48355   2.48851
 Alpha virt. eigenvalues --    2.49638   2.50452   2.50767   2.51614   2.52630
 Alpha virt. eigenvalues --    2.53467   2.53708   2.54103   2.55026   2.55414
 Alpha virt. eigenvalues --    2.56153   2.56734   2.57699   2.58088   2.58559
 Alpha virt. eigenvalues --    2.58868   2.59381   2.59477   2.60322   2.60782
 Alpha virt. eigenvalues --    2.61206   2.62024   2.62137   2.62960   2.63267
 Alpha virt. eigenvalues --    2.64016   2.64470   2.65110   2.66194   2.66505
 Alpha virt. eigenvalues --    2.67194   2.67409   2.67874   2.68441   2.69351
 Alpha virt. eigenvalues --    2.69378   2.69946   2.70296   2.70999   2.71540
 Alpha virt. eigenvalues --    2.71676   2.72213   2.72928   2.73005   2.73401
 Alpha virt. eigenvalues --    2.73506   2.74446   2.74762   2.76014   2.76836
 Alpha virt. eigenvalues --    2.77017   2.77682   2.77769   2.78611   2.79110
 Alpha virt. eigenvalues --    2.79582   2.79791   2.80430   2.80902   2.81293
 Alpha virt. eigenvalues --    2.81937   2.82991   2.83482   2.84047   2.84992
 Alpha virt. eigenvalues --    2.85553   2.86380   2.86746   2.87759   2.88622
 Alpha virt. eigenvalues --    2.89194   2.89580   2.90107   2.90474   2.90851
 Alpha virt. eigenvalues --    2.91125   2.92374   2.92492   2.92728   2.94382
 Alpha virt. eigenvalues --    2.94798   2.95937   2.96889   2.97335   2.97453
 Alpha virt. eigenvalues --    2.97806   2.99181   2.99645   3.00783   3.01118
 Alpha virt. eigenvalues --    3.01977   3.02682   3.03847   3.03990   3.04870
 Alpha virt. eigenvalues --    3.05376   3.05687   3.06491   3.06969   3.07313
 Alpha virt. eigenvalues --    3.07657   3.08042   3.08633   3.09864   3.10156
 Alpha virt. eigenvalues --    3.10677   3.11419   3.12157   3.12691   3.12849
 Alpha virt. eigenvalues --    3.13426   3.14049   3.14361   3.14678   3.15100
 Alpha virt. eigenvalues --    3.15519   3.16080   3.16462   3.16752   3.17180
 Alpha virt. eigenvalues --    3.17555   3.18638   3.18892   3.19800   3.20084
 Alpha virt. eigenvalues --    3.20495   3.21582   3.21696   3.21941   3.22226
 Alpha virt. eigenvalues --    3.23107   3.23840   3.24098   3.24794   3.25087
 Alpha virt. eigenvalues --    3.25932   3.26637   3.27063   3.27781   3.28102
 Alpha virt. eigenvalues --    3.28323   3.28651   3.29816   3.30096   3.30456
 Alpha virt. eigenvalues --    3.31496   3.31794   3.32146   3.32938   3.33151
 Alpha virt. eigenvalues --    3.33665   3.34539   3.35067   3.35701   3.36367
 Alpha virt. eigenvalues --    3.36568   3.36924   3.37384   3.37955   3.38220
 Alpha virt. eigenvalues --    3.38756   3.39451   3.39650   3.40113   3.40197
 Alpha virt. eigenvalues --    3.41259   3.42151   3.43118   3.43180   3.43549
 Alpha virt. eigenvalues --    3.44518   3.45140   3.45541   3.46540   3.46725
 Alpha virt. eigenvalues --    3.47057   3.47399   3.48073   3.48236   3.48871
 Alpha virt. eigenvalues --    3.49561   3.51105   3.51468   3.51724   3.52095
 Alpha virt. eigenvalues --    3.52579   3.53001   3.53824   3.54752   3.55089
 Alpha virt. eigenvalues --    3.55368   3.55964   3.56157   3.58222   3.58836
 Alpha virt. eigenvalues --    3.59169   3.59915   3.60293   3.61358   3.62117
 Alpha virt. eigenvalues --    3.63243   3.64311   3.64828   3.66323   3.67170
 Alpha virt. eigenvalues --    3.67864   3.67912   3.69618   3.70764   3.71928
 Alpha virt. eigenvalues --    3.73452   3.74052   3.75049   3.76332   3.76592
 Alpha virt. eigenvalues --    3.77612   3.78431   3.80204   3.80866   3.81046
 Alpha virt. eigenvalues --    3.81370   3.82677   3.83499   3.84054   3.84618
 Alpha virt. eigenvalues --    3.84970   3.86683   3.89674   3.90600   3.90874
 Alpha virt. eigenvalues --    3.93307   3.93452   3.95544   3.95814   3.96710
 Alpha virt. eigenvalues --    3.97037   3.99195   3.99683   4.00587   4.01008
 Alpha virt. eigenvalues --    4.01741   4.02124   4.02927   4.03763   4.04275
 Alpha virt. eigenvalues --    4.05067   4.05481   4.05901   4.06117   4.07417
 Alpha virt. eigenvalues --    4.08072   4.08977   4.10089   4.10454   4.10701
 Alpha virt. eigenvalues --    4.10959   4.11720   4.11994   4.13361   4.15235
 Alpha virt. eigenvalues --    4.15947   4.16135   4.16326   4.16844   4.17372
 Alpha virt. eigenvalues --    4.17602   4.20307   4.20955   4.21584   4.22673
 Alpha virt. eigenvalues --    4.23202   4.24419   4.25267   4.26727   4.27364
 Alpha virt. eigenvalues --    4.28391   4.29066   4.30949   4.31383   4.32376
 Alpha virt. eigenvalues --    4.34302   4.35805   4.37440   4.38798   4.39114
 Alpha virt. eigenvalues --    4.39741   4.40278   4.41186   4.41992   4.42737
 Alpha virt. eigenvalues --    4.43233   4.44378   4.44870   4.46969   4.47398
 Alpha virt. eigenvalues --    4.48237   4.50005   4.50799   4.51260   4.52561
 Alpha virt. eigenvalues --    4.53782   4.55125   4.55571   4.56546   4.58239
 Alpha virt. eigenvalues --    4.58554   4.59059   4.60973   4.61540   4.64384
 Alpha virt. eigenvalues --    4.67646   4.70415   4.74059   4.76127   4.77039
 Alpha virt. eigenvalues --    4.79624   4.80192   4.80739   4.81070   4.83762
 Alpha virt. eigenvalues --    4.85606   4.86064   4.87206   4.87717   4.88259
 Alpha virt. eigenvalues --    4.88931   4.89486   4.91593   4.95061   4.95131
 Alpha virt. eigenvalues --    4.95872   5.00337   5.01466   5.01601   5.02078
 Alpha virt. eigenvalues --    5.04794   5.06882   5.07620   5.09439   5.11890
 Alpha virt. eigenvalues --    5.13295   5.16269   5.18752   5.22502   5.23266
 Alpha virt. eigenvalues --    5.24999   5.26713   5.28660   5.30030   5.30774
 Alpha virt. eigenvalues --    5.31674   5.32946   5.40467   5.41618   5.42528
 Alpha virt. eigenvalues --    5.45815   5.46920   5.47179   5.50645   5.55546
 Alpha virt. eigenvalues --    5.57684   5.59756   5.59999   5.64160   5.67114
 Alpha virt. eigenvalues --    5.67990   5.70588   5.73945   5.74953   5.79493
 Alpha virt. eigenvalues --    5.81429   5.85444   5.86910   5.90305   5.93911
 Alpha virt. eigenvalues --    5.95793   6.14499   6.15494   6.20060   6.21707
 Alpha virt. eigenvalues --    6.39005   6.43907   6.52832   6.60959   6.75733
 Alpha virt. eigenvalues --    6.77987   6.78129   6.80905   6.85063   6.88455
 Alpha virt. eigenvalues --    6.95008   6.96264   7.09976   7.14044   7.19388
 Alpha virt. eigenvalues --    7.23697   7.37066   7.46169  16.36749  22.34668
 Alpha virt. eigenvalues --   22.47950  22.49854  22.53010  22.53047  22.55294
 Alpha virt. eigenvalues --   22.57220  22.57761  22.76905  22.77816  22.80616
 Alpha virt. eigenvalues --   22.81917  22.83093  22.84251  22.85270  22.90835
 Alpha virt. eigenvalues --   23.03924  23.15767  23.30771  23.36467  23.50691
 Alpha virt. eigenvalues --   32.60031  32.82349  44.11176  44.39665  44.43523
          Condensed to atoms (all electrons):
 Mulliken charges:
               1
     1  O   -0.327838
     2  C    0.313865
     3  N   -0.376036
     4  C    0.312313
     5  N   -0.233612
     6  C   -0.090157
     7  C   -0.255937
     8  C    0.206497
     9  C   -0.232125
    10  C   -0.241609
    11  C   -0.241570
    12  C   -0.271542
    13  C    0.065159
    14  C   -0.208901
    15  C   -0.197784
    16  C   -0.046073
    17  B    0.428728
    18  O   -0.337343
    19  C    0.130798
    20  C   -0.432902
    21  C   -0.499527
    22  C    0.130359
    23  C   -0.499570
    24  C   -0.432711
    25  O   -0.334152
    26  C   -0.167824
    27  C   -0.168060
    28  H    0.243297
    29  H    0.141397
    30  H    0.161694
    31  H    0.119831
    32  H    0.151397
    33  H    0.141222
    34  H    0.140842
    35  H    0.150289
    36  H    0.158551
    37  H    0.168335
    38  H    0.157206
    39  H    0.158041
    40  H    0.155962
    41  H    0.158568
    42  H    0.164017
    43  H    0.167759
    44  H    0.164716
    45  H    0.163875
    46  H    0.165391
    47  H    0.166076
    48  H    0.155341
    49  H    0.159483
    50  H    0.159311
    51  H    0.158742
    52  H    0.176213
 Sum of Mulliken charges =  -0.00000
 Mulliken charges with hydrogens summed into heavy atoms:
               1
     1  O   -0.327838
     2  C    0.313865
     3  N   -0.132739
     4  C    0.312313
     5  N   -0.233612
     6  C    0.051240
     7  C   -0.094243
     8  C    0.206497
     9  C   -0.112294
    10  C    0.051009
    11  C    0.049561
    12  C   -0.112991
    13  C    0.065159
    14  C   -0.040566
    15  C   -0.040578
    16  C   -0.046073
    17  B    0.428728
    18  O   -0.337343
    19  C    0.130798
    20  C    0.039670
    21  C   -0.003034
    22  C    0.130359
    23  C   -0.004229
    24  C    0.041424
    25  O   -0.334152
    26  C   -0.009083
    27  C    0.008152
 Electronic spatial extent (au):  <R**2>=          21119.5867
 Charge=              0.0000 electrons
 Dipole moment (field-independent basis, Debye):
    X=             -1.7877    Y=              5.5432    Z=              0.6853  Tot=              5.8645
 Quadrupole moment (field-independent basis, Debye-Ang):
   XX=           -106.3571   YY=           -165.2576   ZZ=           -160.2722
   XY=             12.7125   XZ=              2.1057   YZ=              0.5275
 Traceless Quadrupole moment (field-independent basis, Debye-Ang):
   XX=             37.6052   YY=            -21.2953   ZZ=            -16.3099
   XY=             12.7125   XZ=              2.1057   YZ=              0.5275
 Octapole moment (field-independent basis, Debye-Ang**2):
  XXX=            -26.1907  YYY=             33.6489  ZZZ=              3.4612  XYY=             -6.7841
  XXY=             83.2735  XXZ=             10.2951  XZZ=            -22.1721  YZZ=              1.6505
  YYZ=              6.9277  XYZ=             17.5271
 Hexadecapole moment (field-independent basis, Debye-Ang**3):
 XXXX=         -22743.9608 YYYY=          -1890.3765 ZZZZ=           -880.7144 XXXY=             -8.8827
 XXXZ=             16.0214 YYYX=            115.7810 YYYZ=             -2.3132 ZZZX=             13.8441
 ZZZY=            -13.2363 XXYY=          -4532.9195 XXZZ=          -4493.9410 YYZZ=           -434.5999
 XXYZ=            120.6328 YYXZ=             12.8298 ZZXY=              2.9283
 N-N= 2.220656595828D+03 E-N=-7.176958295312D+03  KE= 1.169121413688D+03
 Unable to Open any file for archive entry.
 1\1\GINC-COMPUTE-0-35\SP\RM062X\def2TZVP\C21H25B1N2O3\ZTAN64\14-Aug-20
 24\0\\# M062X/def2tzvp int=(grid=ultrafine) nmr=giao guess=read geom=c
 heck\\pyrd4.xyz\\0,1\O,0,1.0848148473,1.7665260435,5.5609512699\C,0,1.
 1452342843,1.3098295456,4.4342914887\N,0,2.3338970252,1.0681189495,3.7
 503680679\C,0,3.640252865,1.2169353063,4.2428167659\N,0,3.8589327246,0
 .9613853776,5.5324181146\C,0,5.1193285363,1.0901489681,5.9631261523\C,
 0,6.1956292844,1.4402681693,5.1570089163\C,0,5.9668711564,1.6915430617
 ,3.7945339839\C,0,7.0484053513,2.0721363384,2.8519187963\C,0,8.2056888
 24,2.9427427798,3.3072713442\C,0,8.4458487851,1.4969433127,2.998994222
 1\C,0,4.653010259,1.5815496655,3.3420414253\C,0,-0.0875117124,0.988370
 8272,3.6365534814\C,0,-0.1060656344,0.0531945804,2.5922886086\C,0,-1.2
 883607155,-0.1997083571,1.9020897105\C,0,-2.4757095611,0.4726390303,2.
 2317398602\B,0,-3.7894294787,0.1907786258,1.456357259\O,0,-3.861738411
 5,-0.6557869511,0.3777629382\C,0,-5.2740334688,-0.8441461431,0.0787082
 518\C,0,-5.4391243362,-0.9777105544,-1.4295362474\C,0,-5.7011611848,-2
 .1367393022,0.7793667026\C,0,-5.9220229042,0.4434506459,0.7069755006\C
 ,0,-5.9207197602,1.6439246724,-0.243374702\C,0,-7.3081670584,0.2408155
 503,1.3049848047\O,0,-4.9937923643,0.7626912202,1.7816110566\C,0,-2.44
 55523872,1.3977339884,3.2897319325\C,0,-1.2714587503,1.6478160261,3.98
 99125003\H,0,2.2533625487,0.9882900972,2.7479720551\H,0,5.2763292996,0
 .887117448,7.0205702247\H,0,7.1891614827,1.5119532454,5.5863011655\H,0
 ,6.7080402953,2.2333098413,1.8329790089\H,0,8.2065111865,3.2570854541,
 4.3461122778\H,0,8.5723766891,3.691111281,2.6122688086\H,0,8.979615914
 ,1.2402708991,2.0896957969\H,0,8.613083216,0.8130736262,3.8250689362\H
 ,0,4.4132453704,1.7880125194,2.3024940827\H,0,0.789759344,-0.508741440
 2,2.3446017988\H,0,-1.3009911183,-0.9335559507,1.1019631887\H,0,-4.999
 0989499,-0.1307385348,-1.95742157\H,0,-6.4983770093,-1.0464688222,-1.6
 965611211\H,0,-4.9421042796,-1.8882782343,-1.7742680847\H,0,-6.7392975
 924,-2.3934786792,0.551378359\H,0,-5.5930773599,-2.0512846452,1.863763
 881\H,0,-5.0593774642,-2.9523673961,0.4373368048\H,0,-6.6477973211,1.5
 188179229,-1.0504474153\H,0,-4.9322285265,1.7958338075,-0.6847645669\H
 ,0,-6.1817885431,2.5417420802,0.3221474137\H,0,-8.0183959288,-0.074231
 4044,0.5339863054\H,0,-7.6650159583,1.1817904483,1.731745263\H,0,-7.29
 67834487,-0.5078268414,2.0980538319\H,0,-3.3585708803,1.9196549386,3.5
 596580727\H,0,-1.240447181,2.3488569622,4.8165532776\\Version=ES64L-G1
 6RevC.01\State=1-A\HF=-1175.3900261\RMSD=3.078e-09\Dipole=-0.0065134,-
 0.2465584,-2.2940433\Quadrupole=28.676333,-11.5457048,-17.1306282,6.27
 93877,4.1457119,-0.6806569\PG=C01 [X(C21H25B1N2O3)]\\@
 The archive entry for this job was punched.


 THE UNDERLYING PHYSICAL LAWS NECESSARY FOR THE 
 MATHEMATICAL THEORY OF A LARGE PART OF PHYSICS AND THE
 WHOLE OF CHEMISTRY ARE THUS COMPLETELY KNOWN, AND THE
 DIFFICULTY IS ONLY THAT THE EXACT APPLICATION OF THESE
 LAWS LEADS TO EQUATIONS MUCH TOO COMPLICATED 
 TO BE SOLUBLE.

                                        -- P. A. M. DIRAC, 1929
 Job cpu time:       0 days  4 hours  9 minutes 50.8 seconds.
 Elapsed time:       0 days  0 hours 16 minutes 52.1 seconds.
 File lengths (MBytes):  RWF=    543 Int=      0 D2E=      0 Chk=     88 Scr=      1
 Normal termination of Gaussian 16 at Wed Aug 14 20:23:32 2024.
 
 
-----Kestrel cluster job statistics-----
Time info:

real	81m29.874s
user	1280m52.080s
sys	0m44.118s
 
Disk space usage:
88M	/scratch/362970.kestrel.chem.wisc.edu
