 Entering Gaussian System, Link 0=/share/apps/gaussian/g16/g16
 Initial command:
 /share/apps/gaussian/g16/l1.exe "/scratch/362983.kestrel.chem.wisc.edu/Gau-15439.inp" -scrdir="/scratch/362983.kestrel.chem.wisc.edu/"
 Entering Link 1 = /share/apps/gaussian/g16/l1.exe PID=     15440.
  
 Copyright (c) 1988-2019, Gaussian, Inc.  All Rights Reserved.
  
 This is part of the Gaussian(R) 16 program.  It is based on
 the Gaussian(R) 09 system (copyright 2009, Gaussian, Inc.),
 the Gaussian(R) 03 system (copyright 2003, Gaussian, Inc.),
 the Gaussian(R) 98 system (copyright 1998, Gaussian, Inc.),
 the Gaussian(R) 94 system (copyright 1995, Gaussian, Inc.),
 the Gaussian 92(TM) system (copyright 1992, Gaussian, Inc.),
 the Gaussian 90(TM) system (copyright 1990, Gaussian, Inc.),
 the Gaussian 88(TM) system (copyright 1988, Gaussian, Inc.),
 the Gaussian 86(TM) system (copyright 1986, Carnegie Mellon
 University), and the Gaussian 82(TM) system (copyright 1983,
 Carnegie Mellon University). Gaussian is a federally registered
 trademark of Gaussian, Inc.
  
 This software contains proprietary and confidential information,
 including trade secrets, belonging to Gaussian, Inc.
  
 This software is provided under written license and may be
 used, copied, transmitted, or stored only in accord with that
 written license.
  
 The following legend is applicable only to US Government
 contracts under FAR:
  
                    RESTRICTED RIGHTS LEGEND
  
 Use, reproduction and disclosure by the US Government is
 subject to restrictions as set forth in subparagraphs (a)
 and (c) of the Commercial Computer Software - Restricted
 Rights clause in FAR 52.227-19.
  
 Gaussian, Inc.
 340 Quinnipiac St., Bldg. 40, Wallingford CT 06492
  
  
 ---------------------------------------------------------------
 Warning -- This program may not be used in any manner that
 competes with the business of Gaussian, Inc. or will provide
 assistance to any competitor of Gaussian, Inc.  The licensee
 of this program is prohibited from giving any competitor of
 Gaussian, Inc. access to this program.  By using this program,
 the user acknowledges that Gaussian, Inc. is engaged in the
 business of creating and licensing software in the field of
 computational chemistry and represents and warrants to the
 licensee that it is not a competitor of Gaussian, Inc. and that
 it will not use this program in any manner prohibited above.
 ---------------------------------------------------------------
  

 Cite this work as:
 Gaussian 16, Revision C.01,
 M. J. Frisch, G. W. Trucks, H. B. Schlegel, G. E. Scuseria, 
 M. A. Robb, J. R. Cheeseman, G. Scalmani, V. Barone, 
 G. A. Petersson, H. Nakatsuji, X. Li, M. Caricato, A. V. Marenich, 
 J. Bloino, B. G. Janesko, R. Gomperts, B. Mennucci, H. P. Hratchian, 
 J. V. Ortiz, A. F. Izmaylov, J. L. Sonnenberg, D. Williams-Young, 
 F. Ding, F. Lipparini, F. Egidi, J. Goings, B. Peng, A. Petrone, 
 T. Henderson, D. Ranasinghe, V. G. Zakrzewski, J. Gao, N. Rega, 
 G. Zheng, W. Liang, M. Hada, M. Ehara, K. Toyota, R. Fukuda, 
 J. Hasegawa, M. Ishida, T. Nakajima, Y. Honda, O. Kitao, H. Nakai, 
 T. Vreven, K. Throssell, J. A. Montgomery, Jr., J. E. Peralta, 
 F. Ogliaro, M. J. Bearpark, J. J. Heyd, E. N. Brothers, K. N. Kudin, 
 V. N. Staroverov, T. A. Keith, R. Kobayashi, J. Normand, 
 K. Raghavachari, A. P. Rendell, J. C. Burant, S. S. Iyengar, 
 J. Tomasi, M. Cossi, J. M. Millam, M. Klene, C. Adamo, R. Cammi, 
 J. W. Ochterski, R. L. Martin, K. Morokuma, O. Farkas, 
 J. B. Foresman, and D. J. Fox, Gaussian, Inc., Wallingford CT, 2019.
 
 ******************************************
 Gaussian 16:  ES64L-G16RevC.01  3-Jul-2019
                14-Aug-2024 
 ******************************************
 %nprocs=16
 Will use up to   16 processors via shared memory.
 %mem=16GB
 %chk=pyrdz1_conf-3.chk
 ----------------------------------------------------------------------
 # B3LYP gen 6D pseudo=read symmetry=loose empiricaldispersion=GD3BJ in
 t=(grid=ultrafine) opt freq=noraman
 ----------------------------------------------------------------------
 1/18=20,19=15,26=4,38=1/1,3;
 2/9=110,12=2,17=4,18=3,40=1/2;
 3/5=7,8=2,11=2,16=1,17=8,25=1,30=1,71=1,74=-5,75=-5,124=41/1,2,3;
 4//1;
 5/5=2,38=5/2;
 6/7=2,8=2,9=2,10=2,28=1/1;
 7//1,2,3,16;
 1/18=20,19=15,26=4/3(2);
 2/9=110/2;
 99//99;
 2/9=110/2;
 3/5=7,6=1,8=2,11=2,16=1,17=8,25=1,30=1,71=1,74=-5,75=-5,82=7,124=41/1,2,3;
 4/5=5,16=3,69=1/1;
 5/5=2,38=5/2;
 7//1,2,3,16;
 1/18=20,19=15,26=4/3(-5);
 2/9=110/2;
 6/7=2,8=2,9=2,10=2,19=2,28=1/1;
 99/9=1/99;
 ----------
 pyrdz1.xyz
 ----------
 Symbolic Z-matrix:
 Charge =  0 Multiplicity = 1
 C                    -4.127     0.9333   -0.4458 
 C                    -3.2961    0.5838    0.8036 
 C                    -3.8027   -0.7092    1.4708 
 C                    -1.8008    0.5158    0.4927 
 N                    -1.3983   -0.4382   -0.3922 
 N                    -0.0982   -0.5583   -0.7093 
 C                     0.8298    0.2712   -0.1532 
 C                     2.2464    0.0716   -0.5724 
 C                     3.0327    1.1831   -0.9101 
 C                     4.3612    1.03     -1.3075 
 C                     4.9261   -0.2409   -1.3707 
 I                     6.9165   -0.4737   -1.9648 
 C                     4.1623   -1.3557   -1.0363 
 C                     2.8341   -1.2058   -0.639 
 F                     2.1356   -2.315    -0.3021 
 C                     0.4567    1.2642    0.7597 
 C                    -0.8913    1.3901    1.0924 
 H                    -5.1801    1.0695   -0.1981 
 H                    -3.7761    1.8568   -0.9078 
 H                    -4.0656    0.1466   -1.1993 
 H                    -3.446     1.3922    1.5221 
 H                    -3.728    -1.563     0.7957 
 H                    -4.8465   -0.6191    1.7727 
 H                    -3.2219   -0.9466    2.363 
 H                     2.6053    2.175    -0.8798 
 H                     4.9534    1.8943   -1.571 
 H                     4.5952   -2.3432   -1.0795 
 H                     1.1938    1.9127    1.2091 
 H                    -1.2154    2.141     1.7973 
 

 GradGradGradGradGradGradGradGradGradGradGradGradGradGradGradGradGradGrad
 Berny optimization.
 Initialization pass.
                           ----------------------------
                           !    Initial Parameters    !
                           ! (Angstroms and Degrees)  !
 --------------------------                            --------------------------
 ! Name  Definition              Value          Derivative Info.                !
 --------------------------------------------------------------------------------
 ! R1    R(1,2)                  1.5406         estimate D2E/DX2                !
 ! R2    R(1,18)                 1.0904         estimate D2E/DX2                !
 ! R3    R(1,19)                 1.0906         estimate D2E/DX2                !
 ! R4    R(1,20)                 1.0911         estimate D2E/DX2                !
 ! R5    R(2,3)                  1.5407         estimate D2E/DX2                !
 ! R6    R(2,4)                  1.5288         estimate D2E/DX2                !
 ! R7    R(2,21)                 1.0919         estimate D2E/DX2                !
 ! R8    R(3,22)                 1.091          estimate D2E/DX2                !
 ! R9    R(3,23)                 1.0903         estimate D2E/DX2                !
 ! R10   R(3,24)                 1.0907         estimate D2E/DX2                !
 ! R11   R(4,5)                  1.362          estimate D2E/DX2                !
 ! R12   R(4,17)                 1.3969         estimate D2E/DX2                !
 ! R13   R(5,6)                  1.3436         estimate D2E/DX2                !
 ! R14   R(6,7)                  1.3633         estimate D2E/DX2                !
 ! R15   R(7,8)                  1.4907         estimate D2E/DX2                !
 ! R16   R(7,16)                 1.3995         estimate D2E/DX2                !
 ! R17   R(8,9)                  1.4028         estimate D2E/DX2                !
 ! R18   R(8,14)                 1.4077         estimate D2E/DX2                !
 ! R19   R(9,10)                 1.3951         estimate D2E/DX2                !
 ! R20   R(9,25)                 1.0805         estimate D2E/DX2                !
 ! R21   R(10,11)                1.3922         estimate D2E/DX2                !
 ! R22   R(10,26)                1.0803         estimate D2E/DX2                !
 ! R23   R(11,12)                2.0902         estimate D2E/DX2                !
 ! R24   R(11,13)                1.3921         estimate D2E/DX2                !
 ! R25   R(13,14)                1.3944         estimate D2E/DX2                !
 ! R26   R(13,27)                1.0791         estimate D2E/DX2                !
 ! R27   R(14,15)                1.3534         estimate D2E/DX2                !
 ! R28   R(16,17)                1.3941         estimate D2E/DX2                !
 ! R29   R(16,28)                1.0797         estimate D2E/DX2                !
 ! R30   R(17,29)                1.0797         estimate D2E/DX2                !
 ! A1    A(2,1,18)             111.4073         estimate D2E/DX2                !
 ! A2    A(2,1,19)             111.2297         estimate D2E/DX2                !
 ! A3    A(2,1,20)             111.4776         estimate D2E/DX2                !
 ! A4    A(18,1,19)            107.5302         estimate D2E/DX2                !
 ! A5    A(18,1,20)            107.5358         estimate D2E/DX2                !
 ! A6    A(19,1,20)            107.4514         estimate D2E/DX2                !
 ! A7    A(1,2,3)              111.3611         estimate D2E/DX2                !
 ! A8    A(1,2,4)              111.8809         estimate D2E/DX2                !
 ! A9    A(1,2,21)             106.9565         estimate D2E/DX2                !
 ! A10   A(3,2,4)              111.8609         estimate D2E/DX2                !
 ! A11   A(3,2,21)             106.9324         estimate D2E/DX2                !
 ! A12   A(4,2,21)             107.5194         estimate D2E/DX2                !
 ! A13   A(2,3,22)             111.487          estimate D2E/DX2                !
 ! A14   A(2,3,23)             111.4291         estimate D2E/DX2                !
 ! A15   A(2,3,24)             111.2111         estimate D2E/DX2                !
 ! A16   A(22,3,23)            107.5509         estimate D2E/DX2                !
 ! A17   A(22,3,24)            107.4194         estimate D2E/DX2                !
 ! A18   A(23,3,24)            107.5334         estimate D2E/DX2                !
 ! A19   A(2,4,5)              116.8922         estimate D2E/DX2                !
 ! A20   A(2,4,17)             121.4457         estimate D2E/DX2                !
 ! A21   A(5,4,17)             121.6619         estimate D2E/DX2                !
 ! A22   A(4,5,6)              120.1248         estimate D2E/DX2                !
 ! A23   A(5,6,7)              120.5321         estimate D2E/DX2                !
 ! A24   A(6,7,8)              116.7876         estimate D2E/DX2                !
 ! A25   A(6,7,16)             121.0867         estimate D2E/DX2                !
 ! A26   A(8,7,16)             122.1245         estimate D2E/DX2                !
 ! A27   A(7,8,9)              119.6211         estimate D2E/DX2                !
 ! A28   A(7,8,14)             122.1091         estimate D2E/DX2                !
 ! A29   A(9,8,14)             118.2695         estimate D2E/DX2                !
 ! A30   A(8,9,10)             121.0243         estimate D2E/DX2                !
 ! A31   A(8,9,25)             119.9287         estimate D2E/DX2                !
 ! A32   A(10,9,25)            119.0396         estimate D2E/DX2                !
 ! A33   A(9,10,11)            119.9666         estimate D2E/DX2                !
 ! A34   A(9,10,26)            120.2434         estimate D2E/DX2                !
 ! A35   A(11,10,26)           119.7895         estimate D2E/DX2                !
 ! A36   A(10,11,12)           120.0634         estimate D2E/DX2                !
 ! A37   A(10,11,13)           119.8337         estimate D2E/DX2                !
 ! A38   A(12,11,13)           120.1029         estimate D2E/DX2                !
 ! A39   A(11,13,14)           120.3285         estimate D2E/DX2                !
 ! A40   A(11,13,27)           120.2056         estimate D2E/DX2                !
 ! A41   A(14,13,27)           119.4656         estimate D2E/DX2                !
 ! A42   A(8,14,13)            120.5769         estimate D2E/DX2                !
 ! A43   A(8,14,15)            121.095          estimate D2E/DX2                !
 ! A44   A(13,14,15)           118.3211         estimate D2E/DX2                !
 ! A45   A(7,16,17)            118.5228         estimate D2E/DX2                !
 ! A46   A(7,16,28)            121.0411         estimate D2E/DX2                !
 ! A47   A(17,16,28)           120.4314         estimate D2E/DX2                !
 ! A48   A(4,17,16)            118.0716         estimate D2E/DX2                !
 ! A49   A(4,17,29)            121.3412         estimate D2E/DX2                !
 ! A50   A(16,17,29)           120.5866         estimate D2E/DX2                !
 ! D1    D(18,1,2,3)            59.192          estimate D2E/DX2                !
 ! D2    D(18,1,2,4)          -174.7974         estimate D2E/DX2                !
 ! D3    D(18,1,2,21)          -57.3074         estimate D2E/DX2                !
 ! D4    D(19,1,2,3)           179.151          estimate D2E/DX2                !
 ! D5    D(19,1,2,4)           -54.8384         estimate D2E/DX2                !
 ! D6    D(19,1,2,21)           62.6516         estimate D2E/DX2                !
 ! D7    D(20,1,2,3)           -60.9425         estimate D2E/DX2                !
 ! D8    D(20,1,2,4)            65.0681         estimate D2E/DX2                !
 ! D9    D(20,1,2,21)         -177.4419         estimate D2E/DX2                !
 ! D10   D(1,2,3,22)            60.9511         estimate D2E/DX2                !
 ! D11   D(1,2,3,23)           -59.224          estimate D2E/DX2                !
 ! D12   D(1,2,3,24)          -179.1893         estimate D2E/DX2                !
 ! D13   D(4,2,3,22)           -65.0706         estimate D2E/DX2                !
 ! D14   D(4,2,3,23)           174.7544         estimate D2E/DX2                !
 ! D15   D(4,2,3,24)            54.7891         estimate D2E/DX2                !
 ! D16   D(21,2,3,22)          177.4653         estimate D2E/DX2                !
 ! D17   D(21,2,3,23)           57.2902         estimate D2E/DX2                !
 ! D18   D(21,2,3,24)          -62.675          estimate D2E/DX2                !
 ! D19   D(1,2,4,5)            -62.8878         estimate D2E/DX2                !
 ! D20   D(1,2,4,17)           117.284          estimate D2E/DX2                !
 ! D21   D(3,2,4,5)             62.849          estimate D2E/DX2                !
 ! D22   D(3,2,4,17)          -116.9792         estimate D2E/DX2                !
 ! D23   D(21,2,4,5)           179.9603         estimate D2E/DX2                !
 ! D24   D(21,2,4,17)            0.1322         estimate D2E/DX2                !
 ! D25   D(2,4,5,6)           -179.7984         estimate D2E/DX2                !
 ! D26   D(17,4,5,6)             0.0293         estimate D2E/DX2                !
 ! D27   D(2,4,17,16)          179.8872         estimate D2E/DX2                !
 ! D28   D(2,4,17,29)            0.1561         estimate D2E/DX2                !
 ! D29   D(5,4,17,16)            0.0673         estimate D2E/DX2                !
 ! D30   D(5,4,17,29)         -179.6638         estimate D2E/DX2                !
 ! D31   D(4,5,6,7)             -0.1073         estimate D2E/DX2                !
 ! D32   D(5,6,7,8)           -179.5155         estimate D2E/DX2                !
 ! D33   D(5,6,7,16)             0.0877         estimate D2E/DX2                !
 ! D34   D(6,7,8,9)            134.3774         estimate D2E/DX2                !
 ! D35   D(6,7,8,14)           -45.8365         estimate D2E/DX2                !
 ! D36   D(16,7,8,9)           -45.2213         estimate D2E/DX2                !
 ! D37   D(16,7,8,14)          134.5648         estimate D2E/DX2                !
 ! D38   D(6,7,16,17)            0.0106         estimate D2E/DX2                !
 ! D39   D(6,7,16,28)          179.2266         estimate D2E/DX2                !
 ! D40   D(8,7,16,17)          179.5924         estimate D2E/DX2                !
 ! D41   D(8,7,16,28)           -1.1916         estimate D2E/DX2                !
 ! D42   D(7,8,9,10)          -179.9387         estimate D2E/DX2                !
 ! D43   D(7,8,9,25)            -0.9399         estimate D2E/DX2                !
 ! D44   D(14,8,9,10)            0.267          estimate D2E/DX2                !
 ! D45   D(14,8,9,25)          179.2658         estimate D2E/DX2                !
 ! D46   D(7,8,14,13)          179.9585         estimate D2E/DX2                !
 ! D47   D(7,8,14,15)           -1.0222         estimate D2E/DX2                !
 ! D48   D(9,8,14,13)           -0.2526         estimate D2E/DX2                !
 ! D49   D(9,8,14,15)          178.7666         estimate D2E/DX2                !
 ! D50   D(8,9,10,11)           -0.1346         estimate D2E/DX2                !
 ! D51   D(8,9,10,26)          179.5998         estimate D2E/DX2                !
 ! D52   D(25,9,10,11)        -179.1422         estimate D2E/DX2                !
 ! D53   D(25,9,10,26)           0.5923         estimate D2E/DX2                !
 ! D54   D(9,10,11,12)        -179.9699         estimate D2E/DX2                !
 ! D55   D(9,10,11,13)          -0.0181         estimate D2E/DX2                !
 ! D56   D(26,10,11,12)          0.2944         estimate D2E/DX2                !
 ! D57   D(26,10,11,13)       -179.7538         estimate D2E/DX2                !
 ! D58   D(10,11,13,14)          0.0313         estimate D2E/DX2                !
 ! D59   D(10,11,13,27)       -179.7637         estimate D2E/DX2                !
 ! D60   D(12,11,13,14)        179.9831         estimate D2E/DX2                !
 ! D61   D(12,11,13,27)          0.1881         estimate D2E/DX2                !
 ! D62   D(11,13,14,8)           0.1072         estimate D2E/DX2                !
 ! D63   D(11,13,14,15)       -178.9388         estimate D2E/DX2                !
 ! D64   D(27,13,14,8)         179.9037         estimate D2E/DX2                !
 ! D65   D(27,13,14,15)          0.8577         estimate D2E/DX2                !
 ! D66   D(7,16,17,4)           -0.0849         estimate D2E/DX2                !
 ! D67   D(7,16,17,29)         179.6484         estimate D2E/DX2                !
 ! D68   D(28,16,17,4)        -179.3058         estimate D2E/DX2                !
 ! D69   D(28,16,17,29)          0.4274         estimate D2E/DX2                !
 --------------------------------------------------------------------------------
 Trust Radius=3.00D-01 FncErr=1.00D-07 GrdErr=1.00D-06 EigMax=2.50D+02 EigMin=1.00D-04
 Number of steps in this run=    159 maximum allowed number of steps=    174.
 GradGradGradGradGradGradGradGradGradGradGradGradGradGradGradGradGradGrad

                          Input orientation:                          
 ---------------------------------------------------------------------
 Center     Atomic      Atomic             Coordinates (Angstroms)
 Number     Number       Type             X           Y           Z
 ---------------------------------------------------------------------
      1          6           0       -4.127000    0.933300   -0.445800
      2          6           0       -3.296100    0.583800    0.803600
      3          6           0       -3.802700   -0.709200    1.470800
      4          6           0       -1.800800    0.515800    0.492700
      5          7           0       -1.398300   -0.438200   -0.392200
      6          7           0       -0.098200   -0.558300   -0.709300
      7          6           0        0.829800    0.271200   -0.153200
      8          6           0        2.246400    0.071600   -0.572400
      9          6           0        3.032700    1.183100   -0.910100
     10          6           0        4.361200    1.030000   -1.307500
     11          6           0        4.926100   -0.240900   -1.370700
     12         53           0        6.916500   -0.473700   -1.964800
     13          6           0        4.162300   -1.355700   -1.036300
     14          6           0        2.834100   -1.205800   -0.639000
     15          9           0        2.135600   -2.315000   -0.302100
     16          6           0        0.456700    1.264200    0.759700
     17          6           0       -0.891300    1.390100    1.092400
     18          1           0       -5.180100    1.069500   -0.198100
     19          1           0       -3.776100    1.856800   -0.907800
     20          1           0       -4.065600    0.146600   -1.199300
     21          1           0       -3.446000    1.392200    1.522100
     22          1           0       -3.728000   -1.563000    0.795700
     23          1           0       -4.846500   -0.619100    1.772700
     24          1           0       -3.221900   -0.946600    2.363000
     25          1           0        2.605300    2.175000   -0.879800
     26          1           0        4.953400    1.894300   -1.571000
     27          1           0        4.595200   -2.343200   -1.079500
     28          1           0        1.193800    1.912700    1.209100
     29          1           0       -1.215400    2.141000    1.797300
 ---------------------------------------------------------------------
                    Distance matrix (angstroms):
                    1          2          3          4          5
     1  C    0.000000
     2  C    1.540632   0.000000
     3  C    2.544864   1.540665   0.000000
     4  C    2.542891   1.528792   2.542618   0.000000
     5  N    3.054454   2.464968   3.053743   1.362046   0.000000
     6  N    4.304130   3.717502   4.301038   2.344641   1.343591
     7  C    5.009377   4.246909   5.005858   2.719756   2.350489
     8  C    6.432634   5.733675   6.432412   4.208513   3.684590
     9  C    7.179086   6.584044   7.481456   5.076993   4.746640
    10  C    8.532375   7.955506   8.797331   6.440137   6.013753
    11  C    9.175664   8.544723   9.191593   7.021114   6.402689
    12  I   11.235920  10.633887  11.258777   9.110968   8.462283
    13  C    8.619786   7.923044   8.375246   6.434199   5.672472
    14  C    7.284915   6.546993   6.981761   5.072174   4.308518
    15  F    7.056363   6.255316   6.401966   4.913286   4.002367
    16  C    4.751108   3.814234   4.747890   2.393261   2.768766
    17  C    3.611714   2.552761   3.609224   1.396865   2.409101
    18  H    1.090379   2.188324   2.801113   3.493345   4.075886
    19  H    1.090609   2.186280   3.498971   2.767940   3.344668
    20  H    1.091068   2.189722   2.816193   2.851051   2.847436
    21  H    2.132365   1.091890   2.132076   2.129419   3.347833
    22  H    2.816387   2.189829   1.091015   2.850845   2.846715
    23  H    2.801672   2.188576   1.090312   3.493234   4.075488
    24  H    3.498941   2.186174   1.090737   2.766977   3.342920
    25  H    6.859595   6.339738   7.409885   4.904123   4.805765
    26  H    9.200177   8.683915   9.628086   7.195717   6.868349
    27  H    9.338833   8.624732   8.927413   7.180147   6.326409
    28  H    5.657635   4.699958   5.648704   3.381152   3.848360
    29  H    3.868779   2.782377   3.863206   2.164705   3.388161
                    6          7          8          9         10
     6  N    0.000000
     7  C    1.363269   0.000000
     8  C    2.431597   1.490746   0.000000
     9  C    3.588221   2.501445   1.402762   0.000000
    10  C    4.771456   3.791961   2.435422   1.395091   0.000000
    11  C    5.077577   4.303978   2.813491   2.413481   1.392226
    12  I    7.126672   6.394114   4.903668   4.352158   3.036892
    13  C    4.346796   3.812116   2.433734   2.781623   2.409289
    14  C    3.003761   2.536681   1.407685   2.412422   2.788858
    15  F    2.870831   2.900985   2.404412   3.662125   4.141636
    16  C    2.405698   1.399514   2.529785   3.070926   4.424171
    17  C    2.769728   2.401175   3.788821   4.410287   5.786013
    18  H    5.360668   6.062854   7.502587   8.244388   9.605662
    19  H    4.404436   4.929286   6.290464   6.842049   8.188957
    20  H    4.059218   5.007474   6.343498   7.179403   8.473669
    21  H    4.471170   4.727128   6.207603   6.923357   8.312051
    22  H    4.055847   5.003823   6.343270   7.493856   8.751129
    23  H    5.358206   6.059877   7.502386   8.516286   9.848294
    24  H    4.398557   4.922456   6.289325   7.373522   8.653492
    25  H    3.848235   2.702740   2.155828   1.080488   2.139424
    26  H    5.681235   4.652815   3.412812   2.152134   1.080346
    27  H    5.034970   4.676682   3.406651   3.860686   3.388985
    28  H    3.384577   2.163996   2.769722   2.899117   4.140635
    29  H    3.849338   3.388723   4.677815   5.127762   6.478624
                   11         12         13         14         15
    11  C    0.000000
    12  I    2.090178   0.000000
    13  C    1.392118   3.037376   0.000000
    14  C    2.417205   4.354274   1.394429   0.000000
    15  F    3.637401   5.386275   2.359411   1.353414   0.000000
    16  C    5.174888   7.223033   4.880672   3.702606   4.093507
    17  C    6.524505   8.589643   6.132671   4.859532   4.983425
    18  H   10.258042  12.321949   9.688375   8.342589   8.061335
    19  H    8.963420  10.994552   8.564745   7.290166   7.260784
    20  H    9.001678  11.026209   8.365513   7.053282   6.731963
    21  H    9.007073  11.091504   8.484256   7.131593   6.944444
    22  H    9.018574  11.050444   8.102841   6.726597   6.012693
    23  H   10.272668  12.343347   9.465281   8.071687   7.478676
    24  H    8.990463  11.033614   8.139350   6.764194   6.138248
    25  H    3.385804   5.174870   3.861940   3.397079   4.551314
    26  H    2.144748   3.101010   3.387365   3.869196   5.221907
    27  H    2.148012   3.109215   1.079085   2.142240   2.579686
    28  H    5.022293   6.965475   4.953408   3.978831   4.587391
    29  H    7.309425   9.333694   7.012550   5.790948   5.957568
                   16         17         18         19         20
    16  C    0.000000
    17  C    1.394146   0.000000
    18  H    5.720909   4.490209   0.000000
    19  H    4.587846   3.541282   1.759185   0.000000
    20  H    5.053505   4.107841   1.759618   1.758854   0.000000
    21  H    3.978531   2.590587   2.463803   2.495843   3.056377
    22  H    5.050353   4.105569   3.166432   3.820898   2.648911
    23  H    5.718122   4.488129   2.616622   3.802751   3.166842
    24  H    4.581518   3.536423   3.802425   4.343308   3.820589
    25  H    2.852017   4.090459   7.892990   6.389390   6.979785
    26  H    5.103871   6.442704  10.259287   8.754736   9.194290
    27  H    5.789920   6.982576  10.391337   9.367398   9.012376
    28  H    1.079736   2.152759   6.581626   5.402249   6.048205
    29  H    2.154370   1.079711   4.566024   3.735709   4.591392
                   21         22         23         24         25
    21  H    0.000000
    22  H    3.056205   0.000000
    23  H    2.463641   1.759693   0.000000
    24  H    2.495460   1.758555   1.759271   0.000000
    25  H    6.557449   7.542588   8.388806   7.363179   0.000000
    26  H    8.964892   9.639549  10.655306   9.506976   2.463762
    27  H    9.240262   8.567423  10.012655   8.654961   4.941024
    28  H    4.679384   6.039495   6.573650   5.385674   2.534687
    29  H    2.368969   4.586499   4.561101   3.725498   4.665380
                   26         27         28         29
    26  H    0.000000
    27  H    4.280921   0.000000
    28  H    4.675884   5.909306   0.000000
    29  H    7.032809   7.883343   2.490451   0.000000
 Stoichiometry    C13H12FIN2
 Framework group  C1[X(C13H12FIN2)]
 Deg. of freedom    81
 Full point group                 C1      NOp   1
 Largest Abelian subgroup         C1      NOp   1
 Largest concise Abelian subgroup C1      NOp   1
                         Standard orientation:                         
 ---------------------------------------------------------------------
 Center     Atomic      Atomic             Coordinates (Angstroms)
 Number     Number       Type             X           Y           Z
 ---------------------------------------------------------------------
      1          6           0       -6.542587   -0.529218    1.375292
      2          6           0       -6.022148   -0.246161   -0.046878
      3          6           0       -6.573511    1.085370   -0.591553
      4          6           0       -4.495942   -0.301350   -0.116557
      5          7           0       -3.811899    0.614632    0.623869
      6          7           0       -2.468467    0.627320    0.607501
      7          6           0       -1.776477   -0.274101   -0.145553
      8          6           0       -0.288916   -0.191928   -0.093252
      9          6           0        0.465306   -1.364735    0.059761
     10          6           0        1.858693   -1.321653    0.113567
     11          6           0        2.521145   -0.101350    0.012023
     12         53           0        4.608712   -0.033391    0.091318
     13          6           0        1.789727    1.072899   -0.143415
     14          6           0        0.396910    1.032982   -0.197256
     15          9           0       -0.272527    2.196314   -0.371157
     16          6           0       -2.442185   -1.231298   -0.919663
     17          6           0       -3.836193   -1.245815   -0.906462
     18          1           0       -7.631621   -0.578302    1.398128
     19          1           0       -6.162941   -1.479313    1.752937
     20          1           0       -6.233791    0.248204    2.075784
     21          1           0       -6.409446   -1.038048   -0.691189
     22          1           0       -6.265955    1.928748    0.028476
     23          1           0       -7.663323    1.081588   -0.624364
     24          1           0       -6.214951    1.276390   -1.603805
     25          1           0       -0.033979   -2.318290    0.154110
     26          1           0        2.426838   -2.232055    0.238179
     27          1           0        2.297169    2.021591   -0.226547
     28          1           0       -1.893626   -1.936942   -1.525450
     29          1           0       -4.383726   -1.966177   -1.495583
 ---------------------------------------------------------------------
 Rotational constants (GHZ):           1.4747220           0.0916787           0.0887446
 General basis read from cards:  (6D, 7F)
 ======================================================================================================
                                       Pseudopotential Parameters
 ======================================================================================================
  Center     Atomic      Valence      Angular      Power
  Number     Number     Electrons     Momentum     of R      Exponent        Coefficient   SO-Coeffient
 ======================================================================================================
    1          6
                                   No pseudopotential on this center.
    2          6
                                   No pseudopotential on this center.
    3          6
                                   No pseudopotential on this center.
    4          6
                                   No pseudopotential on this center.
    5          7
                                   No pseudopotential on this center.
    6          7
                                   No pseudopotential on this center.
    7          6
                                   No pseudopotential on this center.
    8          6
                                   No pseudopotential on this center.
    9          6
                                   No pseudopotential on this center.
   10          6
                                   No pseudopotential on this center.
   11          6
                                   No pseudopotential on this center.
   12         53            7
                                      F and up 
                                                     0        1.0715702       -0.07476210    0.00000000
                                                     1       44.1936028      -30.08112240    0.00000000
                                                     2       12.9367609      -75.37227210    0.00000000
                                                     2        3.1956412      -22.05637580    0.00000000
                                                     2        0.8589806       -1.69795850    0.00000000
                                      S - F
                                                     0      127.9202670        2.93800360    0.00000000
                                                     1       78.6211465       41.24712670    0.00000000
                                                     2       36.5146237      287.86800950    0.00000000
                                                     2        9.9065681      114.37585060    0.00000000
                                                     2        1.9420086       37.65477140    0.00000000
                                      P - F
                                                     0       13.0035304        2.22226300    0.00000000
                                                     1       76.0331404       39.40908310    0.00000000
                                                     2       24.1961684      177.40750020    0.00000000
                                                     2        6.4053433       77.98894620    0.00000000
                                                     2        1.5851786       25.75476410    0.00000000
                                      D - F
                                                     0       40.4278108        7.05243600    0.00000000
                                                     1       28.9084375       33.30416350    0.00000000
                                                     2       15.6268936      186.94538750    0.00000000
                                                     2        4.1442856       71.96883610    0.00000000
                                                     2        0.9377235        9.36306570    0.00000000
   13          6
                                   No pseudopotential on this center.
   14          6
                                   No pseudopotential on this center.
   15          9
                                   No pseudopotential on this center.
   16          6
                                   No pseudopotential on this center.
   17          6
                                   No pseudopotential on this center.
   18          1
                                   No pseudopotential on this center.
   19          1
                                   No pseudopotential on this center.
   20          1
                                   No pseudopotential on this center.
   21          1
                                   No pseudopotential on this center.
   22          1
                                   No pseudopotential on this center.
   23          1
                                   No pseudopotential on this center.
   24          1
                                   No pseudopotential on this center.
   25          1
                                   No pseudopotential on this center.
   26          1
                                   No pseudopotential on this center.
   27          1
                                   No pseudopotential on this center.
   28          1
                                   No pseudopotential on this center.
   29          1
                                   No pseudopotential on this center.
 ======================================================================================================
 There are   308 symmetry adapted cartesian basis functions of A   symmetry.
 There are   308 symmetry adapted basis functions of A   symmetry.
   308 basis functions,   544 primitive gaussians,   308 cartesian basis functions
    60 alpha electrons       60 beta electrons
       nuclear repulsion energy      1075.8393689907 Hartrees.
 NAtoms=   29 NActive=   29 NUniq=   29 SFac= 1.00D+00 NAtFMM=   60 NAOKFM=F Big=F
 Integral buffers will be    131072 words long.
 Raffenetti 2 integral format.
 Two-electron integral symmetry is turned on.
 Nuclear repulsion after empirical dispersion term =     1075.7757246409 Hartrees.
 One-electron integrals computed using PRISM.
   1 Symmetry operations used in ECPInt.
 ECPInt:  NShTT=    5460 NPrTT=   29729 LenC2=    4596 LenP2D=   15792.
 LDataN:  DoStor=T MaxTD1= 5 Len=  102
 NBasis=   308 RedAO= T EigKep=  4.35D-04  NBF=   308
 NBsUse=   308 1.00D-06 EigRej= -1.00D+00 NBFU=   308
 Defaulting to unpruned grid for atomic number  53.
 ExpMin= 1.05D-01 ExpMax= 7.00D+03 ExpMxC= 1.05D+03 IAcc=3 IRadAn=         5 AccDes= 0.00D+00
 Harris functional with IExCor=  402 and IRadAn=       5 diagonalized for initial guess.
 HarFok:  IExCor=  402 AccDes= 0.00D+00 IRadAn=         5 IDoV= 1 UseB2=F ITyADJ=14
 ICtDFT=  3500011 ScaDFX=  1.000000  1.000000  1.000000  1.000000
 Defaulting to unpruned grid for atomic number  53.
 FoFCou: FMM=F IPFlag=           0 FMFlag=      100000 FMFlg1=           0
         NFxFlg=           0 DoJE=T BraDBF=F KetDBF=T FulRan=T
         wScrn=  0.000000 ICntrl=       500 IOpCl=  0 I1Cent=   200000004 NGrid=           0
         NMat0=    1 NMatS0=      1 NMatT0=    0 NMatD0=    1 NMtDS0=    0 NMtDT0=    0
 Petite list used in FoFCou.
 Requested convergence on RMS density matrix=1.00D-08 within 128 cycles.
 Requested convergence on MAX density matrix=1.00D-06.
 Requested convergence on             energy=1.00D-06.
 No special actions if energy rises.
 Integral accuracy reduced to 1.0D-05 until final iterations.
 Defaulting to unpruned grid for atomic number  53.
 Defaulting to unpruned grid for atomic number  53.
 Defaulting to unpruned grid for atomic number  53.
 Defaulting to unpruned grid for atomic number  53.
 Defaulting to unpruned grid for atomic number  53.
 Defaulting to unpruned grid for atomic number  53.
 Defaulting to unpruned grid for atomic number  53.
 Defaulting to unpruned grid for atomic number  53.
 Defaulting to unpruned grid for atomic number  53.
 Defaulting to unpruned grid for atomic number  53.
 Defaulting to unpruned grid for atomic number  53.
 Defaulting to unpruned grid for atomic number  53.
 Defaulting to unpruned grid for atomic number  53.
 Defaulting to unpruned grid for atomic number  53.
 Defaulting to unpruned grid for atomic number  53.
 Defaulting to unpruned grid for atomic number  53.
 Initial convergence to 1.0D-05 achieved.  Increase integral accuracy.
 SCF Done:  E(RB3LYP) =  -723.379318823     A.U. after   15 cycles
            NFock= 15  Conv=0.60D-08     -V/T= 2.0211

 **********************************************************************

            Population analysis using the SCF Density.

 **********************************************************************

 Orbital symmetries:
       Occupied  (A) (A) (A) (A) (A) (A) (A) (A) (A) (A) (A) (A)
                 (A) (A) (A) (A) (A) (A) (A) (A) (A) (A) (A) (A)
                 (A) (A) (A) (A) (A) (A) (A) (A) (A) (A) (A) (A)
                 (A) (A) (A) (A) (A) (A) (A) (A) (A) (A) (A) (A)
                 (A) (A) (A) (A) (A) (A) (A) (A) (A) (A) (A) (A)
       Virtual   (A) (A) (A) (A) (A) (A) (A) (A) (A) (A) (A) (A)
                 (A) (A) (A) (A) (A) (A) (A) (A) (A) (A) (A) (A)
                 (A) (A) (A) (A) (A) (A) (A) (A) (A) (A) (A) (A)
                 (A) (A) (A) (A) (A) (A) (A) (A) (A) (A) (A) (A)
                 (A) (A) (A) (A) (A) (A) (A) (A) (A) (A) (A) (A)
                 (A) (A) (A) (A) (A) (A) (A) (A) (A) (A) (A) (A)
                 (A) (A) (A) (A) (A) (A) (A) (A) (A) (A) (A) (A)
                 (A) (A) (A) (A) (A) (A) (A) (A) (A) (A) (A) (A)
                 (A) (A) (A) (A) (A) (A) (A) (A) (A) (A) (A) (A)
                 (A) (A) (A) (A) (A) (A) (A) (A) (A) (A) (A) (A)
                 (A) (A) (A) (A) (A) (A) (A) (A) (A) (A) (A) (A)
                 (A) (A) (A) (A) (A) (A) (A) (A) (A) (A) (A) (A)
                 (A) (A) (A) (A) (A) (A) (A) (A) (A) (A) (A) (A)
                 (A) (A) (A) (A) (A) (A) (A) (A) (A) (A) (A) (A)
                 (A) (A) (A) (A) (A) (A) (A) (A) (A) (A) (A) (A)
                 (A) (A) (A) (A) (A) (A) (A) (A) (A) (A) (A) (A)
                 (A) (A) (A) (A) (A) (A) (A) (A) (A) (A) (A) (A)
                 (A) (A) (A) (A) (A) (A) (A) (A) (A) (A) (A) (A)
                 (A) (A) (A) (A) (A) (A) (A) (A) (A) (A) (A) (A)
                 (A) (A) (A) (A) (A) (A) (A) (A) (A) (A) (A) (A)
                 (A) (A) (A) (A) (A) (A) (A) (A)
 The electronic state is 1-A.
 Alpha  occ. eigenvalues --  -24.71327 -14.36852 -14.36747 -10.29168 -10.25378
 Alpha  occ. eigenvalues --  -10.24699 -10.23876 -10.22453 -10.22349 -10.22146
 Alpha  occ. eigenvalues --  -10.21783 -10.21417 -10.21244 -10.20439 -10.17654
 Alpha  occ. eigenvalues --  -10.17614  -1.22156  -1.00541  -0.88666  -0.84630
 Alpha  occ. eigenvalues --   -0.83025  -0.78909  -0.76909  -0.76453  -0.69899
 Alpha  occ. eigenvalues --   -0.68605  -0.67111  -0.65057  -0.63276  -0.60742
 Alpha  occ. eigenvalues --   -0.58514  -0.54480  -0.52490  -0.51748  -0.50147
 Alpha  occ. eigenvalues --   -0.48143  -0.46480  -0.45845  -0.45541  -0.44729
 Alpha  occ. eigenvalues --   -0.43359  -0.42962  -0.41508  -0.40452  -0.40185
 Alpha  occ. eigenvalues --   -0.38686  -0.38369  -0.38052  -0.36162  -0.35122
 Alpha  occ. eigenvalues --   -0.34611  -0.33863  -0.31412  -0.30584  -0.30408
 Alpha  occ. eigenvalues --   -0.27824  -0.27534  -0.26386  -0.24078  -0.23156
 Alpha virt. eigenvalues --   -0.05484  -0.05002  -0.03386  -0.01910  -0.00150
 Alpha virt. eigenvalues --    0.08391   0.10129   0.10494   0.11083   0.13211
 Alpha virt. eigenvalues --    0.13978   0.14604   0.14952   0.15518   0.15734
 Alpha virt. eigenvalues --    0.16721   0.17598   0.18889   0.19211   0.19896
 Alpha virt. eigenvalues --    0.20412   0.22467   0.23269   0.25231   0.26538
 Alpha virt. eigenvalues --    0.28440   0.29471   0.29792   0.30717   0.31724
 Alpha virt. eigenvalues --    0.33516   0.35827   0.36986   0.38286   0.39952
 Alpha virt. eigenvalues --    0.44583   0.47006   0.48574   0.48824   0.50253
 Alpha virt. eigenvalues --    0.50578   0.51732   0.52114   0.52820   0.53242
 Alpha virt. eigenvalues --    0.53831   0.55328   0.55642   0.57437   0.57931
 Alpha virt. eigenvalues --    0.58564   0.58832   0.59057   0.60093   0.60971
 Alpha virt. eigenvalues --    0.61256   0.63186   0.63438   0.63862   0.65327
 Alpha virt. eigenvalues --    0.66636   0.67916   0.68142   0.69433   0.72444
 Alpha virt. eigenvalues --    0.73522   0.75150   0.76007   0.77648   0.78235
 Alpha virt. eigenvalues --    0.79179   0.80868   0.81695   0.82160   0.82673
 Alpha virt. eigenvalues --    0.84238   0.85629   0.86037   0.86481   0.86827
 Alpha virt. eigenvalues --    0.87858   0.89821   0.90264   0.90365   0.91731
 Alpha virt. eigenvalues --    0.92679   0.94263   0.94411   0.96290   0.97088
 Alpha virt. eigenvalues --    0.98911   1.01396   1.02228   1.03567   1.05574
 Alpha virt. eigenvalues --    1.08242   1.09756   1.11996   1.16446   1.17996
 Alpha virt. eigenvalues --    1.19348   1.20961   1.23221   1.24422   1.25669
 Alpha virt. eigenvalues --    1.27597   1.28491   1.33379   1.34714   1.35340
 Alpha virt. eigenvalues --    1.36297   1.37856   1.39001   1.39153   1.40237
 Alpha virt. eigenvalues --    1.42572   1.43177   1.44832   1.45911   1.48779
 Alpha virt. eigenvalues --    1.51328   1.53447   1.55639   1.57266   1.63063
 Alpha virt. eigenvalues --    1.66687   1.68927   1.69857   1.71725   1.74168
 Alpha virt. eigenvalues --    1.75783   1.76411   1.77755   1.79906   1.81349
 Alpha virt. eigenvalues --    1.81809   1.83487   1.83700   1.84089   1.85554
 Alpha virt. eigenvalues --    1.86468   1.87688   1.90245   1.91301   1.92006
 Alpha virt. eigenvalues --    1.92662   1.95563   1.97363   2.00571   2.01115
 Alpha virt. eigenvalues --    2.04592   2.05270   2.05320   2.05954   2.06130
 Alpha virt. eigenvalues --    2.08315   2.09974   2.11211   2.11477   2.13256
 Alpha virt. eigenvalues --    2.13321   2.14168   2.15760   2.16168   2.20421
 Alpha virt. eigenvalues --    2.22473   2.25581   2.26498   2.29026   2.29337
 Alpha virt. eigenvalues --    2.30065   2.30786   2.31214   2.33190   2.34507
 Alpha virt. eigenvalues --    2.35279   2.38310   2.38888   2.41124   2.42141
 Alpha virt. eigenvalues --    2.42792   2.44574   2.45170   2.46542   2.49188
 Alpha virt. eigenvalues --    2.50772   2.53325   2.55692   2.56248   2.57743
 Alpha virt. eigenvalues --    2.58145   2.60049   2.61804   2.62725   2.65233
 Alpha virt. eigenvalues --    2.65572   2.67487   2.68332   2.70856   2.72088
 Alpha virt. eigenvalues --    2.73399   2.76167   2.77721   2.78512   2.81790
 Alpha virt. eigenvalues --    2.86258   2.89329   2.90066   2.90638   2.91243
 Alpha virt. eigenvalues --    2.96263   2.97979   3.03629   3.04140   3.09142
 Alpha virt. eigenvalues --    3.15608   3.18739   3.19912   3.22123   3.23324
 Alpha virt. eigenvalues --    3.27436   3.30083   3.32454   3.35549   3.43308
 Alpha virt. eigenvalues --    3.43973   3.47380   3.49248   3.54028   3.68455
 Alpha virt. eigenvalues --    3.74604   3.78850   4.07152   4.09115   4.12692
 Alpha virt. eigenvalues --    4.13655   4.22310   4.26425   4.28815   4.37665
 Alpha virt. eigenvalues --    4.40323   4.44922   4.50391   4.65016   4.70310
 Alpha virt. eigenvalues --    4.76086   5.56532  10.06606
          Condensed to atoms (all electrons):
               1          2          3          4          5          6
     1  C    4.938940   0.365756  -0.048145  -0.037475  -0.005225   0.000051
     2  C    0.365756   4.933305   0.366163   0.368947  -0.075529   0.005039
     3  C   -0.048145   0.366163   4.939268  -0.038111  -0.005355   0.000074
     4  C   -0.037475   0.368947  -0.038111   4.782061   0.318573  -0.041124
     5  N   -0.005225  -0.075529  -0.005355   0.318573   6.925884   0.242423
     6  N    0.000051   0.005039   0.000074  -0.041124   0.242423   6.905467
     7  C    0.000032  -0.000009   0.000022  -0.027392  -0.036391   0.337197
     8  C    0.000000   0.000007  -0.000000   0.000398   0.005752  -0.076224
     9  C   -0.000000   0.000000   0.000000  -0.000012  -0.000056   0.001125
    10  C    0.000000   0.000000  -0.000000  -0.000000   0.000001  -0.000061
    11  C    0.000000   0.000000  -0.000000  -0.000000   0.000000  -0.000010
    12  I    0.000000   0.000000   0.000000   0.000000   0.000000  -0.000000
    13  C   -0.000000   0.000000   0.000000   0.000000   0.000002   0.000199
    14  C   -0.000000  -0.000000  -0.000000   0.000028   0.000075   0.002875
    15  F    0.000000   0.000000   0.000000  -0.000008   0.000010  -0.001541
    16  C   -0.000239   0.006170  -0.000236  -0.034867  -0.044845  -0.033530
    17  C    0.001272  -0.063128   0.001460   0.497701  -0.030585  -0.042344
    18  H    0.376371  -0.028063  -0.004043   0.004635   0.000193   0.000002
    19  H    0.377592  -0.032156   0.005031  -0.001882   0.000099  -0.000041
    20  H    0.388666  -0.031200  -0.004908  -0.008452   0.006768  -0.000157
    21  H   -0.044340   0.388490  -0.044563  -0.048390   0.004049  -0.000168
    22  H   -0.004907  -0.031188   0.388651  -0.008435   0.006768  -0.000158
    23  H   -0.004091  -0.028011   0.376031   0.004677   0.000196   0.000002
    24  H    0.005013  -0.032087   0.378012  -0.001929   0.000101  -0.000045
    25  H    0.000000  -0.000000   0.000000  -0.000005  -0.000013   0.000100
    26  H   -0.000000  -0.000000   0.000000  -0.000000  -0.000000   0.000001
    27  H    0.000000  -0.000000  -0.000000   0.000000  -0.000000   0.000004
    28  H    0.000003  -0.000124   0.000003   0.003922  -0.000180   0.004681
    29  H    0.000068  -0.005951   0.000095  -0.034744   0.004656  -0.000127
               7          8          9         10         11         12
     1  C    0.000032   0.000000  -0.000000   0.000000   0.000000   0.000000
     2  C   -0.000009   0.000007   0.000000   0.000000   0.000000   0.000000
     3  C    0.000022  -0.000000   0.000000  -0.000000  -0.000000   0.000000
     4  C   -0.027392   0.000398  -0.000012  -0.000000  -0.000000   0.000000
     5  N   -0.036391   0.005752  -0.000056   0.000001   0.000000   0.000000
     6  N    0.337197  -0.076224   0.001125  -0.000061  -0.000010  -0.000000
     7  C    4.889121   0.303341  -0.051947   0.006898  -0.000166   0.000022
     8  C    0.303341   5.139559   0.487353  -0.009297  -0.046000   0.001028
     9  C   -0.051947   0.487353   4.893723   0.510779  -0.024709   0.001340
    10  C    0.006898  -0.009297   0.510779   4.828518   0.485955  -0.067904
    11  C   -0.000166  -0.046000  -0.024709   0.485955   5.356886   0.269554
    12  I    0.000022   0.001028   0.001340  -0.067904   0.269554   6.679021
    13  C    0.008150  -0.054545  -0.050039  -0.020167   0.416574  -0.069061
    14  C   -0.045186   0.394988  -0.009638  -0.043872  -0.001369  -0.000226
    15  F    0.001898  -0.057261   0.002778  -0.000127   0.003581  -0.000052
    16  C    0.473888  -0.065087  -0.008917   0.000264  -0.000025  -0.000000
    17  C   -0.032806   0.005421   0.000231   0.000001  -0.000000   0.000000
    18  H   -0.000000  -0.000000   0.000000  -0.000000  -0.000000  -0.000000
    19  H   -0.000007  -0.000000   0.000000  -0.000000  -0.000000   0.000000
    20  H    0.000005  -0.000000   0.000000  -0.000000   0.000000  -0.000000
    21  H   -0.000007  -0.000000   0.000000  -0.000000  -0.000000  -0.000000
    22  H    0.000005  -0.000000   0.000000  -0.000000   0.000000  -0.000000
    23  H   -0.000000  -0.000000   0.000000   0.000000   0.000000   0.000000
    24  H   -0.000005  -0.000000  -0.000000   0.000000  -0.000000   0.000000
    25  H   -0.008445  -0.044484   0.373043  -0.039073   0.006435  -0.000287
    26  H   -0.000177   0.004075  -0.028721   0.371106  -0.042098  -0.001670
    27  H   -0.000147   0.006330   0.000484   0.004283  -0.042404  -0.003654
    28  H   -0.036998  -0.004306   0.003244  -0.000085   0.000005  -0.000000
    29  H    0.003685  -0.000139  -0.000005   0.000000  -0.000000  -0.000000
              13         14         15         16         17         18
     1  C   -0.000000  -0.000000   0.000000  -0.000239   0.001272   0.376371
     2  C    0.000000  -0.000000   0.000000   0.006170  -0.063128  -0.028063
     3  C    0.000000  -0.000000   0.000000  -0.000236   0.001460  -0.004043
     4  C    0.000000   0.000028  -0.000008  -0.034867   0.497701   0.004635
     5  N    0.000002   0.000075   0.000010  -0.044845  -0.030585   0.000193
     6  N    0.000199   0.002875  -0.001541  -0.033530  -0.042344   0.000002
     7  C    0.008150  -0.045186   0.001898   0.473888  -0.032806  -0.000000
     8  C   -0.054545   0.394988  -0.057261  -0.065087   0.005421  -0.000000
     9  C   -0.050039  -0.009638   0.002778  -0.008917   0.000231   0.000000
    10  C   -0.020167  -0.043872  -0.000127   0.000264   0.000001  -0.000000
    11  C    0.416574  -0.001369   0.003581  -0.000025  -0.000000  -0.000000
    12  I   -0.069061  -0.000226  -0.000052  -0.000000   0.000000  -0.000000
    13  C    5.064234   0.451608  -0.047816  -0.000075   0.000003   0.000000
    14  C    0.451608   4.592685   0.325556   0.004026  -0.000059  -0.000000
    15  F   -0.047816   0.325556   9.046286  -0.000037   0.000004  -0.000000
    16  C   -0.000075   0.004026  -0.000037   4.965698   0.487851   0.000003
    17  C    0.000003  -0.000059   0.000004   0.487851   4.952876  -0.000081
    18  H    0.000000  -0.000000  -0.000000   0.000003  -0.000081   0.613234
    19  H    0.000000  -0.000000  -0.000000  -0.000032   0.001242  -0.032086
    20  H   -0.000000  -0.000000   0.000000   0.000027   0.000254  -0.030736
    21  H    0.000000   0.000000  -0.000000   0.000427  -0.003884  -0.004592
    22  H   -0.000000  -0.000000   0.000000   0.000027   0.000251  -0.000274
    23  H   -0.000000  -0.000000   0.000000   0.000003  -0.000088   0.003303
    24  H   -0.000000   0.000000  -0.000000  -0.000032   0.001219  -0.000049
    25  H   -0.000070   0.004233  -0.000016   0.003754  -0.000114  -0.000000
    26  H    0.004188   0.000885   0.000000   0.000005  -0.000000   0.000000
    27  H    0.359962  -0.023062  -0.000694   0.000002  -0.000000  -0.000000
    28  H   -0.000027   0.000032  -0.000001   0.362333  -0.039594  -0.000000
    29  H   -0.000000   0.000002   0.000000  -0.042995   0.365928  -0.000018
              19         20         21         22         23         24
     1  C    0.377592   0.388666  -0.044340  -0.004907  -0.004091   0.005013
     2  C   -0.032156  -0.031200   0.388490  -0.031188  -0.028011  -0.032087
     3  C    0.005031  -0.004908  -0.044563   0.388651   0.376031   0.378012
     4  C   -0.001882  -0.008452  -0.048390  -0.008435   0.004677  -0.001929
     5  N    0.000099   0.006768   0.004049   0.006768   0.000196   0.000101
     6  N   -0.000041  -0.000157  -0.000168  -0.000158   0.000002  -0.000045
     7  C   -0.000007   0.000005  -0.000007   0.000005  -0.000000  -0.000005
     8  C   -0.000000  -0.000000  -0.000000  -0.000000  -0.000000  -0.000000
     9  C    0.000000   0.000000   0.000000   0.000000   0.000000  -0.000000
    10  C   -0.000000  -0.000000  -0.000000  -0.000000   0.000000   0.000000
    11  C   -0.000000   0.000000  -0.000000   0.000000   0.000000  -0.000000
    12  I    0.000000  -0.000000  -0.000000  -0.000000   0.000000   0.000000
    13  C    0.000000  -0.000000   0.000000  -0.000000  -0.000000  -0.000000
    14  C   -0.000000  -0.000000   0.000000  -0.000000  -0.000000   0.000000
    15  F   -0.000000   0.000000  -0.000000   0.000000   0.000000  -0.000000
    16  C   -0.000032   0.000027   0.000427   0.000027   0.000003  -0.000032
    17  C    0.001242   0.000254  -0.003884   0.000251  -0.000088   0.001219
    18  H   -0.032086  -0.030736  -0.004592  -0.000274   0.003303  -0.000049
    19  H    0.614868  -0.029684  -0.003235   0.000010  -0.000051  -0.000202
    20  H   -0.029684   0.566942   0.005408   0.004383  -0.000270   0.000011
    21  H   -0.003235   0.005408   0.660318   0.005406  -0.004557  -0.003209
    22  H    0.000010   0.004383   0.005406   0.566592  -0.030704  -0.029567
    23  H   -0.000051  -0.000270  -0.004557  -0.030704   0.613727  -0.032052
    24  H   -0.000202   0.000011  -0.003209  -0.029567  -0.032052   0.613003
    25  H    0.000000   0.000000   0.000000   0.000000   0.000000   0.000000
    26  H    0.000000   0.000000   0.000000   0.000000  -0.000000   0.000000
    27  H    0.000000  -0.000000   0.000000  -0.000000  -0.000000   0.000000
    28  H    0.000001   0.000000  -0.000010   0.000000  -0.000000   0.000001
    29  H    0.000022  -0.000015   0.004398  -0.000015  -0.000020   0.000019
              25         26         27         28         29
     1  C    0.000000  -0.000000   0.000000   0.000003   0.000068
     2  C   -0.000000  -0.000000  -0.000000  -0.000124  -0.005951
     3  C    0.000000   0.000000  -0.000000   0.000003   0.000095
     4  C   -0.000005  -0.000000   0.000000   0.003922  -0.034744
     5  N   -0.000013  -0.000000  -0.000000  -0.000180   0.004656
     6  N    0.000100   0.000001   0.000004   0.004681  -0.000127
     7  C   -0.008445  -0.000177  -0.000147  -0.036998   0.003685
     8  C   -0.044484   0.004075   0.006330  -0.004306  -0.000139
     9  C    0.373043  -0.028721   0.000484   0.003244  -0.000005
    10  C   -0.039073   0.371106   0.004283  -0.000085   0.000000
    11  C    0.006435  -0.042098  -0.042404   0.000005  -0.000000
    12  I   -0.000287  -0.001670  -0.003654  -0.000000  -0.000000
    13  C   -0.000070   0.004188   0.359962  -0.000027  -0.000000
    14  C    0.004233   0.000885  -0.023062   0.000032   0.000002
    15  F   -0.000016   0.000000  -0.000694  -0.000001   0.000000
    16  C    0.003754   0.000005   0.000002   0.362333  -0.042995
    17  C   -0.000114  -0.000000  -0.000000  -0.039594   0.365928
    18  H   -0.000000   0.000000  -0.000000  -0.000000  -0.000018
    19  H    0.000000   0.000000   0.000000   0.000001   0.000022
    20  H    0.000000   0.000000  -0.000000   0.000000  -0.000015
    21  H    0.000000   0.000000   0.000000  -0.000010   0.004398
    22  H    0.000000   0.000000  -0.000000   0.000000  -0.000015
    23  H    0.000000  -0.000000  -0.000000  -0.000000  -0.000020
    24  H    0.000000   0.000000   0.000000   0.000001   0.000019
    25  H    0.605445  -0.006001   0.000012   0.001749   0.000003
    26  H   -0.006001   0.592215  -0.000169  -0.000001   0.000000
    27  H    0.000012  -0.000169   0.578431   0.000000   0.000000
    28  H    0.001749  -0.000001   0.000000   0.605390  -0.006555
    29  H    0.000003   0.000000   0.000000  -0.006555   0.606578
 Mulliken charges:
               1
     1  C   -0.309342
     2  C   -0.106431
     3  C   -0.309448
     4  C    0.301883
     5  N   -0.317369
     6  N   -0.303712
     7  C    0.215420
     8  C    0.009091
     9  C   -0.100057
    10  C   -0.027219
    11  C   -0.382208
    12  I    0.191889
    13  C   -0.063120
    14  C    0.346421
    15  F   -0.272561
    16  C   -0.073560
    17  C   -0.103031
    18  H    0.102200
    19  H    0.100510
    20  H    0.132958
    21  H    0.088460
    22  H    0.133154
    23  H    0.101905
    24  H    0.101799
    25  H    0.103734
    26  H    0.106361
    27  H    0.120622
    28  H    0.106520
    29  H    0.105130
 Sum of Mulliken charges =  -0.00000
 Mulliken charges with hydrogens summed into heavy atoms:
               1
     1  C    0.026327
     2  C   -0.017971
     3  C    0.027410
     4  C    0.301883
     5  N   -0.317369
     6  N   -0.303712
     7  C    0.215420
     8  C    0.009091
     9  C    0.003678
    10  C    0.079143
    11  C   -0.382208
    12  I    0.191889
    13  C    0.057502
    14  C    0.346421
    15  F   -0.272561
    16  C    0.032959
    17  C    0.002099
 Electronic spatial extent (au):  <R**2>=           7070.0196
 Charge=             -0.0000 electrons
 Dipole moment (field-independent basis, Debye):
    X=             -1.1418    Y=             -3.6451    Z=             -2.1203  Tot=              4.3688
 Quadrupole moment (field-independent basis, Debye-Ang):
   XX=           -100.7061   YY=           -108.7813   ZZ=           -114.3697
   XY=              9.3871   XZ=              6.7672   YZ=             -0.0104
 Traceless Quadrupole moment (field-independent basis, Debye-Ang):
   XX=              7.2463   YY=             -0.8290   ZZ=             -6.4174
   XY=              9.3871   XZ=              6.7672   YZ=             -0.0104
 Octapole moment (field-independent basis, Debye-Ang**2):
  XXX=            234.5230  YYY=              1.5439  ZZZ=              1.9372  XYY=            109.6478
  XXY=            -20.3827  XXZ=            -18.7332  XZZ=             99.6146  YZZ=              1.6219
  YYZ=             -3.3562  XYZ=             -3.1319
 Hexadecapole moment (field-independent basis, Debye-Ang**3):
 XXXX=          -9565.1527 YYYY=           -728.7563 ZZZZ=           -362.7455 XXXY=             84.5472
 XXXZ=            105.2624 YYYX=             -1.0002 YYYZ=              0.4537 ZZZX=             33.2705
 ZZZY=             -2.3265 XXYY=          -1845.0474 XXZZ=          -1818.8861 YYZZ=           -181.7608
 XXYZ=              5.7257 YYXZ=             28.5031 ZZXY=              8.9102
 N-N= 1.075775724641D+03 E-N=-3.829228625462D+03  KE= 7.083995294233D+02
   1 Symmetry operations used in ECPInt.
 ECPInt:  NShTT=    5460 NPrTT=   29729 LenC2=    4596 LenP2D=   15792.
 LDataN:  DoStor=T MaxTD1= 6 Len=  172
 Calling FoFJK, ICntrl=      2127 FMM=F ISym2X=0 I1Cent= 0 IOpClX= 0 NMat=1 NMatS=1 NMatT=0.
 Defaulting to unpruned grid for atomic number  53.
 Defaulting to unpruned grid for atomic number  53.
 Defaulting to unpruned grid for atomic number  53.
 Defaulting to unpruned grid for atomic number  53.
 Defaulting to unpruned grid for atomic number  53.
 Defaulting to unpruned grid for atomic number  53.
 Defaulting to unpruned grid for atomic number  53.
 Defaulting to unpruned grid for atomic number  53.
 Defaulting to unpruned grid for atomic number  53.
 Defaulting to unpruned grid for atomic number  53.
 Defaulting to unpruned grid for atomic number  53.
 Defaulting to unpruned grid for atomic number  53.
 Defaulting to unpruned grid for atomic number  53.
 Defaulting to unpruned grid for atomic number  53.
 Defaulting to unpruned grid for atomic number  53.
 Defaulting to unpruned grid for atomic number  53.
 ***** Axes restored to original set *****
 -------------------------------------------------------------------
 Center     Atomic                   Forces (Hartrees/Bohr)
 Number     Number              X              Y              Z
 -------------------------------------------------------------------
      1        6           0.003173837   -0.001455170   -0.001948106
      2        6          -0.001307418   -0.004144658   -0.003252748
      3        6           0.003334779   -0.001674751   -0.001645341
      4        6          -0.003371100   -0.008670821   -0.006607034
      5        7           0.011853973    0.010761291    0.007514217
      6        7          -0.005410893    0.006822491    0.007089336
      7        6          -0.011016333   -0.010301086   -0.004399655
      8        6          -0.011469333   -0.001779995    0.003367012
      9        6           0.007285649   -0.009731842   -0.000278607
     10        6          -0.000173245    0.004450681    0.000046323
     11        6          -0.016712006    0.002547989    0.004952264
     12       53           0.011736434   -0.001803944   -0.003527995
     13        6          -0.001310476   -0.006666644    0.001071162
     14        6           0.001466818    0.004028132   -0.002462419
     15        9           0.005934342    0.011380797   -0.002433716
     16        6          -0.008684083    0.000738957    0.001378655
     17        6           0.011817786   -0.004914374   -0.007262968
     18        1          -0.002159422   -0.000174763    0.003211875
     19        1           0.001381412    0.002468703   -0.000715743
     20        1           0.002233848   -0.002239141   -0.000100512
     21        1           0.002645632    0.003402876    0.002428752
     22        1           0.001803500   -0.000120364   -0.002631737
     23        1          -0.002784150    0.002763430   -0.000200912
     24        1           0.001815405   -0.000015444    0.002138707
     25        1          -0.002666659    0.001930535    0.000324553
     26        1           0.000262203    0.002671711   -0.000472132
     27        1          -0.001070074   -0.003920688    0.000838148
     28        1           0.003771477    0.001478233    0.001213585
     29        1          -0.002381901    0.002167861    0.002365040
 -------------------------------------------------------------------
 Cartesian Forces:  Max     0.016712006 RMS     0.005200882

 GradGradGradGradGradGradGradGradGradGradGradGradGradGradGradGradGradGrad
 Berny optimization.
 FormGI is forming the generalized inverse of G from B-inverse, IUseBI=4.
 Internal  Forces:  Max     0.017883302 RMS     0.003791370
 Search for a local minimum.
 Step number   1 out of a maximum of  159
 All quantities printed in internal units (Hartrees-Bohrs-Radians)
 Mixed Optimization -- RFO/linear search
 Second derivative matrix not updated -- first step.
 ITU=  0
     Eigenvalues ---    0.00230   0.00230   0.00385   0.00888   0.01338
     Eigenvalues ---    0.01669   0.01678   0.02034   0.02076   0.02103
     Eigenvalues ---    0.02120   0.02128   0.02139   0.02139   0.02149
     Eigenvalues ---    0.02159   0.02171   0.02177   0.02184   0.02192
     Eigenvalues ---    0.03547   0.04839   0.05346   0.05350   0.05377
     Eigenvalues ---    0.05379   0.05631   0.14346   0.15998   0.15998
     Eigenvalues ---    0.16000   0.16000   0.16000   0.16000   0.16000
     Eigenvalues ---    0.16000   0.16000   0.16000   0.16000   0.17077
     Eigenvalues ---    0.18449   0.22371   0.22474   0.23490   0.24487
     Eigenvalues ---    0.24606   0.24996   0.25000   0.25000   0.25000
     Eigenvalues ---    0.25000   0.25000   0.28460   0.28463   0.29535
     Eigenvalues ---    0.33368   0.34595   0.34690   0.34696   0.34728
     Eigenvalues ---    0.34742   0.34769   0.34777   0.35935   0.35953
     Eigenvalues ---    0.36026   0.36029   0.36105   0.41780   0.41986
     Eigenvalues ---    0.43313   0.44171   0.45192   0.46127   0.46182
     Eigenvalues ---    0.46500   0.46865   0.50698   0.51651   0.54301
     Eigenvalues ---    0.55255
 RFO step:  Lambda=-6.97802137D-03 EMin= 2.30000000D-03
 Linear search not attempted -- first point.
 Iteration  1 RMS(Cart)=  0.06012878 RMS(Int)=  0.00086777
 Iteration  2 RMS(Cart)=  0.00138458 RMS(Int)=  0.00010642
 Iteration  3 RMS(Cart)=  0.00000094 RMS(Int)=  0.00010642
 Variable       Old X    -DE/DX   Delta X   Delta X   Delta X     New X
                                 (Linear)    (Quad)   (Total)
    R1        2.91137  -0.00318   0.00000  -0.01090  -0.01090   2.90047
    R2        2.06052   0.00279   0.00000   0.00788   0.00788   2.06839
    R3        2.06095   0.00284   0.00000   0.00801   0.00801   2.06896
    R4        2.06182   0.00181   0.00000   0.00511   0.00511   2.06693
    R5        2.91143  -0.00318   0.00000  -0.01092  -0.01092   2.90052
    R6        2.88900  -0.01052   0.00000  -0.03480  -0.03480   2.85420
    R7        2.06337   0.00375   0.00000   0.01064   0.01064   2.07401
    R8        2.06172   0.00185   0.00000   0.00522   0.00522   2.06694
    R9        2.06039   0.00284   0.00000   0.00800   0.00800   2.06839
   R10        2.06120   0.00272   0.00000   0.00768   0.00768   2.06887
   R11        2.57389  -0.01601   0.00000  -0.03089  -0.03089   2.54300
   R12        2.63969  -0.00154   0.00000  -0.00266  -0.00266   2.63703
   R13        2.53902  -0.01788   0.00000  -0.03262  -0.03263   2.50639
   R14        2.57620  -0.01432   0.00000  -0.02763  -0.02763   2.54858
   R15        2.81710  -0.00720   0.00000  -0.02113  -0.02113   2.79597
   R16        2.64470  -0.00200   0.00000  -0.00343  -0.00342   2.64128
   R17        2.65084  -0.00226   0.00000  -0.00574  -0.00575   2.64509
   R18        2.66014  -0.00807   0.00000  -0.01897  -0.01894   2.64120
   R19        2.63634  -0.00189   0.00000  -0.00380  -0.00384   2.63250
   R20        2.04183   0.00284   0.00000   0.00774   0.00774   2.04957
   R21        2.63093   0.00316   0.00000   0.00764   0.00760   2.63853
   R22        2.04156   0.00240   0.00000   0.00654   0.00654   2.04810
   R23        3.94986   0.01238   0.00000   0.08229   0.08229   4.03216
   R24        2.63072   0.00199   0.00000   0.00498   0.00498   2.63570
   R25        2.63509  -0.00557   0.00000  -0.01200  -0.01196   2.62313
   R26        2.03918   0.00312   0.00000   0.00849   0.00849   2.04767
   R27        2.55758  -0.01300   0.00000  -0.02363  -0.02363   2.53395
   R28        2.63455  -0.01102   0.00000  -0.02171  -0.02171   2.61285
   R29        2.04040   0.00397   0.00000   0.01080   0.01080   2.05121
   R30        2.04036   0.00377   0.00000   0.01026   0.01026   2.05061
    A1        1.94442  -0.00305   0.00000  -0.01826  -0.01835   1.92607
    A2        1.94132   0.00023   0.00000   0.00213   0.00214   1.94346
    A3        1.94565  -0.00278   0.00000  -0.01747  -0.01757   1.92808
    A4        1.87676   0.00169   0.00000   0.01161   0.01162   1.88838
    A5        1.87685   0.00295   0.00000   0.01621   0.01602   1.89287
    A6        1.87538   0.00135   0.00000   0.00807   0.00807   1.88345
    A7        1.94362   0.00107   0.00000  -0.00126  -0.00207   1.94154
    A8        1.95269  -0.00149   0.00000  -0.02275  -0.02308   1.92961
    A9        1.86674   0.00103   0.00000   0.02665   0.02648   1.89322
   A10        1.95234  -0.00147   0.00000  -0.02251  -0.02284   1.92950
   A11        1.86632   0.00105   0.00000   0.02710   0.02693   1.89325
   A12        1.87657   0.00003   0.00000  -0.00227  -0.00185   1.87472
   A13        1.94582  -0.00279   0.00000  -0.01754  -0.01764   1.92818
   A14        1.94481  -0.00309   0.00000  -0.01858  -0.01867   1.92613
   A15        1.94100   0.00023   0.00000   0.00220   0.00221   1.94321
   A16        1.87712   0.00297   0.00000   0.01617   0.01597   1.89309
   A17        1.87482   0.00137   0.00000   0.00831   0.00831   1.88313
   A18        1.87681   0.00171   0.00000   0.01175   0.01176   1.88857
   A19        2.04015  -0.00553   0.00000  -0.02177  -0.02176   2.01839
   A20        2.11963   0.00430   0.00000   0.01648   0.01649   2.13611
   A21        2.12340   0.00124   0.00000   0.00529   0.00527   2.12867
   A22        2.09657   0.00346   0.00000   0.00803   0.00800   2.10458
   A23        2.10368  -0.00207   0.00000  -0.01282  -0.01283   2.09085
   A24        2.03833  -0.00230   0.00000  -0.00965  -0.00967   2.02866
   A25        2.11336   0.00486   0.00000   0.02024   0.02024   2.13360
   A26        2.13148  -0.00256   0.00000  -0.01065  -0.01066   2.12081
   A27        2.08778   0.00425   0.00000   0.01801   0.01799   2.10577
   A28        2.13121  -0.00079   0.00000  -0.00158  -0.00160   2.12960
   A29        2.06419  -0.00346   0.00000  -0.01644  -0.01640   2.04779
   A30        2.11227   0.00303   0.00000   0.01264   0.01260   2.12488
   A31        2.09315  -0.00323   0.00000  -0.01664  -0.01662   2.07653
   A32        2.07763   0.00020   0.00000   0.00392   0.00394   2.08157
   A33        2.09381  -0.00375   0.00000  -0.01336  -0.01343   2.08038
   A34        2.09864   0.00056   0.00000  -0.00122  -0.00119   2.09745
   A35        2.09072   0.00320   0.00000   0.01457   0.01460   2.10532
   A36        2.09550  -0.00006   0.00000  -0.00217  -0.00215   2.09335
   A37        2.09149   0.00179   0.00000   0.01085   0.01083   2.10232
   A38        2.09619  -0.00173   0.00000  -0.00868  -0.00867   2.08752
   A39        2.10013  -0.00577   0.00000  -0.02361  -0.02356   2.07657
   A40        2.09798   0.00566   0.00000   0.02844   0.02842   2.12640
   A41        2.08507   0.00010   0.00000  -0.00484  -0.00487   2.08020
   A42        2.10446   0.00817   0.00000   0.02991   0.02995   2.13442
   A43        2.11351  -0.00561   0.00000  -0.02099  -0.02107   2.09244
   A44        2.06509  -0.00257   0.00000  -0.00915  -0.00923   2.05586
   A45        2.06861  -0.00503   0.00000  -0.01579  -0.01577   2.05284
   A46        2.11257   0.00108   0.00000  -0.00073  -0.00073   2.11183
   A47        2.10192   0.00396   0.00000   0.01652   0.01652   2.11844
   A48        2.06074  -0.00245   0.00000  -0.00493  -0.00494   2.05580
   A49        2.11780  -0.00013   0.00000  -0.00569  -0.00570   2.11211
   A50        2.10463   0.00258   0.00000   0.01059   0.01058   2.11521
    D1        1.03310   0.00124   0.00000   0.01042   0.01050   1.04360
    D2       -3.05079  -0.00103   0.00000  -0.03808  -0.03795  -3.08874
    D3       -1.00020  -0.00120   0.00000  -0.03712  -0.03717  -1.03737
    D4        3.12678   0.00147   0.00000   0.01427   0.01430   3.14107
    D5       -0.95711  -0.00080   0.00000  -0.03423  -0.03415  -0.99126
    D6        1.09348  -0.00096   0.00000  -0.03326  -0.03337   1.06010
    D7       -1.06365   0.00147   0.00000   0.01417   0.01414  -1.04950
    D8        1.13565  -0.00081   0.00000  -0.03434  -0.03431   1.10135
    D9       -3.09695  -0.00097   0.00000  -0.03337  -0.03353  -3.13047
   D10        1.06380  -0.00148   0.00000  -0.01400  -0.01397   1.04983
   D11       -1.03365  -0.00123   0.00000  -0.00991  -0.01000  -1.04365
   D12       -3.12744  -0.00146   0.00000  -0.01378  -0.01380  -3.14124
   D13       -1.13570   0.00081   0.00000   0.03464   0.03461  -1.10108
   D14        3.05004   0.00106   0.00000   0.03872   0.03858   3.08862
   D15        0.95625   0.00082   0.00000   0.03486   0.03478   0.99103
   D16        3.09735   0.00095   0.00000   0.03326   0.03343   3.13078
   D17        0.99990   0.00119   0.00000   0.03735   0.03740   1.03730
   D18       -1.09389   0.00096   0.00000   0.03348   0.03359  -1.06029
   D19       -1.09760   0.00044   0.00000   0.01839   0.01819  -1.07941
   D20        2.04699   0.00044   0.00000   0.01812   0.01790   2.06489
   D21        1.09692  -0.00045   0.00000  -0.01875  -0.01852   1.07840
   D22       -2.04167  -0.00046   0.00000  -0.01901  -0.01881  -2.06049
   D23        3.14090   0.00002   0.00000   0.00016   0.00017   3.14107
   D24        0.00231   0.00001   0.00000  -0.00011  -0.00012   0.00219
   D25       -3.13807  -0.00008   0.00000  -0.00257  -0.00263  -3.14070
   D26        0.00051  -0.00006   0.00000  -0.00228  -0.00232  -0.00181
   D27        3.13962  -0.00014   0.00000  -0.00492  -0.00494   3.13468
   D28        0.00272   0.00007   0.00000   0.00265   0.00259   0.00531
   D29        0.00117  -0.00014   0.00000  -0.00516  -0.00521  -0.00404
   D30       -3.13573   0.00008   0.00000   0.00242   0.00232  -3.13340
   D31       -0.00187   0.00016   0.00000   0.00619   0.00622   0.00434
   D32       -3.13314   0.00016   0.00000   0.00615   0.00618  -3.12695
   D33        0.00153  -0.00006   0.00000  -0.00255  -0.00256  -0.00103
   D34        2.34533   0.00045   0.00000   0.02898   0.02906   2.37439
   D35       -0.80000   0.00036   0.00000   0.02536   0.02541  -0.77459
   D36       -0.78926   0.00064   0.00000   0.03765   0.03760  -0.75166
   D37        2.34860   0.00055   0.00000   0.03402   0.03395   2.38255
   D38        0.00019  -0.00015   0.00000  -0.00495  -0.00494  -0.00476
   D39        3.12809  -0.00012   0.00000  -0.00389  -0.00392   3.12417
   D40        3.13448  -0.00038   0.00000  -0.01411  -0.01413   3.12035
   D41       -0.02080  -0.00034   0.00000  -0.01305  -0.01311  -0.03391
   D42       -3.14052  -0.00008   0.00000  -0.00307  -0.00304   3.13962
   D43       -0.01640  -0.00020   0.00000  -0.00802  -0.00798  -0.02438
   D44        0.00466  -0.00000   0.00000   0.00038   0.00042   0.00508
   D45        3.12878  -0.00012   0.00000  -0.00456  -0.00452   3.12426
   D46        3.14087   0.00015   0.00000   0.00591   0.00592  -3.13640
   D47       -0.01784  -0.00029   0.00000  -0.01057  -0.01053  -0.02837
   D48       -0.00441   0.00008   0.00000   0.00241   0.00245  -0.00196
   D49        3.12007  -0.00036   0.00000  -0.01407  -0.01399   3.10607
   D50       -0.00235  -0.00004   0.00000  -0.00132  -0.00133  -0.00368
   D51        3.13461  -0.00013   0.00000  -0.00440  -0.00442   3.13019
   D52       -3.12662   0.00011   0.00000   0.00379   0.00383  -3.12279
   D53        0.01034   0.00003   0.00000   0.00070   0.00073   0.01107
   D54       -3.14107  -0.00001   0.00000  -0.00053  -0.00055   3.14156
   D55       -0.00032  -0.00002   0.00000  -0.00064  -0.00066  -0.00098
   D56        0.00514   0.00008   0.00000   0.00259   0.00260   0.00774
   D57       -3.13730   0.00008   0.00000   0.00248   0.00249  -3.13481
   D58        0.00055   0.00010   0.00000   0.00346   0.00343   0.00398
   D59       -3.13747   0.00018   0.00000   0.00591   0.00594  -3.13153
   D60        3.14130   0.00010   0.00000   0.00336   0.00333  -3.13856
   D61        0.00328   0.00017   0.00000   0.00581   0.00583   0.00911
   D62        0.00187  -0.00012   0.00000  -0.00434  -0.00436  -0.00249
   D63       -3.12307   0.00034   0.00000   0.01182   0.01188  -3.11119
   D64        3.13991  -0.00019   0.00000  -0.00671  -0.00672   3.13319
   D65        0.01497   0.00027   0.00000   0.00945   0.00952   0.02449
   D66       -0.00148   0.00025   0.00000   0.00855   0.00849   0.00701
   D67        3.13546   0.00002   0.00000   0.00099   0.00089   3.13635
   D68       -3.12948   0.00023   0.00000   0.00763   0.00761  -3.12187
   D69        0.00746   0.00001   0.00000   0.00007   0.00001   0.00747
         Item               Value     Threshold  Converged?
 Maximum Force            0.017883     0.000450     NO 
 RMS     Force            0.003791     0.000300     NO 
 Maximum Displacement     0.259324     0.001800     NO 
 RMS     Displacement     0.060835     0.001200     NO 
 Predicted change in Energy=-3.655055D-03
 GradGradGradGradGradGradGradGradGradGradGradGradGradGradGradGradGradGrad

                          Input orientation:                          
 ---------------------------------------------------------------------
 Center     Atomic      Atomic             Coordinates (Angstroms)
 Number     Number       Type             X           Y           Z
 ---------------------------------------------------------------------
      1          6           0       -4.065693    0.892101   -0.471458
      2          6           0       -3.273641    0.592249    0.808601
      3          6           0       -3.736281   -0.721270    1.453980
      4          6           0       -1.792296    0.547014    0.517379
      5          7           0       -1.397555   -0.405481   -0.347396
      6          7           0       -0.118029   -0.533696   -0.672220
      7          6           0        0.797659    0.293642   -0.128272
      8          6           0        2.198515    0.093290   -0.560211
      9          6           0        3.009851    1.187852   -0.880970
     10          6           0        4.332265    1.025713   -1.287845
     11          6           0        4.865287   -0.261890   -1.374326
     12         53           0        6.888043   -0.537639   -1.994976
     13          6           0        4.084528   -1.373028   -1.056325
     14          6           0        2.769198   -1.178837   -0.657562
     15          9           0        2.051018   -2.260722   -0.323225
     16          6           0        0.449307    1.298865    0.778233
     17          6           0       -0.887303    1.430835    1.106573
     18          1           0       -5.133632    0.977300   -0.247226
     19          1           0       -3.737459    1.829049   -0.933063
     20          1           0       -3.928372    0.090528   -1.202872
     21          1           0       -3.443359    1.408910    1.521908
     22          1           0       -3.591525   -1.558060    0.764651
     23          1           0       -4.798300   -0.665027    1.712788
     24          1           0       -3.172518   -0.936512    2.367452
     25          1           0        2.589329    2.186312   -0.830324
     26          1           0        4.934520    1.890696   -1.540292
     27          1           0        4.478019   -2.381376   -1.106747
     28          1           0        1.205134    1.943233    1.216096
     29          1           0       -1.221608    2.188449    1.807847
 ---------------------------------------------------------------------
                    Distance matrix (angstroms):
                    1          2          3          4          5
     1  C    0.000000
     2  C    1.534865   0.000000
     3  C    2.533534   1.534888   0.000000
     4  C    2.503042   1.510378   2.502966   0.000000
     5  N    2.969524   2.418986   2.968891   1.345698   0.000000
     6  N    4.202054   3.663123   4.200911   2.320830   1.326324
     7  C    4.912039   4.188363   4.908175   2.681218   2.314250
     8  C    6.315558   5.662782   6.319990   4.158562   3.636727
     9  C    7.093553   6.533886   7.389657   5.042486   4.716846
    10  C    8.438604   7.901442   8.698907   6.402986   5.980267
    11  C    9.050374   8.469763   9.066273   6.968234   6.348102
    12  I   11.151215  10.601723  11.171628   9.101466   8.448853
[...]
 Alpha virt. eigenvalues --    2.63219   2.64893   2.65704   2.66339   2.67699
 Alpha virt. eigenvalues --    2.68816   2.69955   2.70914   2.71474   2.71982
 Alpha virt. eigenvalues --    2.73664   2.74749   2.76279   2.77291   2.77864
 Alpha virt. eigenvalues --    2.78293   2.80056   2.80719   2.81199   2.83271
 Alpha virt. eigenvalues --    2.84185   2.84926   2.85336   2.86108   2.87154
 Alpha virt. eigenvalues --    2.87678   2.89067   2.90338   2.91545   2.92918
 Alpha virt. eigenvalues --    2.94028   2.96552   2.97166   2.98075   2.99208
 Alpha virt. eigenvalues --    2.99568   3.00671   3.01559   3.02708   3.04779
 Alpha virt. eigenvalues --    3.05015   3.05937   3.06678   3.08106   3.09108
 Alpha virt. eigenvalues --    3.09935   3.10833   3.11752   3.12136   3.13087
 Alpha virt. eigenvalues --    3.13663   3.14757   3.15014   3.16048   3.17152
 Alpha virt. eigenvalues --    3.18958   3.19201   3.20250   3.20926   3.21329
 Alpha virt. eigenvalues --    3.22533   3.22811   3.24458   3.25984   3.26516
 Alpha virt. eigenvalues --    3.28093   3.28617   3.28852   3.30539   3.31323
 Alpha virt. eigenvalues --    3.32576   3.32640   3.33564   3.34012   3.35031
 Alpha virt. eigenvalues --    3.35732   3.36168   3.37151   3.37510   3.39674
 Alpha virt. eigenvalues --    3.40192   3.41418   3.42172   3.42691   3.44058
 Alpha virt. eigenvalues --    3.45838   3.46435   3.48137   3.48716   3.49839
 Alpha virt. eigenvalues --    3.51046   3.51559   3.52661   3.54417   3.54580
 Alpha virt. eigenvalues --    3.55603   3.57018   3.57524   3.59143   3.60414
 Alpha virt. eigenvalues --    3.60684   3.61569   3.61700   3.63319   3.65217
 Alpha virt. eigenvalues --    3.65936   3.66295   3.68392   3.70690   3.72862
 Alpha virt. eigenvalues --    3.74236   3.76520   3.79599   3.81249   3.82669
 Alpha virt. eigenvalues --    3.84033   3.85111   3.88279   3.92098   3.92639
 Alpha virt. eigenvalues --    3.94836   3.94905   3.95548   3.97515   3.98402
 Alpha virt. eigenvalues --    3.99700   4.00843   4.01401   4.01704   4.04097
 Alpha virt. eigenvalues --    4.06050   4.07266   4.08466   4.10310   4.12224
 Alpha virt. eigenvalues --    4.13327   4.13783   4.14175   4.15458   4.17125
 Alpha virt. eigenvalues --    4.17389   4.18176   4.22132   4.23727   4.24437
 Alpha virt. eigenvalues --    4.26440   4.28346   4.28763   4.30643   4.32917
 Alpha virt. eigenvalues --    4.35466   4.35594   4.37404   4.39502   4.41417
 Alpha virt. eigenvalues --    4.42296   4.44712   4.49123   4.50534   4.52129
 Alpha virt. eigenvalues --    4.53936   4.55994   4.57811   4.58964   4.61874
 Alpha virt. eigenvalues --    4.63688   4.65268   4.65920   4.68072   4.68443
 Alpha virt. eigenvalues --    4.71423   4.74062   4.77810   4.78591   4.81586
 Alpha virt. eigenvalues --    4.83748   4.86998   4.87624   4.90187   4.92602
 Alpha virt. eigenvalues --    4.96898   5.00249   5.01695   5.03767   5.04860
 Alpha virt. eigenvalues --    5.06493   5.08396   5.12356   5.15163   5.19869
 Alpha virt. eigenvalues --    5.24080   5.28215   5.30664   5.36417   5.39344
 Alpha virt. eigenvalues --    5.46192   5.55451   5.60251   5.63508   5.68346
 Alpha virt. eigenvalues --    5.69822   5.74748   5.93946   6.39563   6.91407
 Alpha virt. eigenvalues --    6.92387   7.01745   7.04026   7.10650   7.25773
 Alpha virt. eigenvalues --    7.42145   7.58047   8.38417   8.55604   8.76814
 Alpha virt. eigenvalues --    8.98547   9.01250  15.25615  22.14964  22.46210
 Alpha virt. eigenvalues --   22.47951  22.55446  22.58140  22.66263  22.71087
 Alpha virt. eigenvalues --   22.82036  22.89106  22.92148  22.99965  23.30115
 Alpha virt. eigenvalues --   23.48633  32.41818  32.61262  57.53669
          Condensed to atoms (all electrons):
               1          2          3          4          5          6
     1  C    5.101045   0.256055  -0.060508  -0.010290  -0.018811   0.000887
     2  C    0.256055   5.245269   0.259723   0.172763  -0.021312   0.003355
     3  C   -0.060508   0.259723   5.098914  -0.014005  -0.019413   0.000911
     4  C   -0.010290   0.172763  -0.014005   5.137118   0.470530  -0.050888
     5  N   -0.018811  -0.021312  -0.019413   0.470530   6.591677   0.289091
     6  N    0.000887   0.003355   0.000911  -0.050888   0.289091   6.597492
     7  C    0.000606  -0.002634   0.000490  -0.047863  -0.064395   0.464647
     8  C    0.000038  -0.000849  -0.000016  -0.003655   0.003696  -0.049501
     9  C   -0.000004   0.000029   0.000002  -0.000179  -0.000582  -0.001745
    10  C   -0.000000   0.000001  -0.000000   0.000111   0.000017   0.000626
    11  C    0.000000  -0.000001   0.000000  -0.000053   0.000001  -0.000575
    12  I    0.000000  -0.000000   0.000000  -0.000003   0.000001  -0.000018
    13  C   -0.000000   0.000001  -0.000000   0.000103  -0.000010   0.000258
    14  C   -0.000001  -0.000030   0.000001   0.000331   0.001206   0.008116
    15  F   -0.000000   0.000004   0.000000  -0.000128  -0.000262  -0.013817
    16  C   -0.003518   0.016533  -0.003695  -0.004139  -0.020487  -0.060162
    17  C   -0.003033  -0.055926  -0.000703   0.339091  -0.074310  -0.034918
    18  H    0.414875  -0.050795  -0.004224   0.013306   0.000688   0.000030
    19  H    0.405156  -0.047251   0.010602   0.002147   0.000388  -0.000195
    20  H    0.408162  -0.009301  -0.010779  -0.026818   0.009073  -0.000881
    21  H   -0.053227   0.494763  -0.053730  -0.104567   0.003182  -0.000461
    22  H   -0.010898  -0.008815   0.408234  -0.026660   0.008959  -0.000856
    23  H   -0.004247  -0.050842   0.414158   0.013540   0.000765   0.000029
    24  H    0.010582  -0.047351   0.405783   0.001889   0.000367  -0.000218
    25  H   -0.000000   0.000007   0.000000   0.000127  -0.000044   0.000314
    26  H   -0.000000   0.000000  -0.000000   0.000003  -0.000000   0.000021
    27  H   -0.000000   0.000000  -0.000000   0.000002  -0.000000   0.000079
    28  H    0.000003   0.000081   0.000004  -0.000050  -0.000832   0.004821
    29  H    0.000818  -0.008757   0.000928  -0.001136   0.005400  -0.001036
               7          8          9         10         11         12
     1  C    0.000606   0.000038  -0.000004  -0.000000   0.000000   0.000000
     2  C   -0.002634  -0.000849   0.000029   0.000001  -0.000001  -0.000000
     3  C    0.000490  -0.000016   0.000002  -0.000000   0.000000   0.000000
     4  C   -0.047863  -0.003655  -0.000179   0.000111  -0.000053  -0.000003
     5  N   -0.064395   0.003696  -0.000582   0.000017   0.000001   0.000001
     6  N    0.464647  -0.049501  -0.001745   0.000626  -0.000575  -0.000018
     7  C    5.028539   0.224056  -0.102845   0.029384  -0.020059  -0.000368
     8  C    0.224056   5.453289   0.220949   0.152712  -0.237805  -0.014104
     9  C   -0.102845   0.220949   5.449912   0.012843   0.335885   0.045439
    10  C    0.029384   0.152712   0.012843   5.666792  -0.133903  -0.178728
    11  C   -0.020059  -0.237805   0.335885  -0.133903   6.037394   0.435982
    12  I   -0.000368  -0.014104   0.045439  -0.178728   0.435982   6.804712
    13  C    0.023093   0.157831  -0.259539   0.286094  -0.208075  -0.174756
    14  C   -0.109788   0.241182   0.146663  -0.228362   0.316564   0.042066
    15  F    0.021195  -0.085932   0.009102  -0.000351   0.009297  -0.000216
    16  C    0.428539  -0.040232  -0.010934   0.002352  -0.000318  -0.000000
    17  C   -0.022044   0.008769   0.003876  -0.000321   0.000082   0.000010
    18  H   -0.000032   0.000000   0.000000  -0.000000  -0.000000  -0.000000
    19  H    0.000102  -0.000006   0.000000   0.000000  -0.000000  -0.000000
    20  H    0.000258  -0.000011   0.000001  -0.000000   0.000000  -0.000000
    21  H   -0.000169   0.000009  -0.000001  -0.000000   0.000000   0.000000
    22  H    0.000191  -0.000015   0.000000  -0.000000   0.000000  -0.000000
    23  H   -0.000032   0.000000  -0.000000   0.000000  -0.000000  -0.000000
    24  H    0.000167   0.000003   0.000000  -0.000000  -0.000000   0.000000
    25  H    0.009415  -0.036474   0.398718  -0.022091   0.002905  -0.000162
    26  H    0.001083   0.013968  -0.053724   0.446775  -0.085679  -0.022159
    27  H    0.001060   0.026453  -0.010986   0.026359  -0.096203  -0.023323
    28  H   -0.000403  -0.003344   0.000122   0.001321  -0.000312  -0.000021
    29  H    0.000986   0.000133  -0.000091   0.000004  -0.000001  -0.000000
              13         14         15         16         17         18
     1  C   -0.000000  -0.000001  -0.000000  -0.003518  -0.003033   0.414875
     2  C    0.000001  -0.000030   0.000004   0.016533  -0.055926  -0.050795
     3  C   -0.000000   0.000001   0.000000  -0.003695  -0.000703  -0.004224
     4  C    0.000103   0.000331  -0.000128  -0.004139   0.339091   0.013306
     5  N   -0.000010   0.001206  -0.000262  -0.020487  -0.074310   0.000688
     6  N    0.000258   0.008116  -0.013817  -0.060162  -0.034918   0.000030
     7  C    0.023093  -0.109788   0.021195   0.428539  -0.022044  -0.000032
     8  C    0.157831   0.241182  -0.085932  -0.040232   0.008769   0.000000
     9  C   -0.259539   0.146663   0.009102  -0.010934   0.003876   0.000000
    10  C    0.286094  -0.228362  -0.000351   0.002352  -0.000321  -0.000000
    11  C   -0.208075   0.316564   0.009297  -0.000318   0.000082  -0.000000
    12  I   -0.174756   0.042066  -0.000216  -0.000000   0.000010  -0.000000
    13  C    5.799350   0.063252  -0.052480  -0.000640  -0.000107   0.000000
    14  C    0.063252   5.024632   0.286032   0.009699  -0.002099  -0.000000
    15  F   -0.052480   0.286032   9.003871  -0.001491   0.000279  -0.000000
    16  C   -0.000640   0.009699  -0.001491   5.181101   0.354316   0.000173
    17  C   -0.000107  -0.002099   0.000279   0.354316   5.243147  -0.000962
    18  H    0.000000  -0.000000  -0.000000   0.000173  -0.000962   0.537211
    19  H    0.000000   0.000000  -0.000000  -0.000556   0.001605  -0.023451
    20  H   -0.000000  -0.000002   0.000000  -0.000140   0.003404  -0.024916
    21  H   -0.000000   0.000000  -0.000000   0.002963   0.007297  -0.004486
    22  H   -0.000000  -0.000002   0.000000  -0.000023   0.003042  -0.000013
    23  H   -0.000000   0.000000   0.000000   0.000182  -0.001082   0.001532
    24  H   -0.000000  -0.000001   0.000000  -0.000692   0.001932  -0.000155
    25  H    0.002343  -0.003058  -0.000054  -0.000472  -0.000067   0.000000
    26  H    0.022652  -0.006399   0.000012   0.000008  -0.000009   0.000000
    27  H    0.449412  -0.061380   0.002660   0.000024  -0.000002   0.000000
    28  H    0.000094   0.000080  -0.000009   0.374324  -0.024310   0.000000
    29  H   -0.000000   0.000023  -0.000000  -0.029164   0.377375  -0.000094
              19         20         21         22         23         24
     1  C    0.405156   0.408162  -0.053227  -0.010898  -0.004247   0.010582
     2  C   -0.047251  -0.009301   0.494763  -0.008815  -0.050842  -0.047351
     3  C    0.010602  -0.010779  -0.053730   0.408234   0.414158   0.405783
     4  C    0.002147  -0.026818  -0.104567  -0.026660   0.013540   0.001889
     5  N    0.000388   0.009073   0.003182   0.008959   0.000765   0.000367
     6  N   -0.000195  -0.000881  -0.000461  -0.000856   0.000029  -0.000218
     7  C    0.000102   0.000258  -0.000169   0.000191  -0.000032   0.000167
     8  C   -0.000006  -0.000011   0.000009  -0.000015   0.000000   0.000003
     9  C    0.000000   0.000001  -0.000001   0.000000  -0.000000   0.000000
    10  C    0.000000  -0.000000  -0.000000  -0.000000   0.000000  -0.000000
    11  C   -0.000000   0.000000   0.000000   0.000000  -0.000000  -0.000000
    12  I   -0.000000  -0.000000   0.000000  -0.000000  -0.000000   0.000000
    13  C    0.000000  -0.000000  -0.000000  -0.000000  -0.000000  -0.000000
    14  C    0.000000  -0.000002   0.000000  -0.000002   0.000000  -0.000001
    15  F   -0.000000   0.000000  -0.000000   0.000000   0.000000   0.000000
    16  C   -0.000556  -0.000140   0.002963  -0.000023   0.000182  -0.000692
    17  C    0.001605   0.003404   0.007297   0.003042  -0.001082   0.001932
    18  H   -0.023451  -0.024916  -0.004486  -0.000013   0.001532  -0.000155
    19  H    0.538001  -0.022020  -0.004820  -0.000071  -0.000158  -0.000406
    20  H   -0.022020   0.491071   0.007157   0.004046   0.000011  -0.000069
    21  H   -0.004820   0.007157   0.585442   0.007151  -0.004382  -0.004805
    22  H   -0.000071   0.004046   0.007151   0.490510  -0.025008  -0.021740
    23  H   -0.000158   0.000011  -0.004382  -0.025008   0.538494  -0.023493
    24  H   -0.000406  -0.000069  -0.004805  -0.021740  -0.023493   0.536094
    25  H    0.000000   0.000000  -0.000000  -0.000000  -0.000000   0.000000
    26  H    0.000000   0.000000   0.000000   0.000000   0.000000   0.000000
    27  H    0.000000  -0.000000   0.000000  -0.000000   0.000000   0.000000
    28  H    0.000004   0.000002  -0.000090   0.000002   0.000000   0.000002
    29  H    0.000200  -0.000105   0.001160  -0.000111  -0.000108   0.000227
              25         26         27         28         29
     1  C   -0.000000  -0.000000  -0.000000   0.000003   0.000818
     2  C    0.000007   0.000000   0.000000   0.000081  -0.008757
     3  C    0.000000  -0.000000  -0.000000   0.000004   0.000928
     4  C    0.000127   0.000003   0.000002  -0.000050  -0.001136
     5  N   -0.000044  -0.000000  -0.000000  -0.000832   0.005400
     6  N    0.000314   0.000021   0.000079   0.004821  -0.001036
     7  C    0.009415   0.001083   0.001060  -0.000403   0.000986
     8  C   -0.036474   0.013968   0.026453  -0.003344   0.000133
     9  C    0.398718  -0.053724  -0.010986   0.000122  -0.000091
    10  C   -0.022091   0.446775   0.026359   0.001321   0.000004
    11  C    0.002905  -0.085679  -0.096203  -0.000312  -0.000001
    12  I   -0.000162  -0.022159  -0.023323  -0.000021  -0.000000
    13  C    0.002343   0.022652   0.449412   0.000094  -0.000000
    14  C   -0.003058  -0.006399  -0.061380   0.000080   0.000023
    15  F   -0.000054   0.000012   0.002660  -0.000009  -0.000000
    16  C   -0.000472   0.000008   0.000024   0.374324  -0.029164
    17  C   -0.000067  -0.000009  -0.000002  -0.024310   0.377375
    18  H    0.000000   0.000000   0.000000   0.000000  -0.000094
    19  H    0.000000   0.000000   0.000000   0.000004   0.000200
    20  H    0.000000   0.000000  -0.000000   0.000002  -0.000105
    21  H   -0.000000   0.000000   0.000000  -0.000090   0.001160
    22  H   -0.000000   0.000000  -0.000000   0.000002  -0.000111
    23  H   -0.000000   0.000000   0.000000   0.000000  -0.000108
    24  H    0.000000   0.000000   0.000000   0.000002   0.000227
    25  H    0.474821  -0.002768   0.000033  -0.001864   0.000007
    26  H   -0.002768   0.498326   0.000455   0.000064   0.000000
    27  H    0.000033   0.000455   0.490507   0.000004   0.000000
    28  H   -0.001864   0.000064   0.000004   0.475134  -0.003695
    29  H    0.000007   0.000000   0.000000  -0.003695   0.493350
 Mulliken charges:
               1
     1  C   -0.433691
     2  C   -0.144719
     3  C   -0.432678
     4  C    0.139376
     5  N   -0.164581
     6  N   -0.155406
     7  C    0.136821
     8  C   -0.031147
     9  C   -0.182913
    10  C   -0.061636
    11  C   -0.355126
    12  I    0.085650
    13  C   -0.108876
    14  C    0.271275
    15  F   -0.177712
    16  C   -0.193550
    17  C   -0.124334
    18  H    0.141312
    19  H    0.140727
    20  H    0.171859
    21  H    0.121614
    22  H    0.172077
    23  H    0.140640
    24  H    0.141884
    25  H    0.178364
    26  H    0.187373
    27  H    0.194846
    28  H    0.178866
    29  H    0.163685
 Sum of Mulliken charges =  -0.00000
 Mulliken charges with hydrogens summed into heavy atoms:
               1
     1  C    0.020207
     2  C   -0.023105
     3  C    0.021922
     4  C    0.139376
     5  N   -0.164581
     6  N   -0.155406
     7  C    0.136821
     8  C   -0.031147
     9  C   -0.004549
    10  C    0.125737
    11  C   -0.355126
    12  I    0.085650
    13  C    0.085970
    14  C    0.271275
    15  F   -0.177712
    16  C   -0.014684
    17  C    0.039352
 Electronic spatial extent (au):  <R**2>=           6991.5087
 Charge=             -0.0000 electrons
 Dipole moment (field-independent basis, Debye):
    X=             -1.2949    Y=             -3.9261    Z=             -1.8983  Tot=              4.5491
 Quadrupole moment (field-independent basis, Debye-Ang):
   XX=           -101.9789   YY=           -110.5075   ZZ=           -116.8800
   XY=             10.3897   XZ=              6.4054   YZ=              0.3798
 Traceless Quadrupole moment (field-independent basis, Debye-Ang):
   XX=              7.8099   YY=             -0.7187   ZZ=             -7.0912
   XY=             10.3897   XZ=              6.4054   YZ=              0.3798
 Octapole moment (field-independent basis, Debye-Ang**2):
  XXX=            235.7871  YYY=             -1.3837  ZZZ=              2.2891  XYY=            111.7068
  XXY=            -23.5089  XXZ=            -18.0862  XZZ=            101.3190  YZZ=              2.2382
  YYZ=             -3.7066  XYZ=             -4.8989
 Hexadecapole moment (field-independent basis, Debye-Ang**3):
 XXXX=          -9612.1369 YYYY=           -753.8656 ZZZZ=           -379.1542 XXXY=            114.7383
 XXXZ=            112.9307 YYYX=             16.0695 YYYZ=              2.8709 ZZZX=             37.7666
 ZZZY=             -2.8541 XXYY=          -1863.2149 XXZZ=          -1842.9348 YYZZ=           -189.3685
 XXYZ=             10.4564 YYXZ=             31.8629 ZZXY=             11.0489
 N-N= 1.082632456838D+03 E-N=-3.845231130461D+03  KE= 7.115466157247D+02
 Unable to Open any file for archive entry.
 1\1\GINC-COMPUTE-0-1\SP\RM062X\Gen\C13H12F1I1N2\ZTAN64\14-Aug-2024\0\\
 # M062X gen pseudo=read int=(grid=ultrafine) nmr=giao guess=read geom=
 check\\pyrdz1.xyz\\0,1\C,0,-4.0741001254,0.8834161323,-0.4762187499\C,
 0,-3.2826955321,0.6002403897,0.8109502701\C,0,-3.7467670331,-0.7076729
 877,1.4721931673\C,0,-1.7969566282,0.5484591964,0.5188824656\N,0,-1.39
 92291553,-0.4137413779,-0.3284992321\N,0,-0.121085822,-0.5475820239,-0
 .6556765693\C,0,0.7981290734,0.2808953048,-0.129145813\C,0,2.200337422
 5,0.0843633144,-0.5597224034\C,0,3.0198890934,1.1816476094,-0.85846492
 86\C,0,4.3429237081,1.0286734885,-1.2663012153\C,0,4.865298455,-0.2583
 053979,-1.3763231041\I,0,6.8909485418,-0.5258903424,-2.0040024838\C,0,
 4.0920368281,-1.3775564232,-1.0837403317\C,0,2.7747273575,-1.187414203
 4,-0.6808109312\F,0,2.0613701114,-2.2779096571,-0.3652020163\C,0,0.450
 3219907,1.3016733285,0.7687004797\C,0,-0.8844475495,1.4405296032,1.094
 9917414\H,0,-5.1470996471,0.9248038265,-0.2650186366\H,0,-3.7762534728
 ,1.8361545376,-0.9251004231\H,0,-3.8906272608,0.0917050475,-1.20718928
 68\H,0,-3.4499458507,1.4266075863,1.5137218481\H,0,-3.5520020058,-1.55
 11460517,0.8048306223\H,0,-4.8193163827,-0.6692916037,1.6862828156\H,0
 ,-3.2158504132,-0.8884509671,2.4119949999\H,0,2.5995892887,2.180340922
 6,-0.7935712901\H,0,4.9468917538,1.8959053376,-1.5018397025\H,0,4.4802
 693497,-2.3856818967,-1.1502516357\H,0,1.2132400594,1.9416572587,1.199
 183888\H,0,-1.2244961549,2.2060700488,1.7855464557\\Version=ES64L-G16R
 evC.01\State=1-A\HF=-723.2625747\RMSD=1.990e-09\Dipole=-0.1522265,1.53
 0945,0.9144968\Quadrupole=1.3182566,0.717075,-2.0353316,-7.3145389,-6.
 9035967,2.9940829\PG=C01 [X(C13H12F1I1N2)]\\@
 The archive entry for this job was punched.


 If fifty million people say a stupid thing,
 it is still a stupid thing.
                   -- Anatole France
 Job cpu time:       0 days  1 hours 24 minutes  4.2 seconds.
 Elapsed time:       0 days  0 hours  5 minutes 32.5 seconds.
 File lengths (MBytes):  RWF=    189 Int=      0 D2E=      0 Chk=     31 Scr=      1
 Normal termination of Gaussian 16 at Wed Aug 14 20:24:42 2024.
 
 
-----Kestrel cluster job statistics-----
Time info:

real	24m39.446s
user	388m21.001s
sys	0m20.788s
 
Disk space usage:
31M	/scratch/362983.kestrel.chem.wisc.edu
