 Entering Gaussian System, Link 0=/share/apps/gaussian/g16/g16
 Initial command:
 /share/apps/gaussian/g16/l1.exe "/scratch/362960.kestrel.chem.wisc.edu/Gau-91205.inp" -scrdir="/scratch/362960.kestrel.chem.wisc.edu/"
 Entering Link 1 = /share/apps/gaussian/g16/l1.exe PID=     91206.
  
 Copyright (c) 1988-2019, Gaussian, Inc.  All Rights Reserved.
  
 This is part of the Gaussian(R) 16 program.  It is based on
 the Gaussian(R) 09 system (copyright 2009, Gaussian, Inc.),
 the Gaussian(R) 03 system (copyright 2003, Gaussian, Inc.),
 the Gaussian(R) 98 system (copyright 1998, Gaussian, Inc.),
 the Gaussian(R) 94 system (copyright 1995, Gaussian, Inc.),
 the Gaussian 92(TM) system (copyright 1992, Gaussian, Inc.),
 the Gaussian 90(TM) system (copyright 1990, Gaussian, Inc.),
 the Gaussian 88(TM) system (copyright 1988, Gaussian, Inc.),
 the Gaussian 86(TM) system (copyright 1986, Carnegie Mellon
 University), and the Gaussian 82(TM) system (copyright 1983,
 Carnegie Mellon University). Gaussian is a federally registered
 trademark of Gaussian, Inc.
  
 This software contains proprietary and confidential information,
 including trade secrets, belonging to Gaussian, Inc.
  
 This software is provided under written license and may be
 used, copied, transmitted, or stored only in accord with that
 written license.
  
 The following legend is applicable only to US Government
 contracts under FAR:
  
                    RESTRICTED RIGHTS LEGEND
  
 Use, reproduction and disclosure by the US Government is
 subject to restrictions as set forth in subparagraphs (a)
 and (c) of the Commercial Computer Software - Restricted
 Rights clause in FAR 52.227-19.
  
 Gaussian, Inc.
 340 Quinnipiac St., Bldg. 40, Wallingford CT 06492
  
  
 ---------------------------------------------------------------
 Warning -- This program may not be used in any manner that
 competes with the business of Gaussian, Inc. or will provide
 assistance to any competitor of Gaussian, Inc.  The licensee
 of this program is prohibited from giving any competitor of
 Gaussian, Inc. access to this program.  By using this program,
 the user acknowledges that Gaussian, Inc. is engaged in the
 business of creating and licensing software in the field of
 computational chemistry and represents and warrants to the
 licensee that it is not a competitor of Gaussian, Inc. and that
 it will not use this program in any manner prohibited above.
 ---------------------------------------------------------------
  

 Cite this work as:
 Gaussian 16, Revision C.01,
 M. J. Frisch, G. W. Trucks, H. B. Schlegel, G. E. Scuseria, 
 M. A. Robb, J. R. Cheeseman, G. Scalmani, V. Barone, 
 G. A. Petersson, H. Nakatsuji, X. Li, M. Caricato, A. V. Marenich, 
 J. Bloino, B. G. Janesko, R. Gomperts, B. Mennucci, H. P. Hratchian, 
 J. V. Ortiz, A. F. Izmaylov, J. L. Sonnenberg, D. Williams-Young, 
 F. Ding, F. Lipparini, F. Egidi, J. Goings, B. Peng, A. Petrone, 
 T. Henderson, D. Ranasinghe, V. G. Zakrzewski, J. Gao, N. Rega, 
 G. Zheng, W. Liang, M. Hada, M. Ehara, K. Toyota, R. Fukuda, 
 J. Hasegawa, M. Ishida, T. Nakajima, Y. Honda, O. Kitao, H. Nakai, 
 T. Vreven, K. Throssell, J. A. Montgomery, Jr., J. E. Peralta, 
 F. Ogliaro, M. J. Bearpark, J. J. Heyd, E. N. Brothers, K. N. Kudin, 
 V. N. Staroverov, T. A. Keith, R. Kobayashi, J. Normand, 
 K. Raghavachari, A. P. Rendell, J. C. Burant, S. S. Iyengar, 
 J. Tomasi, M. Cossi, J. M. Millam, M. Klene, C. Adamo, R. Cammi, 
 J. W. Ochterski, R. L. Martin, K. Morokuma, O. Farkas, 
 J. B. Foresman, and D. J. Fox, Gaussian, Inc., Wallingford CT, 2019.
 
 ******************************************
 Gaussian 16:  ES64L-G16RevC.01  3-Jul-2019
                14-Aug-2024 
 ******************************************
 %nprocs=16
 Will use up to   16 processors via shared memory.
 %mem=16GB
 %chk=pyrd13_conf-1.chk
 ----------------------------------------------------------------------
 # B3LYP/6-31G(d,p) symmetry=loose empiricaldispersion=GD3BJ int=(grid=
 ultrafine) opt freq=noraman
 ----------------------------------------------------------------------
 1/18=20,19=15,26=4,38=1/1,3;
 2/9=110,12=2,17=4,18=3,40=1/2;
 3/5=1,6=6,7=101,11=2,25=1,30=1,71=1,74=-5,75=-5,124=41/1,2,3;
 4//1;
 5/5=2,38=5/2;
 6/7=2,8=2,9=2,10=2,28=1/1;
 7//1,2,3,16;
 1/18=20,19=15,26=4/3(2);
 2/9=110/2;
 99//99;
 2/9=110/2;
 3/5=1,6=6,7=101,11=2,25=1,30=1,71=1,74=-5,75=-5,124=41/1,2,3;
 4/5=5,16=3,69=1/1;
 5/5=2,38=5/2;
 7//1,2,3,16;
 1/18=20,19=15,26=4/3(-5);
 2/9=110/2;
 6/7=2,8=2,9=2,10=2,19=2,28=1/1;
 99/9=1/99;
 ----------
 pyrd13.xyz
 ----------
 Symbolic Z-matrix:
 Charge =  0 Multiplicity = 1
 O                     4.8214   -0.0038   -0.2085 
 C                     3.8061    0.6955   -0.1705 
 C                     2.4191    0.1631   -0.1112 
 C                     2.168    -1.2137   -0.0879 
 C                     0.8452   -1.6559   -0.0376 
 C                    -0.2076   -0.7335   -0.0118 
 C                    -1.6659   -1.1723   -0.0111 
 C                    -2.5651   -0.0535    0.5422 
 C                    -2.2408    1.3097   -0.1003 
 N                    -0.8286    1.6381    0.1084 
 C                     0.1393    0.6317   -0.0224 
 N                     1.4158    1.0791   -0.0759 
 H                     3.873     1.7838   -0.1787 
 H                     2.9829   -1.925    -0.1136 
 H                     0.6394   -2.7165   -0.0316 
 H                    -1.9573   -1.3933   -1.0391 
 H                    -1.7987   -2.0929    0.5593 
 H                    -2.4313    0.0227    1.6231 
 H                    -3.6161   -0.2999    0.3885 
 H                    -2.888     2.1067    0.27 
 H                    -2.3734    1.2509   -1.1828 
 H                    -0.5373    2.579    -0.1087 
 

 GradGradGradGradGradGradGradGradGradGradGradGradGradGradGradGradGradGrad
 Berny optimization.
 Initialization pass.
                           ----------------------------
                           !    Initial Parameters    !
                           ! (Angstroms and Degrees)  !
 --------------------------                            --------------------------
 ! Name  Definition              Value          Derivative Info.                !
 --------------------------------------------------------------------------------
 ! R1    R(1,2)                  1.2334         estimate D2E/DX2                !
 ! R2    R(2,3)                  1.4869         estimate D2E/DX2                !
 ! R3    R(2,13)                 1.0904         estimate D2E/DX2                !
 ! R4    R(3,4)                  1.3997         estimate D2E/DX2                !
 ! R5    R(3,12)                 1.359          estimate D2E/DX2                !
 ! R6    R(4,5)                  1.3957         estimate D2E/DX2                !
 ! R7    R(4,14)                 1.082          estimate D2E/DX2                !
 ! R8    R(5,6)                  1.4            estimate D2E/DX2                !
 ! R9    R(5,15)                 1.0804         estimate D2E/DX2                !
 ! R10   R(6,7)                  1.5229         estimate D2E/DX2                !
 ! R11   R(6,11)                 1.4086         estimate D2E/DX2                !
 ! R12   R(7,8)                  1.5383         estimate D2E/DX2                !
 ! R13   R(7,16)                 1.0911         estimate D2E/DX2                !
 ! R14   R(7,17)                 1.0911         estimate D2E/DX2                !
 ! R15   R(8,9)                  1.5415         estimate D2E/DX2                !
 ! R16   R(8,18)                 1.0918         estimate D2E/DX2                !
 ! R17   R(8,19)                 1.0904         estimate D2E/DX2                !
 ! R18   R(9,10)                 1.4648         estimate D2E/DX2                !
 ! R19   R(9,20)                 1.0914         estimate D2E/DX2                !
 ! R20   R(9,21)                 1.0922         estimate D2E/DX2                !
 ! R21   R(10,11)                1.4024         estimate D2E/DX2                !
 ! R22   R(10,22)                1.0086         estimate D2E/DX2                !
 ! R23   R(11,12)                1.3537         estimate D2E/DX2                !
 ! A1    A(1,2,3)              124.4786         estimate D2E/DX2                !
 ! A2    A(1,2,13)             121.0071         estimate D2E/DX2                !
 ! A3    A(3,2,13)             114.5143         estimate D2E/DX2                !
 ! A4    A(2,3,4)              121.3472         estimate D2E/DX2                !
 ! A5    A(2,3,12)             116.6389         estimate D2E/DX2                !
 ! A6    A(4,3,12)             122.0134         estimate D2E/DX2                !
 ! A7    A(3,4,5)              118.8347         estimate D2E/DX2                !
 ! A8    A(3,4,14)             120.74           estimate D2E/DX2                !
 ! A9    A(5,4,14)             120.4246         estimate D2E/DX2                !
 ! A10   A(4,5,6)              120.3094         estimate D2E/DX2                !
 ! A11   A(4,5,15)             119.4572         estimate D2E/DX2                !
 ! A12   A(6,5,15)             120.2286         estimate D2E/DX2                !
 ! A13   A(5,6,7)              122.0251         estimate D2E/DX2                !
 ! A14   A(5,6,11)             116.951          estimate D2E/DX2                !
 ! A15   A(7,6,11)             121.0029         estimate D2E/DX2                !
 ! A16   A(6,7,8)              110.5088         estimate D2E/DX2                !
 ! A17   A(6,7,16)             108.2803         estimate D2E/DX2                !
 ! A18   A(6,7,17)             111.0942         estimate D2E/DX2                !
 ! A19   A(8,7,16)             109.2731         estimate D2E/DX2                !
 ! A20   A(8,7,17)             110.7606         estimate D2E/DX2                !
 ! A21   A(16,7,17)            106.8062         estimate D2E/DX2                !
 ! A22   A(7,8,9)              111.7324         estimate D2E/DX2                !
 ! A23   A(7,8,18)             109.5853         estimate D2E/DX2                !
 ! A24   A(7,8,19)             110.3878         estimate D2E/DX2                !
 ! A25   A(9,8,18)             108.9735         estimate D2E/DX2                !
 ! A26   A(9,8,19)             110.1123         estimate D2E/DX2                !
 ! A27   A(18,8,19)            105.8693         estimate D2E/DX2                !
 ! A28   A(8,9,10)             109.98           estimate D2E/DX2                !
 ! A29   A(8,9,20)             112.3092         estimate D2E/DX2                !
 ! A30   A(8,9,21)             109.874          estimate D2E/DX2                !
 ! A31   A(10,9,20)            111.0777         estimate D2E/DX2                !
 ! A32   A(10,9,21)            105.6839         estimate D2E/DX2                !
 ! A33   A(20,9,21)            107.6738         estimate D2E/DX2                !
 ! A34   A(9,10,11)            119.4194         estimate D2E/DX2                !
 ! A35   A(9,10,22)            117.1881         estimate D2E/DX2                !
 ! A36   A(11,10,22)           116.7463         estimate D2E/DX2                !
 ! A37   A(6,11,10)            121.6566         estimate D2E/DX2                !
 ! A38   A(6,11,12)            123.5619         estimate D2E/DX2                !
 ! A39   A(10,11,12)           114.6655         estimate D2E/DX2                !
 ! A40   A(3,12,11)            118.3216         estimate D2E/DX2                !
 ! D1    D(1,2,3,4)              0.2972         estimate D2E/DX2                !
 ! D2    D(1,2,3,12)          -179.9466         estimate D2E/DX2                !
 ! D3    D(13,2,3,4)          -179.7064         estimate D2E/DX2                !
 ! D4    D(13,2,3,12)            0.0498         estimate D2E/DX2                !
 ! D5    D(2,3,4,5)           -179.7372         estimate D2E/DX2                !
 ! D6    D(2,3,4,14)            -0.056          estimate D2E/DX2                !
 ! D7    D(12,3,4,5)             0.5197         estimate D2E/DX2                !
 ! D8    D(12,3,4,14)         -179.799          estimate D2E/DX2                !
 ! D9    D(2,3,12,11)          179.9603         estimate D2E/DX2                !
 ! D10   D(4,3,12,11)           -0.2853         estimate D2E/DX2                !
 ! D11   D(3,4,5,6)              0.0321         estimate D2E/DX2                !
 ! D12   D(3,4,5,15)           179.2467         estimate D2E/DX2                !
 ! D13   D(14,4,5,6)          -179.6502         estimate D2E/DX2                !
 ! D14   D(14,4,5,15)           -0.4356         estimate D2E/DX2                !
 ! D15   D(4,5,6,7)            177.5953         estimate D2E/DX2                !
 ! D16   D(4,5,6,11)            -0.7544         estimate D2E/DX2                !
 ! D17   D(15,5,6,7)            -1.6133         estimate D2E/DX2                !
 ! D18   D(15,5,6,11)         -179.963          estimate D2E/DX2                !
 ! D19   D(5,6,7,8)            158.6569         estimate D2E/DX2                !
 ! D20   D(5,6,7,16)           -81.6929         estimate D2E/DX2                !
 ! D21   D(5,6,7,17)            35.295          estimate D2E/DX2                !
 ! D22   D(11,6,7,8)           -23.0594         estimate D2E/DX2                !
 ! D23   D(11,6,7,16)           96.5909         estimate D2E/DX2                !
 ! D24   D(11,6,7,17)         -146.4213         estimate D2E/DX2                !
 ! D25   D(5,6,11,10)         -174.8457         estimate D2E/DX2                !
 ! D26   D(5,6,11,12)            1.0282         estimate D2E/DX2                !
 ! D27   D(7,6,11,10)            6.7866         estimate D2E/DX2                !
 ! D28   D(7,6,11,12)         -177.3394         estimate D2E/DX2                !
 ! D29   D(6,7,8,9)             47.6444         estimate D2E/DX2                !
 ! D30   D(6,7,8,18)           -73.2409         estimate D2E/DX2                !
 ! D31   D(6,7,8,19)           170.5361         estimate D2E/DX2                !
 ! D32   D(16,7,8,9)           -71.4056         estimate D2E/DX2                !
 ! D33   D(16,7,8,18)          167.7091         estimate D2E/DX2                !
 ! D34   D(16,7,8,19)           51.4861         estimate D2E/DX2                !
 ! D35   D(17,7,8,9)           171.1994         estimate D2E/DX2                !
 ! D36   D(17,7,8,18)           50.3141         estimate D2E/DX2                !
 ! D37   D(17,7,8,19)          -65.9089         estimate D2E/DX2                !
 ! D38   D(7,8,9,10)           -56.978          estimate D2E/DX2                !
 ! D39   D(7,8,9,20)           178.7719         estimate D2E/DX2                !
 ! D40   D(7,8,9,21)            58.9527         estimate D2E/DX2                !
 ! D41   D(18,8,9,10)           64.2626         estimate D2E/DX2                !
 ! D42   D(18,8,9,20)          -59.9875         estimate D2E/DX2                !
 ! D43   D(18,8,9,21)         -179.8067         estimate D2E/DX2                !
 ! D44   D(19,8,9,10)          179.9736         estimate D2E/DX2                !
 ! D45   D(19,8,9,20)           55.7235         estimate D2E/DX2                !
 ! D46   D(19,8,9,21)          -64.0957         estimate D2E/DX2                !
 ! D47   D(8,9,10,11)           40.9409         estimate D2E/DX2                !
 ! D48   D(8,9,10,22)         -168.5412         estimate D2E/DX2                !
 ! D49   D(20,9,10,11)         165.9011         estimate D2E/DX2                !
 ! D50   D(20,9,10,22)         -43.5811         estimate D2E/DX2                !
 ! D51   D(21,9,10,11)         -77.6008         estimate D2E/DX2                !
 ! D52   D(21,9,10,22)          72.9171         estimate D2E/DX2                !
 ! D53   D(9,10,11,6)          -16.3601         estimate D2E/DX2                !
 ! D54   D(9,10,11,12)         167.4228         estimate D2E/DX2                !
 ! D55   D(22,10,11,6)        -167.0047         estimate D2E/DX2                !
 ! D56   D(22,10,11,12)         16.7782         estimate D2E/DX2                !
 ! D57   D(6,11,12,3)           -0.5151         estimate D2E/DX2                !
 ! D58   D(10,11,12,3)         175.6206         estimate D2E/DX2                !
 --------------------------------------------------------------------------------
 Trust Radius=3.00D-01 FncErr=1.00D-07 GrdErr=1.00D-06 EigMax=2.50D+02 EigMin=1.00D-04
 Number of steps in this run=    131 maximum allowed number of steps=    132.
 GradGradGradGradGradGradGradGradGradGradGradGradGradGradGradGradGradGrad

                          Input orientation:                          
 ---------------------------------------------------------------------
 Center     Atomic      Atomic             Coordinates (Angstroms)
 Number     Number       Type             X           Y           Z
 ---------------------------------------------------------------------
      1          8           0        4.821400   -0.003800   -0.208500
      2          6           0        3.806100    0.695500   -0.170500
      3          6           0        2.419100    0.163100   -0.111200
      4          6           0        2.168000   -1.213700   -0.087900
      5          6           0        0.845200   -1.655900   -0.037600
      6          6           0       -0.207600   -0.733500   -0.011800
      7          6           0       -1.665900   -1.172300   -0.011100
      8          6           0       -2.565100   -0.053500    0.542200
      9          6           0       -2.240800    1.309700   -0.100300
     10          7           0       -0.828600    1.638100    0.108400
     11          6           0        0.139300    0.631700   -0.022400
     12          7           0        1.415800    1.079100   -0.075900
     13          1           0        3.873000    1.783800   -0.178700
     14          1           0        2.982900   -1.925000   -0.113600
     15          1           0        0.639400   -2.716500   -0.031600
     16          1           0       -1.957300   -1.393300   -1.039100
     17          1           0       -1.798700   -2.092900    0.559300
     18          1           0       -2.431300    0.022700    1.623100
     19          1           0       -3.616100   -0.299900    0.388500
     20          1           0       -2.888000    2.106700    0.270000
     21          1           0       -2.373400    1.250900   -1.182800
     22          1           0       -0.537300    2.579000   -0.108700
 ---------------------------------------------------------------------
                    Distance matrix (angstroms):
                    1          2          3          4          5
     1  O    0.000000
     2  C    1.233409   0.000000
     3  C    2.410056   1.486854   0.000000
     4  C    2.918721   2.516990   1.399704   0.000000
     5  C    4.309154   3.783342   2.406520   1.395661   0.000000
     6  C    5.085469   4.263451   2.777287   2.424842   1.399955
     7  C    6.594651   5.784191   4.298900   3.834893   2.557380
     8  C    7.424716   6.454543   5.031510   4.913789   3.812348
     9  C    7.184125   6.078418   4.798904   5.079884   4.280433
    10  N    5.892263   4.737797   3.573710   4.141366   3.697750
    11  C    4.728695   3.670344   2.329154   2.743249   2.394084
    12  N    3.576083   2.422732   1.359012   2.413065   2.794150
    13  H    2.023824   1.090385   2.178314   3.449678   4.584650
    14  H    2.660845   2.747347   2.162877   1.081975   2.155911
    15  H    4.987901   4.657148   3.386113   2.144340   1.080399
    16  H    6.969317   6.191472   4.736693   4.237350   2.987636
    17  H    6.984238   6.302505   4.830004   4.114191   2.745445
    18  H    7.480449   6.524938   5.153047   5.060609   4.038697
    19  H    8.463775   7.509484   6.073525   5.875185   4.682253
    20  H    8.007373   6.855399   5.664645   6.059396   5.309290
    21  H    7.368085   6.286449   5.029880   5.281796   4.485572
    22  H    5.949494   4.734608   3.817968   4.658718   4.455417
                    6          7          8          9         10
     6  C    0.000000
     7  C    1.522887   0.000000
     8  C    2.515377   1.538316   0.000000
     9  C    2.883817   2.549273   1.541522   0.000000
    10  N    2.454501   2.934911   2.462748   1.464825   0.000000
    11  C    1.408625   2.552115   2.846410   2.476011   1.402419
    12  N    2.434144   3.817051   4.184781   3.663945   2.320297
    13  H    4.797494   6.280607   6.733832   6.132656   4.712610
    14  H    3.407246   4.710457   5.891765   6.144144   5.222308
    15  H    2.156407   2.774776   4.205905   4.950814   4.597517
    16  H    2.133572   1.091118   2.159860   2.875400   3.432216
    17  H    2.169268   1.091099   2.178718   3.494025   3.881336
    18  H    2.861744   2.164364   1.091812   2.159344   2.733584
    19  H    3.459208   2.173486   1.090384   2.172829   3.406531
    20  H    3.915443   3.510611   2.201095   1.091421   2.118214
    21  H    3.162242   2.783044   2.171136   1.092175   2.050251
    22  H    3.330277   3.918611   3.386104   2.124407   1.008603
                   11         12         13         14         15
    11  C    0.000000
    12  N    1.353692   0.000000
    13  H    3.910534   2.558320   0.000000
    14  H    3.825061   3.388486   3.814671   0.000000
    15  H    3.385355   3.874447   5.543510   2.474912   0.000000
    16  H    3.087076   4.291657   6.695271   5.054189   3.083629
    17  H    3.393768   4.560490   6.909532   4.831634   2.585028
    18  H    3.112320   4.336215   6.789120   6.010260   4.435138
    19  H    3.890983   5.238065   7.794238   6.814679   4.911794
    20  H    3.380188   4.438277   6.783562   7.132266   5.983040
    21  H    2.836124   3.951301   6.348993   6.318186   5.112973
    22  H    2.063301   2.462798   4.481963   5.716454   5.425209
                   16         17         18         19         20
    16  H    0.000000
    17  H    1.751992   0.000000
    18  H    3.052383   2.451044   0.000000
    19  H    2.446463   2.558704   1.741281   0.000000
    20  H    3.850967   4.348208   2.526363   2.517120   0.000000
    21  H    2.680594   3.813947   3.063479   2.533430   1.762905
    22  H    4.319862   4.885080   3.622297   4.244324   2.427400
                   21         22
    21  H    0.000000
    22  H    2.507749   0.000000
 Stoichiometry    C9H10N2O
 Framework group  C1[X(C9H10N2O)]
 Deg. of freedom    60
 Full point group                 C1      NOp   1
 Largest Abelian subgroup         C1      NOp   1
 Largest concise Abelian subgroup C1      NOp   1
                         Standard orientation:                         
 ---------------------------------------------------------------------
 Center     Atomic      Atomic             Coordinates (Angstroms)
 Number     Number       Type             X           Y           Z
 ---------------------------------------------------------------------
      1          8           0        4.234796   -0.102015   -0.037090
      2          6           0        3.190483   -0.758276   -0.031562
      3          6           0        1.825860   -0.168465   -0.005807
      4          6           0        1.631848    1.217656    0.008327
      5          6           0        0.327976    1.714554    0.038007
      6          6           0       -0.762451    0.836722    0.053928
      7          6           0       -2.198976    1.334809    0.140474
      8          6           0       -3.172829    0.264745   -0.382010
      9          6           0       -2.871847   -1.122829    0.218272
     10          7           0       -1.487969   -1.504669   -0.072912
     11          6           0       -0.473060   -0.541488    0.022079
     12          7           0        0.784574   -1.041747   -0.001966
     13          1           0        3.212014   -1.848356   -0.045744
     14          1           0        2.476070    1.894350    0.001678
     15          1           0        0.166826    2.782609    0.061500
     16          1           0       -2.425023    1.547525    1.186511
     17          1           0       -2.323587    2.270993   -0.405903
     18          1           0       -3.100790    0.204163   -1.469758
     19          1           0       -4.202756    0.550947   -0.166886
     20          1           0       -3.570927   -1.885302   -0.129752
     21          1           0       -2.943333   -1.079709    1.307252
     22          1           0       -1.225120   -2.460754    0.111733
 ---------------------------------------------------------------------
 Rotational constants (GHZ):           2.5449895           0.5646792           0.4692386
 Standard basis: 6-31G(d,p) (6D, 7F)
 There are   230 symmetry adapted cartesian basis functions of A   symmetry.
 There are   230 symmetry adapted basis functions of A   symmetry.
   230 basis functions,   406 primitive gaussians,   230 cartesian basis functions
    43 alpha electrons       43 beta electrons
       nuclear repulsion energy       662.3395010867 Hartrees.
 NAtoms=   22 NActive=   22 NUniq=   22 SFac= 1.00D+00 NAtFMM=   60 NAOKFM=F Big=F
 Integral buffers will be    131072 words long.
 Raffenetti 2 integral format.
 Two-electron integral symmetry is turned on.
 Nuclear repulsion after empirical dispersion term =      662.2973420667 Hartrees.
 One-electron integrals computed using PRISM.
 NBasis=   230 RedAO= T EigKep=  6.61D-04  NBF=   230
 NBsUse=   230 1.00D-06 EigRej= -1.00D+00 NBFU=   230
 ExpMin= 1.61D-01 ExpMax= 5.48D+03 ExpMxC= 8.25D+02 IAcc=3 IRadAn=         5 AccDes= 0.00D+00
 Harris functional with IExCor=  402 and IRadAn=       5 diagonalized for initial guess.
 HarFok:  IExCor=  402 AccDes= 0.00D+00 IRadAn=         5 IDoV= 1 UseB2=F ITyADJ=14
 ICtDFT=  3500011 ScaDFX=  1.000000  1.000000  1.000000  1.000000
 FoFCou: FMM=F IPFlag=           0 FMFlag=      100000 FMFlg1=           0
         NFxFlg=           0 DoJE=T BraDBF=F KetDBF=T FulRan=T
         wScrn=  0.000000 ICntrl=       500 IOpCl=  0 I1Cent=   200000004 NGrid=           0
         NMat0=    1 NMatS0=      1 NMatT0=    0 NMatD0=    1 NMtDS0=    0 NMtDT0=    0
 Petite list used in FoFCou.
 Requested convergence on RMS density matrix=1.00D-08 within 128 cycles.
 Requested convergence on MAX density matrix=1.00D-06.
 Requested convergence on             energy=1.00D-06.
 No special actions if energy rises.
 Integral accuracy reduced to 1.0D-05 until final iterations.
 Initial convergence to 1.0D-05 achieved.  Increase integral accuracy.
 SCF Done:  E(RB3LYP) =  -533.765531749     A.U. after   15 cycles
            NFock= 15  Conv=0.58D-08     -V/T= 2.0099

 **********************************************************************

            Population analysis using the SCF Density.

 **********************************************************************

 Orbital symmetries:
       Occupied  (A) (A) (A) (A) (A) (A) (A) (A) (A) (A) (A) (A)
                 (A) (A) (A) (A) (A) (A) (A) (A) (A) (A) (A) (A)
                 (A) (A) (A) (A) (A) (A) (A) (A) (A) (A) (A) (A)
                 (A) (A) (A) (A) (A) (A) (A)
       Virtual   (A) (A) (A) (A) (A) (A) (A) (A) (A) (A) (A) (A)
                 (A) (A) (A) (A) (A) (A) (A) (A) (A) (A) (A) (A)
                 (A) (A) (A) (A) (A) (A) (A) (A) (A) (A) (A) (A)
                 (A) (A) (A) (A) (A) (A) (A) (A) (A) (A) (A) (A)
                 (A) (A) (A) (A) (A) (A) (A) (A) (A) (A) (A) (A)
                 (A) (A) (A) (A) (A) (A) (A) (A) (A) (A) (A) (A)
                 (A) (A) (A) (A) (A) (A) (A) (A) (A) (A) (A) (A)
                 (A) (A) (A) (A) (A) (A) (A) (A) (A) (A) (A) (A)
                 (A) (A) (A) (A) (A) (A) (A) (A) (A) (A) (A) (A)
                 (A) (A) (A) (A) (A) (A) (A) (A) (A) (A) (A) (A)
                 (A) (A) (A) (A) (A) (A) (A) (A) (A) (A) (A) (A)
                 (A) (A) (A) (A) (A) (A) (A) (A) (A) (A) (A) (A)
                 (A) (A) (A) (A) (A) (A) (A) (A) (A) (A) (A) (A)
                 (A) (A) (A) (A) (A) (A) (A) (A) (A) (A) (A) (A)
                 (A) (A) (A) (A) (A) (A) (A) (A) (A) (A) (A) (A)
                 (A) (A) (A) (A) (A) (A) (A)
 The electronic state is 1-A.
 Alpha  occ. eigenvalues --  -19.14024 -14.34921 -14.33018 -10.26595 -10.26385
 Alpha  occ. eigenvalues --  -10.23154 -10.22637 -10.20973 -10.20722 -10.20557
 Alpha  occ. eigenvalues --  -10.20156 -10.19223  -1.02457  -0.96514  -0.90424
 Alpha  occ. eigenvalues --   -0.82534  -0.77723  -0.77057  -0.68921  -0.65615
 Alpha  occ. eigenvalues --   -0.63812  -0.60339  -0.55838  -0.53233  -0.50716
 Alpha  occ. eigenvalues --   -0.48716  -0.46894  -0.44856  -0.44576  -0.43469
 Alpha  occ. eigenvalues --   -0.42186  -0.41482  -0.40885  -0.40199  -0.37938
 Alpha  occ. eigenvalues --   -0.35877  -0.35272  -0.34600  -0.30260  -0.27383
 Alpha  occ. eigenvalues --   -0.27038  -0.24587  -0.20871
 Alpha virt. eigenvalues --   -0.06428  -0.01080   0.04405   0.07971   0.10461
 Alpha virt. eigenvalues --    0.11567   0.12351   0.13821   0.15249   0.15599
 Alpha virt. eigenvalues --    0.16007   0.16489   0.17762   0.18903   0.19729
 Alpha virt. eigenvalues --    0.20005   0.22853   0.24172   0.24735   0.27837
 Alpha virt. eigenvalues --    0.30393   0.32170   0.33893   0.35168   0.38663
 Alpha virt. eigenvalues --    0.45380   0.47659   0.49830   0.51130   0.52003
 Alpha virt. eigenvalues --    0.52303   0.53245   0.54187   0.56021   0.58699
 Alpha virt. eigenvalues --    0.59554   0.60650   0.61421   0.62056   0.62716
 Alpha virt. eigenvalues --    0.63659   0.64366   0.65711   0.68059   0.69932
 Alpha virt. eigenvalues --    0.70274   0.74116   0.74726   0.77902   0.79923
 Alpha virt. eigenvalues --    0.80168   0.81663   0.82177   0.82540   0.83225
 Alpha virt. eigenvalues --    0.84554   0.86374   0.87270   0.88103   0.88857
 Alpha virt. eigenvalues --    0.91005   0.91320   0.93140   0.95196   0.95921
 Alpha virt. eigenvalues --    0.96306   0.98790   1.00052   1.01689   1.06869
 Alpha virt. eigenvalues --    1.08973   1.09957   1.15559   1.18306   1.21289
 Alpha virt. eigenvalues --    1.22669   1.26217   1.27469   1.29912   1.30474
 Alpha virt. eigenvalues --    1.33184   1.36040   1.37589   1.39482   1.44197
 Alpha virt. eigenvalues --    1.45986   1.48631   1.54275   1.57024   1.58520
 Alpha virt. eigenvalues --    1.59215   1.62875   1.65931   1.68317   1.70641
 Alpha virt. eigenvalues --    1.74833   1.75460   1.76218   1.78490   1.79129
 Alpha virt. eigenvalues --    1.81167   1.82307   1.84462   1.85437   1.86365
 Alpha virt. eigenvalues --    1.87637   1.91036   1.92686   1.93141   1.96618
 Alpha virt. eigenvalues --    1.98890   1.99964   2.01899   2.02817   2.05568
 Alpha virt. eigenvalues --    2.08892   2.10171   2.10957   2.13352   2.14622
 Alpha virt. eigenvalues --    2.16845   2.18499   2.20467   2.22731   2.26684
 Alpha virt. eigenvalues --    2.27019   2.30575   2.31568   2.32956   2.34279
 Alpha virt. eigenvalues --    2.35849   2.38113   2.38766   2.42489   2.42765
 Alpha virt. eigenvalues --    2.46509   2.49953   2.50981   2.51822   2.53178
 Alpha virt. eigenvalues --    2.56266   2.57268   2.59722   2.61077   2.62751
 Alpha virt. eigenvalues --    2.65919   2.68427   2.70002   2.71546   2.72578
 Alpha virt. eigenvalues --    2.72796   2.76558   2.79409   2.82085   2.84095
 Alpha virt. eigenvalues --    2.85043   2.88917   2.92110   2.93837   2.97902
 Alpha virt. eigenvalues --    2.99375   3.04725   3.12136   3.22898   3.25829
 Alpha virt. eigenvalues --    3.27078   3.30204   3.31166   3.31702   3.41949
 Alpha virt. eigenvalues --    3.45302   3.46070   3.49353   3.56696   3.73449
 Alpha virt. eigenvalues --    3.92987   4.08735   4.12047   4.15887   4.25010
 Alpha virt. eigenvalues --    4.29283   4.37005   4.42823   4.49429   4.57009
 Alpha virt. eigenvalues --    4.64042   4.78568
          Condensed to atoms (all electrons):
               1          2          3          4          5          6
     1  O    7.988608   0.547947  -0.079554   0.006942   0.000809  -0.000018
     2  C    0.547947   4.649761   0.276623  -0.048611   0.005904   0.000588
     3  C   -0.079554   0.276623   4.970375   0.458175  -0.029522  -0.033281
     4  C    0.006942  -0.048611   0.458175   5.016012   0.464501  -0.023638
     5  C    0.000809   0.005904  -0.029522   0.464501   4.925337   0.530031
     6  C   -0.000018   0.000588  -0.033281  -0.023638   0.530031   4.893351
     7  C   -0.000000   0.000006   0.000060   0.006822  -0.062244   0.327517
     8  C    0.000000   0.000000   0.000030  -0.000228   0.003674  -0.026935
     9  C   -0.000000   0.000001  -0.000118  -0.000008   0.000549  -0.010237
    10  N    0.000000  -0.000146   0.002465   0.000783   0.004179  -0.084378
    11  C   -0.000064   0.001342  -0.036308  -0.039820  -0.022611   0.467704
    12  N    0.001931  -0.045882   0.393642  -0.061519  -0.048200  -0.046737
    13  H   -0.055029   0.348419  -0.109845   0.010321   0.000069  -0.000049
    14  H    0.009735  -0.005974  -0.035441   0.360832  -0.038016   0.004422
    15  H    0.000004  -0.000115   0.004574  -0.044412   0.374576  -0.047343
    16  H   -0.000000   0.000000   0.000037  -0.000148  -0.002311  -0.033739
    17  H    0.000000   0.000000   0.000020  -0.000007  -0.003924  -0.028458
    18  H    0.000000  -0.000000  -0.000006   0.000007   0.000004  -0.002766
    19  H    0.000000   0.000000  -0.000000   0.000002  -0.000159   0.003527
    20  H    0.000000  -0.000000   0.000002   0.000000   0.000003   0.000182
    21  H   -0.000000  -0.000000   0.000011  -0.000010  -0.000092   0.002338
    22  H    0.000000  -0.000032   0.000165   0.000031  -0.000033   0.007487
               7          8          9         10         11         12
     1  O   -0.000000   0.000000  -0.000000   0.000000  -0.000064   0.001931
     2  C    0.000006   0.000000   0.000001  -0.000146   0.001342  -0.045882
     3  C    0.000060   0.000030  -0.000118   0.002465  -0.036308   0.393642
     4  C    0.006822  -0.000228  -0.000008   0.000783  -0.039820  -0.061519
     5  C   -0.062244   0.003674   0.000549   0.004179  -0.022611  -0.048200
     6  C    0.327517  -0.026935  -0.010237  -0.084378   0.467704  -0.046737
     7  C    5.035329   0.353954  -0.041154  -0.013007  -0.039298   0.006566
     8  C    0.353954   4.935333   0.369913  -0.046071  -0.014827  -0.000223
     9  C   -0.041154   0.369913   4.798506   0.287070  -0.032361   0.003489
    10  N   -0.013007  -0.046071   0.287070   6.955716   0.301353  -0.091228
    11  C   -0.039298  -0.014827  -0.032361   0.301353   4.542667   0.432880
    12  N    0.006566  -0.000223   0.003489  -0.091228   0.432880   7.019257
    13  H   -0.000001   0.000000   0.000000  -0.000021  -0.000028   0.011270
    14  H   -0.000100   0.000002  -0.000000   0.000011   0.000655   0.005170
    15  H   -0.008741   0.000148   0.000004  -0.000102   0.005565  -0.000044
    16  H    0.377868  -0.037114  -0.004530   0.000532  -0.002985  -0.000151
    17  H    0.372285  -0.028703   0.004514   0.000072   0.002326  -0.000118
    18  H   -0.040293   0.385329  -0.038069   0.000610  -0.000018  -0.000132
    19  H   -0.028744   0.371907  -0.030469   0.003414   0.000800   0.000006
    20  H    0.004217  -0.022112   0.384666  -0.033462   0.002783  -0.000099
    21  H   -0.008145  -0.047110   0.386670  -0.063991  -0.001676  -0.000032
    22  H   -0.000351   0.004228  -0.032615   0.336339  -0.018791   0.004257
              13         14         15         16         17         18
     1  O   -0.055029   0.009735   0.000004  -0.000000   0.000000   0.000000
     2  C    0.348419  -0.005974  -0.000115   0.000000   0.000000  -0.000000
     3  C   -0.109845  -0.035441   0.004574   0.000037   0.000020  -0.000006
     4  C    0.010321   0.360832  -0.044412  -0.000148  -0.000007   0.000007
     5  C    0.000069  -0.038016   0.374576  -0.002311  -0.003924   0.000004
     6  C   -0.000049   0.004422  -0.047343  -0.033739  -0.028458  -0.002766
     7  C   -0.000001  -0.000100  -0.008741   0.377868   0.372285  -0.040293
     8  C    0.000000   0.000002   0.000148  -0.037114  -0.028703   0.385329
     9  C    0.000000  -0.000000   0.000004  -0.004530   0.004514  -0.038069
    10  N   -0.000021   0.000011  -0.000102   0.000532   0.000072   0.000610
    11  C   -0.000028   0.000655   0.005565  -0.002985   0.002326  -0.000018
    12  N    0.011270   0.005170  -0.000044  -0.000151  -0.000118  -0.000132
    13  H    0.712410   0.000353   0.000004   0.000000   0.000000   0.000000
    14  H    0.000353   0.593061  -0.005403   0.000001  -0.000008   0.000000
    15  H    0.000004  -0.005403   0.624006   0.000666   0.003937  -0.000002
    16  H    0.000000   0.000001   0.000666   0.609501  -0.034863   0.005530
    17  H    0.000000  -0.000008   0.003937  -0.034863   0.605309  -0.005170
    18  H    0.000000   0.000000  -0.000002   0.005530  -0.005170   0.606467
    19  H    0.000000  -0.000000  -0.000003  -0.005872  -0.001135  -0.034173
    20  H    0.000000   0.000000  -0.000000  -0.000034  -0.000148  -0.004895
    21  H    0.000000   0.000000  -0.000000   0.003045   0.000084   0.006247
    22  H    0.000049  -0.000001   0.000004   0.000018   0.000016   0.000047
              19         20         21         22
     1  O    0.000000   0.000000  -0.000000   0.000000
     2  C    0.000000  -0.000000  -0.000000  -0.000032
     3  C   -0.000000   0.000002   0.000011   0.000165
     4  C    0.000002   0.000000  -0.000010   0.000031
     5  C   -0.000159   0.000003  -0.000092  -0.000033
     6  C    0.003527   0.000182   0.002338   0.007487
     7  C   -0.028744   0.004217  -0.008145  -0.000351
     8  C    0.371907  -0.022112  -0.047110   0.004228
     9  C   -0.030469   0.384666   0.386670  -0.032615
    10  N    0.003414  -0.033462  -0.063991   0.336339
    11  C    0.000800   0.002783  -0.001676  -0.018791
    12  N    0.000006  -0.000099  -0.000032   0.004257
    13  H    0.000000   0.000000   0.000000   0.000049
    14  H   -0.000000   0.000000   0.000000  -0.000001
    15  H   -0.000003  -0.000000  -0.000000   0.000004
    16  H   -0.005872  -0.000034   0.003045   0.000018
    17  H   -0.001135  -0.000148   0.000084   0.000016
    18  H   -0.034173  -0.004895   0.006247   0.000047
    19  H    0.623146  -0.002663  -0.001499  -0.000134
    20  H   -0.002663   0.610171  -0.045836  -0.003369
    21  H   -0.001499  -0.045836   0.665101  -0.000088
    22  H   -0.000134  -0.003369  -0.000088   0.441207
 Mulliken charges:
               1
     1  O   -0.421311
     2  C    0.270168
     3  C    0.217895
     4  C   -0.106027
     5  C   -0.102523
     6  C    0.100435
     7  C   -0.242547
     8  C   -0.201194
     9  C   -0.045821
    10  N   -0.560138
    11  C    0.450714
    12  N   -0.584104
    13  H    0.082078
    14  H    0.110702
    15  H    0.092678
    16  H    0.124547
    17  H    0.113972
    18  H    0.121284
    19  H    0.102049
    20  H    0.110594
    21  H    0.104985
    22  H    0.261566
 Sum of Mulliken charges =  -0.00000
 Mulliken charges with hydrogens summed into heavy atoms:
               1
     1  O   -0.421311
     2  C    0.352245
     3  C    0.217895
     4  C    0.004675
     5  C   -0.009845
     6  C    0.100435
     7  C   -0.004029
     8  C    0.022139
     9  C    0.169758
    10  N   -0.298572
    11  C    0.450714
    12  N   -0.584104
 Electronic spatial extent (au):  <R**2>=           2304.1282
 Charge=             -0.0000 electrons
 Dipole moment (field-independent basis, Debye):
    X=             -5.5128    Y=              0.3938    Z=              0.5670  Tot=              5.5559
 Quadrupole moment (field-independent basis, Debye-Ang):
   XX=            -78.5889   YY=            -62.2474   ZZ=            -70.3106
   XY=              0.6218   XZ=             -0.6123   YZ=             -0.9857
 Traceless Quadrupole moment (field-independent basis, Debye-Ang):
   XX=             -8.2066   YY=              8.1349   ZZ=              0.0717
   XY=              0.6218   XZ=             -0.6123   YZ=             -0.9857
 Octapole moment (field-independent basis, Debye-Ang**2):
  XXX=            -97.6072  YYY=             -6.0104  ZZZ=              0.2593  XYY=             -1.0271
  XXY=            -11.4340  XXZ=              1.0870  XZZ=              3.6088  YZZ=             -1.8724
  YYZ=              1.8191  XYZ=              1.4216
 Hexadecapole moment (field-independent basis, Debye-Ang**3):
 XXXX=          -2663.7462 YYYY=           -528.6607 ZZZZ=            -97.6545 XXXY=             -3.5470
 XXXZ=              4.6365 YYYX=             25.0280 YYYZ=             -5.1179 ZZZX=             -1.5114
 ZZZY=             -0.5805 XXYY=           -442.0050 XXZZ=           -395.0447 YYZZ=           -120.8744
 XXYZ=             -0.4376 YYXZ=             -1.8032 ZZXY=             -3.7394
 N-N= 6.622973420667D+02 E-N=-2.565177659846D+03  KE= 5.285490797932D+02
 Calling FoFJK, ICntrl=      2127 FMM=F ISym2X=0 I1Cent= 0 IOpClX= 0 NMat=1 NMatS=1 NMatT=0.
 ***** Axes restored to original set *****
 -------------------------------------------------------------------
 Center     Atomic                   Forces (Hartrees/Bohr)
 Number     Number              X              Y              Z
 -------------------------------------------------------------------
      1        8          -0.022200600    0.011571004    0.000920783
      2        6           0.017725949   -0.021224757   -0.000829028
      3        6          -0.017330761    0.000680281    0.000358568
      4        6           0.001232372   -0.001958941   -0.000010675
      5        6          -0.000419103    0.013742373   -0.001040437
      6        6          -0.000528049   -0.015893289   -0.001051947
      7        6           0.005816223    0.013609558    0.001471823
      8        6          -0.000563751    0.003455572    0.000466101
      9        6           0.012959442   -0.009356281   -0.007526129
     10        7          -0.000113378   -0.018186898    0.007333460
     11        6           0.005906244    0.031197174    0.005518635
     12        7           0.003957407   -0.010914096   -0.000888933
     13        1          -0.001341199    0.010655293   -0.000015373
     14        1           0.002995206    0.001649796    0.000034840
     15        1          -0.002661639   -0.003708576    0.000514305
     16        1          -0.002054836   -0.001683420   -0.004130014
     17        1           0.001005950   -0.001531227    0.001524621
     18        1           0.002377351    0.001450324    0.002479598
     19        1          -0.002636471    0.000248458   -0.002827652
     20        1           0.002031985    0.000577627    0.003868224
     21        1          -0.011564808   -0.002578237   -0.005613691
     22        1           0.005406466   -0.001801739   -0.000557076
 -------------------------------------------------------------------
 Cartesian Forces:  Max     0.031197174 RMS     0.008419753

 GradGradGradGradGradGradGradGradGradGradGradGradGradGradGradGradGradGrad
 Berny optimization.
 FormGI is forming the generalized inverse of G from B-inverse, IUseBI=4.
 Internal  Forces:  Max     0.024863979 RMS     0.004694285
 Search for a local minimum.
 Step number   1 out of a maximum of  131
 All quantities printed in internal units (Hartrees-Bohrs-Radians)
 Mixed Optimization -- RFO/linear search
 Second derivative matrix not updated -- first step.
 ITU=  0
     Eigenvalues ---    0.00507   0.00767   0.00940   0.00940   0.01282
     Eigenvalues ---    0.01398   0.01655   0.01730   0.01955   0.02109
     Eigenvalues ---    0.02121   0.02124   0.02214   0.03247   0.03393
     Eigenvalues ---    0.04341   0.04946   0.05694   0.06088   0.07872
     Eigenvalues ---    0.08167   0.09031   0.09195   0.10209   0.12061
     Eigenvalues ---    0.14116   0.15998   0.16000   0.16000   0.18945
     Eigenvalues ---    0.19300   0.22000   0.22546   0.24133   0.24568
     Eigenvalues ---    0.24965   0.25000   0.27443   0.28056   0.29511
     Eigenvalues ---    0.33797   0.34562   0.34604   0.34649   0.34684
     Eigenvalues ---    0.34686   0.34768   0.34768   0.35346   0.35757
     Eigenvalues ---    0.35946   0.39772   0.43574   0.43958   0.44789
     Eigenvalues ---    0.45927   0.46207   0.51711   0.53202   0.89680
 RFO step:  Lambda=-9.75643246D-03 EMin= 5.07040078D-03
 Linear search not attempted -- first point.
 Iteration  1 RMS(Cart)=  0.03321079 RMS(Int)=  0.00089827
 Iteration  2 RMS(Cart)=  0.00096693 RMS(Int)=  0.00037065
 Iteration  3 RMS(Cart)=  0.00000106 RMS(Int)=  0.00037065
 Iteration  4 RMS(Cart)=  0.00000000 RMS(Int)=  0.00037065
 Variable       Old X    -DE/DX   Delta X   Delta X   Delta X     New X
                                 (Linear)    (Quad)   (Total)
    R1        2.33081  -0.02486   0.00000  -0.02743  -0.02743   2.30338
    R2        2.80975  -0.00507   0.00000  -0.01458  -0.01458   2.79517
    R3        2.06053   0.01055   0.00000   0.02953   0.02953   2.09005
    R4        2.64506  -0.00492   0.00000  -0.01041  -0.01036   2.63470
    R5        2.56816  -0.01585   0.00000  -0.03013  -0.03008   2.53808
    R6        2.63742  -0.00362   0.00000  -0.00651  -0.00651   2.63090
    R7        2.04464   0.00117   0.00000   0.00319   0.00319   2.04782
    R8        2.64553  -0.00807   0.00000  -0.01631  -0.01636   2.62917
    R9        2.04166   0.00415   0.00000   0.01124   0.01124   2.05290
   R10        2.87784  -0.00544   0.00000  -0.01616  -0.01632   2.86152
   R11        2.66191   0.00552   0.00000   0.01178   0.01163   2.67354
   R12        2.90700  -0.00415   0.00000  -0.01088  -0.01096   2.89604
   R13        2.06191   0.00478   0.00000   0.01341   0.01341   2.07532
   R14        2.06188   0.00197   0.00000   0.00552   0.00552   2.06739
   R15        2.91305  -0.00916   0.00000  -0.03269  -0.03254   2.88051
   R16        2.06323   0.00285   0.00000   0.00800   0.00800   2.07123
   R17        2.06053   0.00288   0.00000   0.00807   0.00807   2.06860
   R18        2.76812  -0.00169   0.00000  -0.00520  -0.00506   2.76306
   R19        2.06249   0.00053   0.00000   0.00148   0.00148   2.06397
   R20        2.06391   0.00711   0.00000   0.02000   0.02000   2.08391
   R21        2.65019  -0.02064   0.00000  -0.04605  -0.04598   2.60421
   R22        1.90598   0.00000   0.00000   0.00000   0.00000   1.90599
   R23        2.55811  -0.01358   0.00000  -0.02556  -0.02556   2.53255
    A1        2.17256  -0.00339   0.00000  -0.01478  -0.01478   2.15778
    A2        2.11197   0.00375   0.00000   0.01949   0.01949   2.13146
    A3        1.99865  -0.00036   0.00000  -0.00471  -0.00471   1.99394
    A4        2.11791  -0.00177   0.00000  -0.00585  -0.00590   2.11201
    A5        2.03573  -0.00722   0.00000  -0.02683  -0.02688   2.00886
    A6        2.12954   0.00898   0.00000   0.03268   0.03277   2.16230
    A7        2.07406  -0.00540   0.00000  -0.02120  -0.02117   2.05288
    A8        2.10731  -0.00058   0.00000  -0.00873  -0.00874   2.09857
    A9        2.10181   0.00598   0.00000   0.02993   0.02991   2.13171
   A10        2.09980  -0.00083   0.00000   0.00043   0.00035   2.10015
   A11        2.08492   0.00238   0.00000   0.01136   0.01140   2.09632
   A12        2.09839  -0.00155   0.00000  -0.01172  -0.01169   2.08669
   A13        2.12974   0.00156   0.00000   0.00705   0.00728   2.13702
   A14        2.04118   0.00001   0.00000   0.00304   0.00307   2.04425
   A15        2.11190  -0.00155   0.00000  -0.00969  -0.01006   2.10184
   A16        1.92874   0.00096   0.00000   0.01225   0.01168   1.94042
   A17        1.88985   0.00178   0.00000   0.01255   0.01269   1.90254
   A18        1.93896  -0.00258   0.00000  -0.02028  -0.02015   1.91881
   A19        1.90718  -0.00044   0.00000   0.00033   0.00026   1.90744
   A20        1.93314   0.00025   0.00000  -0.00286  -0.00264   1.93049
   A21        1.86412   0.00006   0.00000  -0.00185  -0.00187   1.86225
   A22        1.95010  -0.00368   0.00000  -0.03163  -0.03181   1.91829
   A23        1.91262  -0.00010   0.00000   0.00530   0.00498   1.91760
   A24        1.92663   0.00271   0.00000   0.01081   0.01059   1.93722
   A25        1.90195   0.00145   0.00000  -0.00054  -0.00051   1.90143
   A26        1.92182  -0.00081   0.00000  -0.00532  -0.00539   1.91643
   A27        1.84777   0.00067   0.00000   0.02438   0.02427   1.87203
   A28        1.91951  -0.00102   0.00000  -0.01807  -0.01929   1.90022
   A29        1.96017  -0.00106   0.00000  -0.02982  -0.03206   1.92810
   A30        1.91766  -0.00304   0.00000  -0.00903  -0.01006   1.90761
   A31        1.93867  -0.00250   0.00000  -0.04629  -0.04779   1.89088
   A32        1.84453   0.00833   0.00000   0.11471   0.11484   1.95937
   A33        1.87926  -0.00017   0.00000  -0.00211  -0.00151   1.87775
   A34        2.08426   0.00483   0.00000   0.01464   0.01467   2.09893
   A35        2.04532   0.00282   0.00000   0.02110   0.02103   2.06635
   A36        2.03761  -0.00786   0.00000  -0.04255  -0.04254   1.99506
   A37        2.12331  -0.00303   0.00000  -0.01719  -0.01761   2.10570
   A38        2.15656  -0.00083   0.00000  -0.00129  -0.00155   2.15501
   A39        2.00129   0.00398   0.00000   0.02108   0.02093   2.02222
   A40        2.06510  -0.00194   0.00000  -0.01389  -0.01382   2.05128
    D1        0.00519  -0.00007   0.00000  -0.00289  -0.00292   0.00227
    D2       -3.14066  -0.00006   0.00000  -0.00427  -0.00425   3.13828
    D3       -3.13647  -0.00002   0.00000  -0.00016  -0.00018  -3.13665
    D4        0.00087  -0.00001   0.00000  -0.00154  -0.00151  -0.00064
    D5       -3.13701   0.00016   0.00000   0.00589   0.00586  -3.13115
    D6       -0.00098   0.00020   0.00000   0.00545   0.00550   0.00453
    D7        0.00907   0.00019   0.00000   0.00749   0.00747   0.01654
    D8       -3.13808   0.00023   0.00000   0.00706   0.00711  -3.13097
    D9        3.14090   0.00006   0.00000   0.00069   0.00076  -3.14152
   D10       -0.00498   0.00004   0.00000  -0.00080  -0.00072  -0.00570
   D11        0.00056  -0.00003   0.00000  -0.00181  -0.00176  -0.00120
   D12        3.12845   0.00022   0.00000   0.00415   0.00433   3.13278
   D13       -3.13549  -0.00005   0.00000  -0.00126  -0.00127  -3.13676
   D14       -0.00760   0.00020   0.00000   0.00471   0.00483  -0.00277
   D15        3.09962   0.00044   0.00000   0.00585   0.00612   3.10574
   D16       -0.01317  -0.00021   0.00000  -0.00939  -0.00927  -0.02244
   D17       -0.02816   0.00016   0.00000  -0.00035  -0.00012  -0.02828
   D18       -3.14095  -0.00050   0.00000  -0.01559  -0.01552   3.12672
   D19        2.76909  -0.00081   0.00000   0.00393   0.00389   2.77297
   D20       -1.42581   0.00032   0.00000   0.01936   0.01941  -1.40640
   D21        0.61601  -0.00000   0.00000   0.01315   0.01321   0.62923
   D22       -0.40246  -0.00010   0.00000   0.01999   0.02000  -0.38246
   D23        1.68583   0.00103   0.00000   0.03543   0.03553   1.72136
   D24       -2.55553   0.00071   0.00000   0.02922   0.02933  -2.52621
   D25       -3.05163  -0.00174   0.00000  -0.03001  -0.02970  -3.08133
   D26        0.01795   0.00048   0.00000   0.01687   0.01688   0.03482
   D27        0.11845  -0.00245   0.00000  -0.04537  -0.04507   0.07338
   D28       -3.09516  -0.00022   0.00000   0.00151   0.00151  -3.09365
   D29        0.83155   0.00280   0.00000   0.02991   0.03008   0.86163
   D30       -1.27829   0.00345   0.00000   0.04765   0.04779  -1.23051
   D31        2.97642   0.00112   0.00000   0.00866   0.00867   2.98508
   D32       -1.24626   0.00031   0.00000   0.00684   0.00697  -1.23929
   D33        2.92708   0.00096   0.00000   0.02458   0.02468   2.95176
   D34        0.89860  -0.00137   0.00000  -0.01441  -0.01444   0.88416
   D35        2.98799   0.00035   0.00000   0.01059   0.01065   2.99864
   D36        0.87815   0.00100   0.00000   0.02833   0.02836   0.90650
   D37       -1.15033  -0.00133   0.00000  -0.01066  -0.01077  -1.16109
   D38       -0.99445  -0.00252   0.00000  -0.05274  -0.05211  -1.04656
   D39        3.12016   0.00225   0.00000   0.04226   0.04207  -3.12096
   D40        1.02892   0.00521   0.00000   0.07051   0.07044   1.09936
   D41        1.12159  -0.00404   0.00000  -0.06682  -0.06621   1.05538
   D42       -1.04698   0.00073   0.00000   0.02818   0.02797  -1.01901
   D43       -3.13822   0.00369   0.00000   0.05643   0.05634  -3.08188
   D44        3.14113  -0.00285   0.00000  -0.04078  -0.04032   3.10081
   D45        0.97256   0.00192   0.00000   0.05422   0.05385   1.02641
   D46       -1.11868   0.00488   0.00000   0.08247   0.08223  -1.03645
   D47        0.71455   0.00393   0.00000   0.05355   0.05353   0.76808
   D48       -2.94160   0.00118   0.00000   0.02712   0.02693  -2.91467
   D49        2.89552   0.00005   0.00000  -0.03095  -0.02988   2.86564
   D50       -0.76063  -0.00270   0.00000  -0.05738  -0.05648  -0.81711
   D51       -1.35439   0.00334   0.00000   0.00859   0.00792  -1.34647
   D52        1.27264   0.00058   0.00000  -0.01784  -0.01868   1.25397
   D53       -0.28554   0.00085   0.00000   0.00548   0.00557  -0.27997
   D54        2.92208  -0.00103   0.00000  -0.03679  -0.03688   2.88520
   D55       -2.91478   0.00055   0.00000   0.01362   0.01364  -2.90115
   D56        0.29283  -0.00133   0.00000  -0.02866  -0.02881   0.26403
   D57       -0.00899  -0.00039   0.00000  -0.01185  -0.01189  -0.02088
   D58        3.06516   0.00144   0.00000   0.03068   0.03124   3.09639
         Item               Value     Threshold  Converged?
 Maximum Force            0.024864     0.000450     NO 
 RMS     Force            0.004694     0.000300     NO 
 Maximum Displacement     0.129355     0.001800     NO 
 RMS     Displacement     0.033456     0.001200     NO 
 Predicted change in Energy=-5.278620D-03
 GradGradGradGradGradGradGradGradGradGradGradGradGradGradGradGradGradGrad

                          Input orientation:                          
 ---------------------------------------------------------------------
 Center     Atomic      Atomic             Coordinates (Angstroms)
 Number     Number       Type             X           Y           Z
 ---------------------------------------------------------------------
      1          8           0        4.767624    0.001530   -0.207818
      2          6           0        3.768065    0.697426   -0.159671
      3          6           0        2.393589    0.154056   -0.101202
      4          6           0        2.164551   -1.221214   -0.095369
      5          6           0        0.842431   -1.655213   -0.051754
      6          6           0       -0.198811   -0.733195   -0.014285
      7          6           0       -1.654234   -1.151154   -0.011952
      8          6           0       -2.548917   -0.038422    0.544803
      9          6           0       -2.219321    1.283538   -0.138777
     10          7           0       -0.816665    1.609933    0.113997
     11          6           0        0.153203    0.636947    0.005469
     12          7           0        1.418257    1.075958   -0.048932
     13          1           0        3.820321    1.802183   -0.153605
     14          1           0        2.997657   -1.913370   -0.129677
     15          1           0        0.617348   -2.717984   -0.053926
     16          1           0       -1.961404   -1.383115   -1.040500
     17          1           0       -1.777421   -2.070671    0.567865
     18          1           0       -2.383943    0.067763    1.623148
     19          1           0       -3.607422   -0.276960    0.400114
     20          1           0       -2.837653    2.087610    0.266250
     21          1           0       -2.441851    1.202318   -1.215792
     22          1           0       -0.495302    2.542036   -0.098585
 ---------------------------------------------------------------------
                    Distance matrix (angstroms):
                    1          2          3          4          5
     1  O    0.000000
     2  C    1.218896   0.000000
     3  C    2.381318   1.479139   0.000000
     4  C    2.878148   2.501313   1.394224   0.000000
     5  C    4.263366   3.755780   2.383692   1.392214   0.000000
     6  C    5.024216   4.219468   2.741405   2.414585   1.391296
     7  C    6.527427   5.730653   4.253987   3.820339   2.547350
     8  C    7.355257   6.398595   4.988260   4.901592   3.804095
     9  C    7.103922   6.016041   4.749324   5.049159   4.244780
    10  N    5.820206   4.682660   3.531517   4.116658   3.666230
    11  C    4.662845   3.619137   2.294317   2.740156   2.394224
    12  N    3.521065   2.382677   1.343096   2.415805   2.791214
    13  H    2.035355   1.106009   2.180512   3.447593   4.564185
    14  H    2.608779   2.722257   2.154057   1.083661   2.172031
    15  H    4.964295   4.647927   3.377259   2.153108   1.086347
    16  H    6.920291   6.158841   4.712870   4.235917   2.985490
    17  H    6.908930   6.240519   4.774346   4.086637   2.723996
    18  H    7.382528   6.436001   5.079925   5.030265   4.022863
    19  H    8.401697   7.460602   6.037319   5.869650   4.680273
    20  H    7.900425   6.763840   5.589235   6.008423   5.258600
    21  H    7.377970   6.319285   5.071749   5.324265   4.506326
    22  H    5.845040   4.645710   3.748086   4.608350   4.405522
                    6          7          8          9         10
     6  C    0.000000
     7  C    1.514249   0.000000
     8  C    2.513621   1.532517   0.000000
     9  C    2.857476   2.502625   1.524301   0.000000
    10  N    2.426612   2.888076   2.429684   1.462147   0.000000
    11  C    1.414776   2.542525   2.836980   2.463282   1.378086
    12  N    2.426755   3.794943   4.163272   3.644603   2.303595
    13  H    4.754048   6.221978   6.666543   6.061889   4.648678
    14  H    3.409331   4.715392   5.893627   6.118592   5.198278
    15  H    2.146410   2.759856   4.190915   4.905718   4.562396
    16  H    2.140619   1.098212   2.160221   2.826776   3.406116
    17  H    2.149361   1.094018   2.173885   3.456202   3.830912
    18  H    2.845614   2.166053   1.096047   2.146995   2.666868
    19  H    3.463886   2.179210   1.094653   2.156937   3.380910
    20  H    3.872871   3.459404   2.163556   1.092206   2.082247
    21  H    3.197039   2.758333   2.156523   1.102759   2.139093
    22  H    3.289704   3.871729   3.360067   2.134871   1.008604
                   11         12         13         14         15
    11  C    0.000000
    12  N    1.340168   0.000000
    13  H    3.851083   2.511628   0.000000
    14  H    3.822735   3.381879   3.805612   0.000000
    15  H    3.387407   3.877561   5.540838   2.513765   0.000000
    16  H    3.105844   4.295620   6.660410   5.069818   3.066785
    17  H    3.372653   4.527037   6.845015   4.828320   2.557451
    18  H    3.062346   4.274228   6.682660   5.996574   4.425010
    19  H    3.890150   5.223932   7.733098   6.825363   4.900350
    20  H    3.334314   4.385835   6.677303   7.086286   5.927334
    21  H    2.923256   4.034596   6.379881   6.362029   5.106604
    22  H    2.015131   2.411132   4.378929   5.661482   5.376598
                   16         17         18         19         20
    16  H    0.000000
    17  H    1.758812   0.000000
    18  H    3.062450   2.460567   0.000000
    19  H    2.451187   2.567965   1.763957   0.000000
    20  H    3.810688   4.301903   2.475239   2.490312   0.000000
    21  H    2.635530   3.786206   3.057801   2.481525   1.771115
    22  H    4.294587   4.833741   3.557155   4.228561   2.413756
                   21         22
    21  H    0.000000
    22  H    2.613819   0.000000
 Stoichiometry    C9H10N2O
 Framework group  C1[X(C9H10N2O)]
 Deg. of freedom    60
 Full point group                 C1      NOp   1
 Largest Abelian subgroup         C1      NOp   1
 Largest concise Abelian subgroup C1      NOp   1
                         Standard orientation:                         
 ---------------------------------------------------------------------
 Center     Atomic      Atomic             Coordinates (Angstroms)
 Number     Number       Type             X           Y           Z
 ---------------------------------------------------------------------
      1          8           0        4.184200   -0.106793   -0.025151
      2          6           0        3.155246   -0.760206   -0.028482
      3          6           0        1.803533   -0.159932   -0.008531
      4          6           0        1.632254    1.223562    0.013089
      5          6           0        0.328977    1.712212    0.043895
      6          6           0       -0.750473    0.834463    0.050885
      7          6           0       -2.185278    1.312028    0.129741
      8          6           0       -3.153509    0.244652   -0.391645
      9          6           0       -2.844385   -1.098791    0.258815
     10          7           0       -1.471677   -1.479292   -0.070980
     11          6           0       -0.457610   -0.548633   -0.002691
     12          7           0        0.789080   -1.040083   -0.019784
     13          1           0        3.160840   -1.865998   -0.049661
     14          1           0        2.494250    1.880283    0.011309
     15          1           0        0.148983    2.783231    0.069800
     16          1           0       -2.428516    1.542670    1.175547
     17          1           0       -2.299893    2.243514   -0.432463
     18          1           0       -3.049478    0.146193   -1.478292
     19          1           0       -4.192136    0.524644   -0.188853
     20          1           0       -3.516068   -1.871214   -0.122132
     21          1           0       -3.006957   -1.022885    1.346879
     22          1           0       -1.178972   -2.426605    0.113960
 ---------------------------------------------------------------------
 Rotational constants (GHZ):           2.5782278           0.5749116           0.4778032
 Standard basis: 6-31G(d,p) (6D, 7F)
 There are   230 symmetry adapted cartesian basis functions of A   symmetry.
 There are   230 symmetry adapted basis functions of A   symmetry.
   230 basis functions,   406 primitive gaussians,   230 cartesian basis functions
    43 alpha electrons       43 beta electrons
       nuclear repulsion energy       666.9287624102 Hartrees.
 NAtoms=   22 NActive=   22 NUniq=   22 SFac= 1.00D+00 NAtFMM=   60 NAOKFM=F Big=F
 Integral buffers will be    131072 words long.
 Raffenetti 2 integral format.
 Two-electron integral symmetry is turned on.
 Nuclear repulsion after empirical dispersion term =      666.8863338584 Hartrees.
 One-electron integrals computed using PRISM.
 NBasis=   230 RedAO= T EigKep=  6.43D-04  NBF=   230
 NBsUse=   230 1.00D-06 EigRej= -1.00D+00 NBFU=   230
 Initial guess from the checkpoint file:  "pyrd13_conf-1.chk"
 B after Tr=    -0.000000   -0.000000    0.000000
         Rot=    0.999998    0.001898    0.000318   -0.000011 Ang=   0.22 deg.
 ExpMin= 1.61D-01 ExpMax= 5.48D+03 ExpMxC= 8.25D+02 IAcc=3 IRadAn=         5 AccDes= 0.00D+00
 Harris functional with IExCor=  402 and IRadAn=       5 diagonalized for initial guess.
 HarFok:  IExCor=  402 AccDes= 0.00D+00 IRadAn=         5 IDoV= 1 UseB2=F ITyADJ=14
 ICtDFT=  3500011 ScaDFX=  1.000000  1.000000  1.000000  1.000000
 FoFCou: FMM=F IPFlag=           0 FMFlag=      100000 FMFlg1=           0
         NFxFlg=           0 DoJE=T BraDBF=F KetDBF=T FulRan=T
         wScrn=  0.000000 ICntrl=       500 IOpCl=  0 I1Cent=   200000004 NGrid=           0
         NMat0=    1 NMatS0=      1 NMatT0=    0 NMatD0=    1 NMtDS0=    0 NMtDT0=    0
 Petite list used in FoFCou.
 Requested convergence on RMS density matrix=1.00D-08 within 128 cycles.
 Requested convergence on MAX density matrix=1.00D-06.
 Requested convergence on             energy=1.00D-06.
 No special actions if energy rises.
 Integral accuracy reduced to 1.0D-05 until final iterations.
 Initial convergence to 1.0D-05 achieved.  Increase integral accuracy.
 SCF Done:  E(RB3LYP) =  -533.770365466     A.U. after   12 cycles
            NFock= 12  Conv=0.79D-08     -V/T= 2.0094
 Calling FoFJK, ICntrl=      2127 FMM=F ISym2X=0 I1Cent= 0 IOpClX= 0 NMat=1 NMatS=1 NMatT=0.
 ***** Axes restored to original set *****
 -------------------------------------------------------------------
 Center     Atomic                   Forces (Hartrees/Bohr)
 Number     Number              X              Y              Z
 -------------------------------------------------------------------
      1        8          -0.001653694    0.002707238    0.000026065
      2        6           0.007054776   -0.005135689   -0.000187793
      3        6          -0.002917806    0.000686887    0.000724773
      4        6           0.001874629   -0.001472578   -0.000243729
      5        6          -0.001575919    0.001735134   -0.000235669
      6        6          -0.000096122   -0.006332331    0.000049126
      7        6           0.001288369    0.002017640    0.000967741
      8        6          -0.002012099   -0.001735953    0.001446704
      9        6           0.004383487    0.002450706    0.001658639
     10        7          -0.007161914   -0.003824713   -0.002219165
     11        6           0.000611359    0.008141259   -0.000525045
     12        7          -0.000840552   -0.002892259    0.000144908
     13        1          -0.000773073    0.001765584   -0.000070984
     14        1           0.000548866    0.001469863   -0.000063392
     15        1          -0.000793472   -0.000326639    0.000037905
     16        1          -0.000417083   -0.000625594   -0.000105361
     17        1           0.000003417   -0.000983665   -0.000141260
     18        1           0.000314107    0.000297713   -0.000387330
     19        1           0.000413189   -0.000687320   -0.000695622
     20        1          -0.000323861    0.001178815    0.000049090
     21        1           0.000813820    0.000784967   -0.000055137
     22        1           0.001259578    0.000780938   -0.000174467
 -------------------------------------------------------------------
 Cartesian Forces:  Max     0.008141259 RMS     0.002311950

 GradGradGradGradGradGradGradGradGradGradGradGradGradGradGradGradGradGrad
 Berny optimization.
 Using GEDIIS/GDIIS optimizer.
 FormGI is forming the generalized inverse of G from B-inverse, IUseBI=4.
 Internal  Forces:  Max     0.004783526 RMS     0.001058081
 Search for a local minimum.
 Step number   2 out of a maximum of  131
 All quantities printed in internal units (Hartrees-Bohrs-Radians)
 Mixed Optimization -- RFO/linear search
 Update second derivatives using D2CorX and points    1    2
 DE= -4.83D-03 DEPred=-5.28D-03 R= 9.16D-01
 TightC=F SS=  1.41D+00  RLast= 2.97D-01 DXNew= 5.0454D-01 8.9158D-01
 Trust test= 9.16D-01 RLast= 2.97D-01 DXMaxT set to 5.05D-01
 ITU=  1  0
 Use linear search instead of GDIIS.
     Eigenvalues ---    0.00523   0.00788   0.00940   0.00940   0.01291
     Eigenvalues ---    0.01393   0.01661   0.01746   0.01964   0.02110
     Eigenvalues ---    0.02120   0.02125   0.02213   0.03417   0.03464
     Eigenvalues ---    0.04812   0.05088   0.05713   0.06240   0.07665
     Eigenvalues ---    0.07835   0.08971   0.09132   0.10322   0.12021
     Eigenvalues ---    0.13770   0.15712   0.16000   0.16000   0.18815
     Eigenvalues ---    0.18915   0.22131   0.22355   0.24155   0.24475
     Eigenvalues ---    0.24978   0.25389   0.27616   0.28230   0.29555
     Eigenvalues ---    0.33400   0.34211   0.34593   0.34635   0.34671
     Eigenvalues ---    0.34698   0.34713   0.34780   0.35563   0.35797
     Eigenvalues ---    0.36021   0.39589   0.43550   0.43975   0.44918
     Eigenvalues ---    0.45832   0.46251   0.52363   0.53108   0.87967
 RFO step:  Lambda=-5.67543288D-04 EMin= 5.22805874D-03
 Quartic linear search produced a step of -0.01508.
 Iteration  1 RMS(Cart)=  0.00999969 RMS(Int)=  0.00007336
 Iteration  2 RMS(Cart)=  0.00008891 RMS(Int)=  0.00002989
 Iteration  3 RMS(Cart)=  0.00000000 RMS(Int)=  0.00002989
 Variable       Old X    -DE/DX   Delta X   Delta X   Delta X     New X
                                 (Linear)    (Quad)   (Total)
    R1        2.30338  -0.00290   0.00041  -0.00520  -0.00479   2.29859
    R2        2.79517   0.00407   0.00022   0.01076   0.01098   2.80615
    R3        2.09005   0.00173  -0.00045   0.00706   0.00662   2.09667
    R4        2.63470  -0.00027   0.00016  -0.00158  -0.00142   2.63329
    R5        2.53808   0.00098   0.00045  -0.00053  -0.00007   2.53801
    R6        2.63090   0.00228   0.00010   0.00426   0.00435   2.63526
    R7        2.04782  -0.00051  -0.00005  -0.00118  -0.00123   2.04659
    R8        2.62917  -0.00065   0.00025  -0.00247  -0.00223   2.62694
    R9        2.05290   0.00048  -0.00017   0.00215   0.00198   2.05488
   R10        2.86152  -0.00050   0.00025  -0.00308  -0.00283   2.85869
   R11        2.67354   0.00402  -0.00018   0.00927   0.00911   2.68265
   R12        2.89604   0.00077   0.00017   0.00257   0.00271   2.89874
   R13        2.07532   0.00035  -0.00020   0.00197   0.00177   2.07709
   R14        2.06739   0.00075  -0.00008   0.00254   0.00246   2.06985
   R15        2.88051   0.00266   0.00049   0.00822   0.00870   2.88922
   R16        2.07123  -0.00031  -0.00012  -0.00028  -0.00040   2.07083
   R17        2.06860  -0.00016  -0.00012   0.00015   0.00003   2.06862
   R18        2.76306  -0.00478   0.00008  -0.01328  -0.01320   2.74985
   R19        2.06397   0.00107  -0.00002   0.00314   0.00312   2.06709
   R20        2.08391  -0.00017  -0.00030   0.00100   0.00070   2.08461
   R21        2.60421   0.00022   0.00069  -0.00350  -0.00278   2.60142
   R22        1.90599   0.00116  -0.00000   0.00247   0.00247   1.90846
   R23        2.53255  -0.00010   0.00039  -0.00198  -0.00159   2.53096
    A1        2.15778   0.00256   0.00022   0.01034   0.01052   2.16831
    A2        2.13146  -0.00039  -0.00029   0.00121   0.00087   2.13233
    A3        1.99394  -0.00217   0.00007  -0.01151  -0.01148   1.98246
    A4        2.11201  -0.00072   0.00009  -0.00304  -0.00297   2.10905
    A5        2.00886   0.00103   0.00041   0.00228   0.00268   2.01153
    A6        2.16230  -0.00031  -0.00049   0.00080   0.00030   2.16260
    A7        2.05288  -0.00056   0.00032  -0.00451  -0.00420   2.04868
    A8        2.09857  -0.00124   0.00013  -0.00849  -0.00835   2.09022
    A9        2.13171   0.00180  -0.00045   0.01302   0.01257   2.14428
   A10        2.10015   0.00074  -0.00001   0.00369   0.00366   2.10381
   A11        2.09632   0.00036  -0.00017   0.00350   0.00333   2.09965
   A12        2.08669  -0.00110   0.00018  -0.00716  -0.00697   2.07972
   A13        2.13702   0.00090  -0.00011   0.00280   0.00270   2.13972
   A14        2.04425   0.00029  -0.00005   0.00153   0.00148   2.04573
   A15        2.10184  -0.00119   0.00015  -0.00433  -0.00419   2.09765
   A16        1.94042   0.00030  -0.00018   0.00907   0.00885   1.94928
   A17        1.90254   0.00001  -0.00019   0.00118   0.00098   1.90351
   A18        1.91881  -0.00013   0.00030  -0.00304  -0.00274   1.91607
   A19        1.90744  -0.00006  -0.00000  -0.00219  -0.00222   1.90522
   A20        1.93049   0.00020   0.00004   0.00198   0.00204   1.93253
   A21        1.86225  -0.00034   0.00003  -0.00771  -0.00769   1.85457
   A22        1.91829   0.00028   0.00048   0.00350   0.00389   1.92219
   A23        1.91760  -0.00001  -0.00008  -0.00054  -0.00057   1.91703
   A24        1.93722  -0.00060  -0.00016  -0.00704  -0.00718   1.93004
   A25        1.90143  -0.00054   0.00001  -0.00453  -0.00451   1.89693
   A26        1.91643   0.00048   0.00008   0.00202   0.00215   1.91858
   A27        1.87203   0.00037  -0.00037   0.00663   0.00625   1.87828
   A28        1.90022  -0.00000   0.00029   0.00345   0.00367   1.90389
   A29        1.92810   0.00055   0.00048   0.00343   0.00397   1.93208
   A30        1.90761   0.00060   0.00015   0.00362   0.00382   1.91142
   A31        1.89088   0.00006   0.00072  -0.00479  -0.00404   1.88684
   A32        1.95937  -0.00101  -0.00173  -0.00336  -0.00507   1.95430
   A33        1.87775  -0.00018   0.00002  -0.00239  -0.00242   1.87533
   A34        2.09893   0.00151  -0.00022   0.01174   0.01149   2.11042
   A35        2.06635   0.00010  -0.00032   0.00503   0.00472   2.07107
   A36        1.99506  -0.00139   0.00064  -0.01062  -0.01005   1.98501
   A37        2.10570  -0.00029   0.00027  -0.00220  -0.00194   2.10376
   A38        2.15501  -0.00223   0.00002  -0.00852  -0.00852   2.14649
   A39        2.02222   0.00251  -0.00032   0.01047   0.01014   2.03235
   A40        2.05128   0.00208   0.00021   0.00738   0.00759   2.05888
    D1        0.00227  -0.00002   0.00004   0.00141   0.00146   0.00373
    D2        3.13828   0.00014   0.00006   0.00961   0.00967  -3.13524
    D3       -3.13665  -0.00020   0.00000  -0.01550  -0.01549   3.13105
    D4       -0.00064  -0.00003   0.00002  -0.00730  -0.00728  -0.00792
    D5       -3.13115  -0.00004  -0.00009   0.00010   0.00002  -3.13113
    D6        0.00453   0.00005  -0.00008   0.00338   0.00328   0.00781
    D7        0.01654  -0.00022  -0.00011  -0.00884  -0.00894   0.00760
    D8       -3.13097  -0.00013  -0.00011  -0.00556  -0.00567  -3.13664
    D9       -3.14152  -0.00003  -0.00001  -0.00294  -0.00297   3.13869
   D10       -0.00570   0.00013   0.00001   0.00551   0.00551  -0.00019
   D11       -0.00120   0.00002   0.00003   0.00116   0.00119  -0.00001
   D12        3.13278   0.00016  -0.00007   0.00646   0.00641   3.13919
   D13       -3.13676  -0.00006   0.00002  -0.00211  -0.00211  -3.13886
   D14       -0.00277   0.00008  -0.00007   0.00319   0.00311   0.00034
   D15        3.10574   0.00026  -0.00009   0.00851   0.00838   3.11413
   D16       -0.02244   0.00024   0.00014   0.00869   0.00882  -0.01362
   D17       -0.02828   0.00012   0.00000   0.00319   0.00318  -0.02510
   D18        3.12672   0.00009   0.00023   0.00336   0.00361   3.13033
   D19        2.77297  -0.00003  -0.00006   0.00616   0.00615   2.77912
   D20       -1.40640   0.00009  -0.00029   0.00991   0.00964  -1.39676
   D21        0.62923  -0.00040  -0.00020  -0.00042  -0.00060   0.62863
   D22       -0.38246   0.00001  -0.00030   0.00603   0.00575  -0.37671
   D23        1.72136   0.00012  -0.00054   0.00977   0.00924   1.73059
   D24       -2.52621  -0.00036  -0.00044  -0.00056  -0.00100  -2.52720
   D25       -3.08133  -0.00017   0.00045  -0.00081  -0.00036  -3.08169
   D26        0.03482  -0.00040  -0.00025  -0.01274  -0.01294   0.02189
   D27        0.07338  -0.00021   0.00068  -0.00069   0.00001   0.07339
   D28       -3.09365  -0.00044  -0.00002  -0.01263  -0.01257  -3.10622
   D29        0.86163  -0.00044  -0.00045  -0.01683  -0.01733   0.84430
   D30       -1.23051   0.00005  -0.00072  -0.01310  -0.01384  -1.24435
   D31        2.98508  -0.00003  -0.00013  -0.01659  -0.01677   2.96832
   D32       -1.23929  -0.00060  -0.00011  -0.02260  -0.02271  -1.26200
   D33        2.95176  -0.00011  -0.00037  -0.01887  -0.01923   2.93253
   D34        0.88416  -0.00019   0.00022  -0.02237  -0.02215   0.86201
   D35        2.99864  -0.00026  -0.00016  -0.01305  -0.01321   2.98543
   D36        0.90650   0.00023  -0.00043  -0.00932  -0.00973   0.89677
   D37       -1.16109   0.00014   0.00016  -0.01281  -0.01265  -1.17375
   D38       -1.04656   0.00056   0.00079   0.02312   0.02389  -1.02267
   D39       -3.12096   0.00017  -0.00063   0.02481   0.02419  -3.09677
   D40        1.09936  -0.00030  -0.00106   0.02348   0.02241   1.12177
   D41        1.05538   0.00039   0.00100   0.02179   0.02276   1.07814
   D42       -1.01901  -0.00001  -0.00042   0.02347   0.02305  -0.99596
   D43       -3.08188  -0.00047  -0.00085   0.02214   0.02127  -3.06060
   D44        3.10081   0.00080   0.00061   0.02830   0.02890   3.12970
   D45        1.02641   0.00041  -0.00081   0.02999   0.02919   1.05560
   D46       -1.03645  -0.00006  -0.00124   0.02865   0.02741  -1.00904
   D47        0.76808  -0.00036  -0.00081  -0.01129  -0.01214   0.75594
   D48       -2.91467  -0.00035  -0.00041  -0.00210  -0.00245  -2.91712
   D49        2.86564   0.00033   0.00045  -0.00796  -0.00759   2.85805
   D50       -0.81711   0.00034   0.00085   0.00124   0.00210  -0.81502
   D51       -1.34647  -0.00047  -0.00012  -0.01604  -0.01617  -1.36264
   D52        1.25397  -0.00045   0.00028  -0.00684  -0.00648   1.24748
   D53       -0.27997  -0.00012  -0.00008   0.00111   0.00102  -0.27895
   D54        2.88520   0.00015   0.00056   0.01243   0.01305   2.89825
   D55       -2.90115  -0.00053  -0.00021  -0.01197  -0.01215  -2.91330
   D56        0.26403  -0.00026   0.00043  -0.00065  -0.00012   0.26391
   D57       -0.02088   0.00020   0.00018   0.00570   0.00585  -0.01502
   D58        3.09639  -0.00005  -0.00047  -0.00587  -0.00640   3.09000
         Item               Value     Threshold  Converged?
 Maximum Force            0.004784     0.000450     NO 
 RMS     Force            0.001058     0.000300     NO 
 Maximum Displacement     0.041646     0.001800     NO 
 RMS     Displacement     0.009984     0.001200     NO 
 Predicted change in Energy=-2.886199D-04
 GradGradGradGradGradGradGradGradGradGradGradGradGradGradGradGradGradGrad

                          Input orientation:                          
 ---------------------------------------------------------------------
 Center     Atomic      Atomic             Coordinates (Angstroms)
 Number     Number       Type             X           Y           Z
 ---------------------------------------------------------------------
      1          8           0        4.779864    0.008538   -0.205538
      2          6           0        3.776124    0.693625   -0.153621
      3          6           0        2.395478    0.149805   -0.097499
      4          6           0        2.168747   -1.225100   -0.097047
      5          6           0        0.843290   -1.656514   -0.055515
      6          6           0       -0.198099   -0.736511   -0.016434
      7          6           0       -1.652628   -1.152015   -0.005578
      8          6           0       -2.555804   -0.039640    0.542048
      9          6           0       -2.221502    1.290309   -0.133997
     10          7           0       -0.821582    1.607114    0.105474
     11          6           0        0.151337    0.639348   -0.003708
     12          7           0        1.418516    1.070288   -0.052077
     13          1           0        3.816689    1.802385   -0.158554
     14          1           0        3.008315   -1.908402   -0.130741
     15          1           0        0.611883   -2.719003   -0.055569
     16          1           0       -1.963599   -1.397228   -1.030905
     17          1           0       -1.771387   -2.070714    0.578895
     18          1           0       -2.401616    0.066832    1.621746
     19          1           0       -3.610203   -0.285561    0.380605
     20          1           0       -2.829123    2.099085    0.282180
     21          1           0       -2.451410    1.224356   -1.210883
     22          1           0       -0.493193    2.539004   -0.103482
 ---------------------------------------------------------------------
                    Distance matrix (angstroms):
                    1          2          3          4          5
     1  O    0.000000
     2  C    1.216361   0.000000
     3  C    2.391010   1.484949   0.000000
     4  C    2.889908   2.503671   1.393475   0.000000
     5  C    4.276859   3.759561   2.381982   1.394518   0.000000
     6  C    5.036961   4.225939   2.742037   2.418094   1.390116
     7  C    6.539405   5.735822   4.253275   3.823168   2.546884
     8  C    7.373821   6.412094   4.996009   4.912753   3.811194
     9  C    7.118089   6.027266   4.755900   5.059934   4.252396
    10  N    5.833384   4.694731   3.537573   4.123654   3.667286
    11  C    4.675673   3.628292   2.298829   2.748603   2.398430
    12  N    3.528388   2.389666   1.343058   2.415300   2.786817
[...]
                 (A) (A) (A) (A) (A) (A) (A) (A) (A) (A) (A) (A)
                 (A) (A) (A) (A) (A) (A) (A) (A) (A) (A) (A) (A)
                 (A) (A) (A) (A) (A) (A) (A) (A) (A) (A) (A) (A)
                 (A) (A) (A) (A) (A) (A) (A) (A) (A) (A) (A) (A)
                 (A) (A) (A) (A) (A) (A) (A) (A) (A) (A) (A) (A)
                 (A) (A) (A) (A) (A) (A) (A) (A) (A) (A) (A) (A)
                 (A) (A) (A) (A) (A) (A) (A) (A) (A) (A) (A) (A)
                 (A) (A) (A) (A) (A) (A) (A) (A) (A) (A) (A) (A)
                 (A) (A) (A) (A) (A) (A) (A) (A) (A) (A) (A) (A)
                 (A) (A) (A) (A) (A) (A) (A) (A) (A) (A) (A) (A)
                 (A) (A) (A) (A) (A) (A) (A) (A) (A) (A) (A) (A)
                 (A) (A) (A) (A) (A) (A) (A) (A) (A) (A) (A) (A)
                 (A) (A) (A) (A) (A) (A) (A) (A) (A) (A) (A) (A)
                 (A) (A) (A) (A) (A) (A) (A) (A) (A) (A) (A) (A)
                 (A) (A) (A) (A) (A) (A) (A) (A) (A) (A) (A) (A)
                 (A) (A) (A) (A) (A) (A) (A) (A) (A) (A) (A) (A)
                 (A) (A) (A) (A) (A) (A) (A) (A) (A) (A) (A) (A)
                 (A) (A) (A) (A) (A) (A) (A) (A) (A) (A) (A) (A)
                 (A) (A) (A) (A) (A) (A) (A) (A) (A) (A) (A) (A)
                 (A) (A) (A) (A) (A) (A) (A) (A) (A) (A) (A) (A)
                 (A) (A) (A) (A) (A) (A) (A) (A) (A) (A) (A) (A)
                 (A) (A) (A) (A) (A) (A) (A) (A) (A) (A) (A) (A)
                 (A) (A) (A) (A) (A) (A) (A) (A) (A) (A) (A) (A)
                 (A) (A) (A) (A) (A) (A) (A) (A) (A) (A) (A) (A)
                 (A) (A) (A) (A) (A) (A) (A) (A) (A) (A) (A) (A)
                 (A) (A) (A) (A) (A) (A) (A) (A) (A) (A) (A) (A)
                 (A) (A) (A) (A) (A) (A) (A) (A) (A) (A) (A) (A)
                 (A) (A) (A) (A) (A) (A) (A) (A) (A) (A) (A) (A)
                 (A) (A) (A) (A) (A) (A) (A) (A) (A) (A) (A) (A)
                 (A) (A) (A) (A) (A) (A) (A) (A) (A) (A) (A) (A)
                 (A) (A) (A) (A) (A) (A) (A) (A) (A) (A) (A) (A)
                 (A) (A) (A) (A) (A)
 The electronic state is 1-A.
 Alpha  occ. eigenvalues --  -19.62384 -14.76622 -14.75099 -10.62278 -10.62144
 Alpha  occ. eigenvalues --  -10.58645 -10.58091 -10.56316 -10.56199 -10.55744
 Alpha  occ. eigenvalues --  -10.55368 -10.54524  -1.16425  -1.09124  -1.02317
 Alpha  occ. eigenvalues --   -0.93227  -0.88149  -0.87334  -0.78517  -0.74801
 Alpha  occ. eigenvalues --   -0.72676  -0.69046  -0.64082  -0.61639  -0.59004
 Alpha  occ. eigenvalues --   -0.57013  -0.54399  -0.53011  -0.51775  -0.50715
 Alpha  occ. eigenvalues --   -0.50489  -0.49856  -0.48400  -0.47246  -0.46052
 Alpha  occ. eigenvalues --   -0.42345  -0.42004  -0.40998  -0.37589  -0.35023
 Alpha  occ. eigenvalues --   -0.33794  -0.32482  -0.26582
 Alpha virt. eigenvalues --   -0.03406   0.01280   0.05253   0.07378   0.07916
 Alpha virt. eigenvalues --    0.09335   0.10218   0.10710   0.11830   0.12336
 Alpha virt. eigenvalues --    0.13375   0.14674   0.15029   0.15322   0.17086
 Alpha virt. eigenvalues --    0.18029   0.19002   0.20051   0.20590   0.21556
 Alpha virt. eigenvalues --    0.22714   0.23064   0.23567   0.24485   0.25512
 Alpha virt. eigenvalues --    0.27523   0.28416   0.28799   0.29738   0.30406
 Alpha virt. eigenvalues --    0.30718   0.31725   0.33075   0.33446   0.34745
 Alpha virt. eigenvalues --    0.35977   0.36665   0.37778   0.38378   0.39048
 Alpha virt. eigenvalues --    0.39669   0.40527   0.41672   0.42001   0.43246
 Alpha virt. eigenvalues --    0.43550   0.44215   0.44536   0.44812   0.45517
 Alpha virt. eigenvalues --    0.45648   0.46548   0.47302   0.47538   0.48991
 Alpha virt. eigenvalues --    0.49447   0.50969   0.52761   0.53002   0.53585
 Alpha virt. eigenvalues --    0.54663   0.54946   0.56395   0.56656   0.56854
 Alpha virt. eigenvalues --    0.57601   0.60030   0.60276   0.61823   0.64273
 Alpha virt. eigenvalues --    0.64975   0.65189   0.66852   0.69753   0.70188
 Alpha virt. eigenvalues --    0.70770   0.73341   0.73925   0.74786   0.75578
 Alpha virt. eigenvalues --    0.76829   0.77084   0.77613   0.79184   0.80155
 Alpha virt. eigenvalues --    0.81672   0.82451   0.84642   0.85644   0.86339
 Alpha virt. eigenvalues --    0.87152   0.88878   0.90282   0.90977   0.92872
 Alpha virt. eigenvalues --    0.94444   0.96293   0.97201   0.98816   1.00962
 Alpha virt. eigenvalues --    1.03118   1.04591   1.04996   1.06385   1.08025
 Alpha virt. eigenvalues --    1.09548   1.12348   1.13985   1.14785   1.15263
 Alpha virt. eigenvalues --    1.18142   1.19076   1.19311   1.21562   1.25193
 Alpha virt. eigenvalues --    1.26145   1.27922   1.29204   1.31240   1.32355
 Alpha virt. eigenvalues --    1.33181   1.34057   1.36880   1.39047   1.40138
 Alpha virt. eigenvalues --    1.41665   1.42275   1.44854   1.45745   1.46701
 Alpha virt. eigenvalues --    1.49170   1.50745   1.51409   1.52502   1.53572
 Alpha virt. eigenvalues --    1.56768   1.57238   1.57987   1.59304   1.60178
 Alpha virt. eigenvalues --    1.60615   1.62185   1.62835   1.63743   1.64425
 Alpha virt. eigenvalues --    1.66882   1.67453   1.69004   1.70191   1.72149
 Alpha virt. eigenvalues --    1.73189   1.75087   1.75767   1.76352   1.78867
 Alpha virt. eigenvalues --    1.80517   1.81011   1.81671   1.84254   1.86314
 Alpha virt. eigenvalues --    1.87037   1.88537   1.89492   1.93583   1.95306
 Alpha virt. eigenvalues --    1.96979   1.97357   1.97954   2.00071   2.02238
 Alpha virt. eigenvalues --    2.02625   2.03292   2.06439   2.08083   2.09482
 Alpha virt. eigenvalues --    2.11988   2.14397   2.15550   2.16153   2.17582
 Alpha virt. eigenvalues --    2.17991   2.21162   2.23466   2.25042   2.26220
 Alpha virt. eigenvalues --    2.27843   2.29774   2.30729   2.32945   2.36423
 Alpha virt. eigenvalues --    2.38337   2.39290   2.42004   2.43600   2.44332
 Alpha virt. eigenvalues --    2.46768   2.48242   2.49274   2.50480   2.52008
 Alpha virt. eigenvalues --    2.53041   2.53263   2.55081   2.58326   2.58418
 Alpha virt. eigenvalues --    2.59568   2.59882   2.60691   2.62678   2.63119
 Alpha virt. eigenvalues --    2.64822   2.65544   2.67699   2.68683   2.68986
 Alpha virt. eigenvalues --    2.71752   2.72411   2.73519   2.75914   2.76335
 Alpha virt. eigenvalues --    2.77301   2.77866   2.78779   2.82348   2.84387
 Alpha virt. eigenvalues --    2.85871   2.88772   2.90743   2.92571   2.93376
 Alpha virt. eigenvalues --    2.93794   2.95426   2.97671   2.98371   2.99185
 Alpha virt. eigenvalues --    2.99859   3.01390   3.02262   3.04653   3.05352
 Alpha virt. eigenvalues --    3.07167   3.07876   3.08324   3.09202   3.11199
 Alpha virt. eigenvalues --    3.13509   3.13909   3.15085   3.15286   3.16430
 Alpha virt. eigenvalues --    3.16770   3.18564   3.18925   3.19714   3.20956
 Alpha virt. eigenvalues --    3.22729   3.23945   3.25562   3.26242   3.27302
 Alpha virt. eigenvalues --    3.28571   3.29326   3.29954   3.31134   3.32644
 Alpha virt. eigenvalues --    3.34096   3.34442   3.36553   3.38496   3.39010
 Alpha virt. eigenvalues --    3.39402   3.41751   3.42103   3.43304   3.44656
 Alpha virt. eigenvalues --    3.45880   3.46721   3.49027   3.49767   3.50874
 Alpha virt. eigenvalues --    3.52546   3.52784   3.56100   3.56358   3.59834
 Alpha virt. eigenvalues --    3.60354   3.64573   3.66197   3.67065   3.69102
 Alpha virt. eigenvalues --    3.71719   3.73001   3.76517   3.78475   3.83067
 Alpha virt. eigenvalues --    3.83319   3.84901   3.88083   3.89674   3.91427
 Alpha virt. eigenvalues --    3.92476   3.93860   3.95946   3.96413   4.00096
 Alpha virt. eigenvalues --    4.01589   4.03183   4.05664   4.07592   4.10923
 Alpha virt. eigenvalues --    4.11244   4.12370   4.14100   4.17938   4.20506
 Alpha virt. eigenvalues --    4.23072   4.25409   4.26624   4.30022   4.31636
 Alpha virt. eigenvalues --    4.33609   4.35938   4.37902   4.40934   4.41538
 Alpha virt. eigenvalues --    4.42931   4.48269   4.49951   4.55258   4.56428
 Alpha virt. eigenvalues --    4.57575   4.62737   4.65582   4.70532   4.72332
 Alpha virt. eigenvalues --    4.76162   4.76976   4.81102   4.82261   4.87807
 Alpha virt. eigenvalues --    4.90746   4.93921   4.97835   5.00695   5.01472
 Alpha virt. eigenvalues --    5.04538   5.09558   5.13819   5.15238   5.16682
 Alpha virt. eigenvalues --    5.17695   5.21273   5.22573   5.23061   5.28287
 Alpha virt. eigenvalues --    5.30842   5.32933   5.34367   5.39908   5.43856
 Alpha virt. eigenvalues --    5.55304   5.57562   5.61254   5.69088   5.70038
 Alpha virt. eigenvalues --    5.80435   5.81583   5.94001   6.06243   6.19926
 Alpha virt. eigenvalues --    6.35149   6.35791   6.48148   6.49139   6.79050
 Alpha virt. eigenvalues --    6.98399   7.05873  22.53441  22.59237  22.62394
 Alpha virt. eigenvalues --   22.65842  22.80405  22.93364  23.03886  23.23981
 Alpha virt. eigenvalues --   23.38403  32.57633  32.86525  43.97670
          Condensed to atoms (all electrons):
               1          2          3          4          5          6
     1  O    7.823921   0.637933  -0.163849   0.027173   0.004604  -0.000130
     2  C    0.637933   4.721548   0.134681  -0.017011   0.010882   0.001391
     3  C   -0.163849   0.134681   5.471520   0.288929  -0.011991  -0.084926
     4  C    0.027173  -0.017011   0.288929   5.284861   0.388726   0.037222
     5  C    0.004604   0.010882  -0.011991   0.388726   4.994408   0.444997
     6  C   -0.000130   0.001391  -0.084926   0.037222   0.444997   5.384137
     7  C   -0.000008  -0.000221  -0.004037   0.009720  -0.062292   0.186415
     8  C    0.000000  -0.000017  -0.000334  -0.000492   0.007242  -0.035413
     9  C   -0.000001  -0.000008  -0.000273  -0.000137   0.000654  -0.007173
    10  N   -0.000002  -0.000515   0.003450  -0.000149   0.003563  -0.094824
    11  C   -0.000470  -0.007807  -0.051498  -0.071773  -0.039301   0.388571
    12  N    0.003270  -0.033013   0.501973  -0.127636   0.006127  -0.078680
    13  H   -0.049952   0.479685  -0.194910   0.032581  -0.001011   0.001521
    14  H    0.015008  -0.008157  -0.014904   0.389633  -0.029581   0.002374
    15  H   -0.000024  -0.000181   0.003513  -0.026444   0.409572  -0.042094
    16  H   -0.000000  -0.000002   0.000113  -0.000001  -0.002376  -0.053973
    17  H    0.000000   0.000006  -0.000063   0.000676  -0.003042  -0.049414
    18  H    0.000000   0.000002   0.000074  -0.000099   0.001859  -0.001676
    19  H   -0.000000   0.000000   0.000012  -0.000018  -0.000520   0.012293
    20  H    0.000000   0.000000   0.000019   0.000018  -0.000050  -0.001853
    21  H    0.000000   0.000003   0.000190  -0.000319   0.001087   0.005022
    22  H    0.000003  -0.000044  -0.000055   0.001170  -0.000987   0.014629
               7          8          9         10         11         12
     1  O   -0.000008   0.000000  -0.000001  -0.000002  -0.000470   0.003270
     2  C   -0.000221  -0.000017  -0.000008  -0.000515  -0.007807  -0.033013
     3  C   -0.004037  -0.000334  -0.000273   0.003450  -0.051498   0.501973
     4  C    0.009720  -0.000492  -0.000137  -0.000149  -0.071773  -0.127636
     5  C   -0.062292   0.007242   0.000654   0.003563  -0.039301   0.006127
     6  C    0.186415  -0.035413  -0.007173  -0.094824   0.388571  -0.078680
     7  C    5.272340   0.264844  -0.061536   0.004108  -0.044363   0.006120
     8  C    0.264844   5.160907   0.251807  -0.040419  -0.015476  -0.000216
     9  C   -0.061536   0.251807   5.017590   0.225686  -0.018188   0.005714
    10  N    0.004108  -0.040419   0.225686   6.704999   0.374989  -0.114612
    11  C   -0.044363  -0.015476  -0.018188   0.374989   4.669053   0.547622
    12  N    0.006120  -0.000216   0.005714  -0.114612   0.547622   6.554486
    13  H   -0.000032   0.000001  -0.000001  -0.000304  -0.001068   0.014694
    14  H   -0.000126   0.000024  -0.000014   0.000072   0.001717   0.005112
    15  H   -0.004969   0.000190   0.000114  -0.000283   0.009049  -0.000493
    16  H    0.435891  -0.037902  -0.009956   0.001950  -0.007141  -0.000282
    17  H    0.428110  -0.040644   0.011121  -0.000870   0.006480  -0.000367
    18  H   -0.050652   0.427070  -0.043881   0.007147  -0.002900  -0.000440
    19  H   -0.056512   0.433081  -0.040275   0.005046   0.001024   0.000044
    20  H    0.012884  -0.029680   0.415947  -0.034078   0.007609  -0.000208
    21  H   -0.019916  -0.061228   0.453151  -0.059494  -0.000800   0.000476
    22  H   -0.002232   0.008658  -0.037567   0.382265  -0.055656   0.006979
              13         14         15         16         17         18
     1  O   -0.049952   0.015008  -0.000024  -0.000000   0.000000   0.000000
     2  C    0.479685  -0.008157  -0.000181  -0.000002   0.000006   0.000002
     3  C   -0.194910  -0.014904   0.003513   0.000113  -0.000063   0.000074
     4  C    0.032581   0.389633  -0.026444  -0.000001   0.000676  -0.000099
     5  C   -0.001011  -0.029581   0.409572  -0.002376  -0.003042   0.001859
     6  C    0.001521   0.002374  -0.042094  -0.053973  -0.049414  -0.001676
     7  C   -0.000032  -0.000126  -0.004969   0.435891   0.428110  -0.050652
     8  C    0.000001   0.000024   0.000190  -0.037902  -0.040644   0.427070
     9  C   -0.000001  -0.000014   0.000114  -0.009956   0.011121  -0.043881
    10  N   -0.000304   0.000072  -0.000283   0.001950  -0.000870   0.007147
    11  C   -0.001068   0.001717   0.009049  -0.007141   0.006480  -0.002900
    12  N    0.014694   0.005112  -0.000493  -0.000282  -0.000367  -0.000440
    13  H    0.609771   0.001127   0.000005  -0.000000   0.000001   0.000000
    14  H    0.001127   0.469447  -0.002203   0.000000  -0.000031  -0.000002
    15  H    0.000005  -0.002203   0.503023  -0.000016   0.002033   0.000051
    16  H   -0.000000   0.000000  -0.000016   0.530562  -0.024975   0.005228
    17  H    0.000001  -0.000031   0.002033  -0.024975   0.523721  -0.003425
    18  H    0.000000  -0.000002   0.000051   0.005228  -0.003425   0.518005
    19  H   -0.000000  -0.000000  -0.000007  -0.003924  -0.003485  -0.014864
    20  H    0.000000   0.000000  -0.000003   0.000004  -0.000345  -0.006445
    21  H    0.000000  -0.000001   0.000025   0.000204   0.000260   0.007865
    22  H    0.000284  -0.000008   0.000025   0.000073   0.000117  -0.000104
              19         20         21         22
     1  O   -0.000000   0.000000   0.000000   0.000003
     2  C    0.000000   0.000000   0.000003  -0.000044
     3  C    0.000012   0.000019   0.000190  -0.000055
     4  C   -0.000018   0.000018  -0.000319   0.001170
     5  C   -0.000520  -0.000050   0.001087  -0.000987
     6  C    0.012293  -0.001853   0.005022   0.014629
     7  C   -0.056512   0.012884  -0.019916  -0.002232
     8  C    0.433081  -0.029680  -0.061228   0.008658
     9  C   -0.040275   0.415947   0.453151  -0.037567
    10  N    0.005046  -0.034078  -0.059494   0.382265
    11  C    0.001024   0.007609  -0.000800  -0.055656
    12  N    0.000044  -0.000208   0.000476   0.006979
    13  H   -0.000000   0.000000   0.000000   0.000284
    14  H   -0.000000   0.000000  -0.000001  -0.000008
    15  H   -0.000007  -0.000003   0.000025   0.000025
    16  H   -0.003924   0.000004   0.000204   0.000073
    17  H   -0.003485  -0.000345   0.000260   0.000117
    18  H   -0.014864  -0.006445   0.007865  -0.000104
    19  H    0.522393  -0.004392   0.001055  -0.000360
    20  H   -0.004392   0.533595  -0.033508  -0.006232
    21  H    0.001055  -0.033508   0.563487  -0.001055
    22  H   -0.000360  -0.006232  -0.001055   0.450537
 Mulliken charges:
               1
     1  O   -0.297477
     2  C    0.080844
     3  C    0.122365
     4  C   -0.216630
     5  C   -0.122569
     6  C   -0.028416
     7  C   -0.313535
     8  C   -0.292003
     9  C   -0.162773
    10  N   -0.367723
    11  C    0.310327
    12  N   -0.296673
    13  H    0.107608
    14  H    0.170513
    15  H    0.149117
    16  H    0.166523
    17  H    0.154137
    18  H    0.157185
    19  H    0.149410
    20  H    0.146715
    21  H    0.143496
    22  H    0.239559
 Sum of Mulliken charges =  -0.00000
 Mulliken charges with hydrogens summed into heavy atoms:
               1
     1  O   -0.297477
     2  C    0.188452
     3  C    0.122365
     4  C   -0.046117
     5  C    0.026548
     6  C   -0.028416
     7  C    0.007125
     8  C    0.014593
     9  C    0.127438
    10  N   -0.128164
    11  C    0.310327
    12  N   -0.296673
 Electronic spatial extent (au):  <R**2>=           2277.8736
 Charge=              0.0000 electrons
 Dipole moment (field-independent basis, Debye):
    X=             -5.7495    Y=              0.3027    Z=              0.4469  Tot=              5.7747
 Quadrupole moment (field-independent basis, Debye-Ang):
   XX=            -79.4772   YY=            -63.2902   ZZ=            -71.8969
   XY=              0.4720   XZ=             -0.5414   YZ=             -0.6918
 Traceless Quadrupole moment (field-independent basis, Debye-Ang):
   XX=             -7.9224   YY=              8.2645   ZZ=             -0.3421
   XY=              0.4720   XZ=             -0.5414   YZ=             -0.6918
 Octapole moment (field-independent basis, Debye-Ang**2):
  XXX=           -103.5323  YYY=             -5.1689  ZZZ=              0.1526  XYY=             -0.4216
  XXY=            -11.1909  XXZ=              1.7608  XZZ=              1.5560  YZZ=             -2.4312
  YYZ=              1.1674  XYZ=              0.9314
 Hexadecapole moment (field-independent basis, Debye-Ang**3):
 XXXX=          -2681.1584 YYYY=           -535.3622 ZZZZ=           -106.9496 XXXY=             -4.1123
 XXXZ=              1.8321 YYYX=             22.5716 YYYZ=             -4.0396 ZZZX=             -2.2498
 ZZZY=             -0.5211 XXYY=           -445.1430 XXZZ=           -399.4786 YYZZ=           -124.8242
 XXYZ=              0.8610 YYXZ=             -0.4555 ZZXY=             -3.6575
 N-N= 6.663200586401D+02 E-N=-2.574911229443D+03  KE= 5.308809605526D+02
 Unable to Open any file for archive entry.
 1\1\GINC-COMPUTE-0-35\SP\RM062X\def2TZVP\C9H10N2O1\ZTAN64\14-Aug-2024\
 0\\# M062X/def2tzvp int=(grid=ultrafine) nmr=giao guess=read geom=chec
 k\\pyrd13.xyz\\0,1\O,0,4.7825515749,0.0093131986,-0.1799172413\C,0,3.7
 77477651,0.6928620007,-0.1481178882\C,0,2.3953069162,0.1479770403,-0.0
 99936242\C,0,2.1702029395,-1.2267756856,-0.0897556827\C,0,0.8440910126
 ,-1.660227915,-0.0513250942\C,0,-0.1966952541,-0.7414458819,-0.0274678
 114\C,0,-1.6522074305,-1.1501998416,-0.0178932133\C,0,-2.5460810962,-0
 .0404029594,0.5499779193\C,0,-2.2280966535,1.2925779666,-0.1305411448\
 N,0,-0.8220289661,1.6027482391,0.0557974891\C,0,0.1520480804,0.6373925
 172,-0.0248747228\N,0,1.4180869592,1.0694143848,-0.0671194473\H,0,3.81
 34454737,1.802063735,-0.1526479863\H,0,3.0118199763,-1.9078949834,-0.1
 132678298\H,0,0.6130579484,-2.7226137733,-0.0428113697\H,0,-1.97097817
 54,-1.3790892745,-1.0445931401\H,0,-1.7763693811,-2.076255944,0.553890
 6617\H,0,-2.3719136271,0.0631811642,1.6265633791\H,0,-3.602031658,-0.2
 875554829,0.405883901\H,0,-2.8220936132,2.0993066748,0.3093678649\H,0,
 -2.4958951972,1.2334207958,-1.1986543427\H,0,-0.49359748,2.5422040246,
 -0.1127580586\\Version=ES64L-G16RevC.01\State=1-A\HF=-533.6897805\RMSD
 =8.197e-10\Dipole=-2.270905,-0.0261852,-0.0639018\Quadrupole=-5.847516
 3,6.1315134,-0.2839971,0.1352589,0.6535333,-0.6527514\PG=C01 [X(C9H10N
 2O1)]\\@
 The archive entry for this job was punched.


 Spring appears, and we are once more children.
                                  -- Anonymous
 Job cpu time:       0 days  0 hours 33 minutes 43.2 seconds.
 Elapsed time:       0 days  0 hours  2 minutes 14.7 seconds.
 File lengths (MBytes):  RWF=    109 Int=      0 D2E=      0 Chk=     18 Scr=      1
 Normal termination of Gaussian 16 at Wed Aug 14 19:06:40 2024.
 
 
-----Kestrel cluster job statistics-----
Time info:

real	11m59.625s
user	188m9.082s
sys	0m18.430s
 
Disk space usage:
18M	/scratch/362960.kestrel.chem.wisc.edu
