 Entering Gaussian System, Link 0=/share/apps/gaussian/g16/g16
 Initial command:
 /share/apps/gaussian/g16/l1.exe "/scratch/362955.kestrel.chem.wisc.edu/Gau-77045.inp" -scrdir="/scratch/362955.kestrel.chem.wisc.edu/"
 Entering Link 1 = /share/apps/gaussian/g16/l1.exe PID=     77054.
  
 Copyright (c) 1988-2019, Gaussian, Inc.  All Rights Reserved.
  
 This is part of the Gaussian(R) 16 program.  It is based on
 the Gaussian(R) 09 system (copyright 2009, Gaussian, Inc.),
 the Gaussian(R) 03 system (copyright 2003, Gaussian, Inc.),
 the Gaussian(R) 98 system (copyright 1998, Gaussian, Inc.),
 the Gaussian(R) 94 system (copyright 1995, Gaussian, Inc.),
 the Gaussian 92(TM) system (copyright 1992, Gaussian, Inc.),
 the Gaussian 90(TM) system (copyright 1990, Gaussian, Inc.),
 the Gaussian 88(TM) system (copyright 1988, Gaussian, Inc.),
 the Gaussian 86(TM) system (copyright 1986, Carnegie Mellon
 University), and the Gaussian 82(TM) system (copyright 1983,
 Carnegie Mellon University). Gaussian is a federally registered
 trademark of Gaussian, Inc.
  
 This software contains proprietary and confidential information,
 including trade secrets, belonging to Gaussian, Inc.
  
 This software is provided under written license and may be
 used, copied, transmitted, or stored only in accord with that
 written license.
  
 The following legend is applicable only to US Government
 contracts under FAR:
  
                    RESTRICTED RIGHTS LEGEND
  
 Use, reproduction and disclosure by the US Government is
 subject to restrictions as set forth in subparagraphs (a)
 and (c) of the Commercial Computer Software - Restricted
 Rights clause in FAR 52.227-19.
  
 Gaussian, Inc.
 340 Quinnipiac St., Bldg. 40, Wallingford CT 06492
  
  
 ---------------------------------------------------------------
 Warning -- This program may not be used in any manner that
 competes with the business of Gaussian, Inc. or will provide
 assistance to any competitor of Gaussian, Inc.  The licensee
 of this program is prohibited from giving any competitor of
 Gaussian, Inc. access to this program.  By using this program,
 the user acknowledges that Gaussian, Inc. is engaged in the
 business of creating and licensing software in the field of
 computational chemistry and represents and warrants to the
 licensee that it is not a competitor of Gaussian, Inc. and that
 it will not use this program in any manner prohibited above.
 ---------------------------------------------------------------
  

 Cite this work as:
 Gaussian 16, Revision C.01,
 M. J. Frisch, G. W. Trucks, H. B. Schlegel, G. E. Scuseria, 
 M. A. Robb, J. R. Cheeseman, G. Scalmani, V. Barone, 
 G. A. Petersson, H. Nakatsuji, X. Li, M. Caricato, A. V. Marenich, 
 J. Bloino, B. G. Janesko, R. Gomperts, B. Mennucci, H. P. Hratchian, 
 J. V. Ortiz, A. F. Izmaylov, J. L. Sonnenberg, D. Williams-Young, 
 F. Ding, F. Lipparini, F. Egidi, J. Goings, B. Peng, A. Petrone, 
 T. Henderson, D. Ranasinghe, V. G. Zakrzewski, J. Gao, N. Rega, 
 G. Zheng, W. Liang, M. Hada, M. Ehara, K. Toyota, R. Fukuda, 
 J. Hasegawa, M. Ishida, T. Nakajima, Y. Honda, O. Kitao, H. Nakai, 
 T. Vreven, K. Throssell, J. A. Montgomery, Jr., J. E. Peralta, 
 F. Ogliaro, M. J. Bearpark, J. J. Heyd, E. N. Brothers, K. N. Kudin, 
 V. N. Staroverov, T. A. Keith, R. Kobayashi, J. Normand, 
 K. Raghavachari, A. P. Rendell, J. C. Burant, S. S. Iyengar, 
 J. Tomasi, M. Cossi, J. M. Millam, M. Klene, C. Adamo, R. Cammi, 
 J. W. Ochterski, R. L. Martin, K. Morokuma, O. Farkas, 
 J. B. Foresman, and D. J. Fox, Gaussian, Inc., Wallingford CT, 2019.
 
 ******************************************
 Gaussian 16:  ES64L-G16RevC.01  3-Jul-2019
                14-Aug-2024 
 ******************************************
 %nprocs=16
 Will use up to   16 processors via shared memory.
 %mem=16GB
 %chk=pyrd10_conf-8.chk
 ----------------------------------------------------------------------
 # B3LYP/6-31G(d,p) symmetry=loose empiricaldispersion=GD3BJ int=(grid=
 ultrafine) opt freq=noraman
 ----------------------------------------------------------------------
 1/18=20,19=15,26=4,38=1/1,3;
 2/9=110,12=2,17=4,18=3,40=1/2;
 3/5=1,6=6,7=101,11=2,25=1,30=1,71=1,74=-5,75=-5,124=41/1,2,3;
 4//1;
 5/5=2,38=5/2;
 6/7=2,8=2,9=2,10=2,28=1/1;
 7//1,2,3,16;
 1/18=20,19=15,26=4/3(2);
 2/9=110/2;
 99//99;
 2/9=110/2;
 3/5=1,6=6,7=101,11=2,25=1,30=1,71=1,74=-5,75=-5,124=41/1,2,3;
 4/5=5,16=3,69=1/1;
 5/5=2,38=5/2;
 7//1,2,3,16;
 1/18=20,19=15,26=4/3(-5);
 2/9=110/2;
 6/7=2,8=2,9=2,10=2,19=2,28=1/1;
 99/9=1/99;
 ----------
 pyrd10.xyz
 ----------
 Symbolic Z-matrix:
 Charge =  0 Multiplicity = 1
 Br                    5.084    -0.1287    0.4685 
 C                     4.4492   -1.9524   -0.0196 
 C                     2.9124   -2.0143    0.0137 
 C                     2.3139   -1.803     1.4226 
 C                     0.7983   -1.9598    1.5425 
 C                     0.2145   -1.9818    2.8149 
 N                    -1.1203   -2.1145    3.0223 
 C                    -1.9221   -2.227     1.9345 
 C                    -1.4307   -2.2105    0.6286 
 C                    -0.0545   -2.0742    0.4339 
 H                     4.8317   -2.1733   -1.0171 
 H                     4.9013   -2.6643    0.6726 
 H                     2.5155   -1.2683   -0.6767 
 H                     2.5974   -2.988    -0.3651 
 H                     2.5722   -0.8072    1.7875 
 H                     2.7765   -2.5105    2.1133 
 H                     0.8207   -1.8904    3.7046 
 H                    -2.9802   -2.3295    2.1294 
 H                    -2.1003   -2.2989   -0.2143 
 H                     0.3283   -2.0558   -0.5749 
 

 GradGradGradGradGradGradGradGradGradGradGradGradGradGradGradGradGradGrad
 Berny optimization.
 Initialization pass.
                           ----------------------------
                           !    Initial Parameters    !
                           ! (Angstroms and Degrees)  !
 --------------------------                            --------------------------
 ! Name  Definition              Value          Derivative Info.                !
 --------------------------------------------------------------------------------
 ! R1    R(1,2)                  1.9918         estimate D2E/DX2                !
 ! R2    R(2,3)                  1.5384         estimate D2E/DX2                !
 ! R3    R(2,11)                 1.0909         estimate D2E/DX2                !
 ! R4    R(2,12)                 1.091          estimate D2E/DX2                !
 ! R5    R(3,4)                  1.5453         estimate D2E/DX2                !
 ! R6    R(3,13)                 1.0912         estimate D2E/DX2                !
 ! R7    R(3,14)                 1.0912         estimate D2E/DX2                !
 ! R8    R(4,5)                  1.5284         estimate D2E/DX2                !
 ! R9    R(4,15)                 1.0916         estimate D2E/DX2                !
 ! R10   R(4,16)                 1.0916         estimate D2E/DX2                !
 ! R11   R(5,6)                  1.4001         estimate D2E/DX2                !
 ! R12   R(5,10)                 1.4033         estimate D2E/DX2                !
 ! R13   R(6,7)                  1.3573         estimate D2E/DX2                !
 ! R14   R(6,17)                 1.0805         estimate D2E/DX2                !
 ! R15   R(7,8)                  1.356          estimate D2E/DX2                !
 ! R16   R(8,9)                  1.3954         estimate D2E/DX2                !
 ! R17   R(8,18)                 1.0808         estimate D2E/DX2                !
 ! R18   R(9,10)                 1.3966         estimate D2E/DX2                !
 ! R19   R(9,19)                 1.0801         estimate D2E/DX2                !
 ! R20   R(10,20)                1.0791         estimate D2E/DX2                !
 ! A1    A(1,2,3)              110.4823         estimate D2E/DX2                !
 ! A2    A(1,2,11)             107.3214         estimate D2E/DX2                !
 ! A3    A(1,2,12)             108.0534         estimate D2E/DX2                !
 ! A4    A(3,2,11)             111.2169         estimate D2E/DX2                !
 ! A5    A(3,2,12)             111.9601         estimate D2E/DX2                !
 ! A6    A(11,2,12)            107.6199         estimate D2E/DX2                !
 ! A7    A(2,3,4)              113.6495         estimate D2E/DX2                !
 ! A8    A(2,3,13)             108.7929         estimate D2E/DX2                !
 ! A9    A(2,3,14)             108.4665         estimate D2E/DX2                !
 ! A10   A(4,3,13)             110.0297         estimate D2E/DX2                !
 ! A11   A(4,3,14)             109.0688         estimate D2E/DX2                !
 ! A12   A(13,3,14)            106.5824         estimate D2E/DX2                !
 ! A13   A(3,4,5)              116.2038         estimate D2E/DX2                !
 ! A14   A(3,4,15)             109.7482         estimate D2E/DX2                !
 ! A15   A(3,4,16)             108.9133         estimate D2E/DX2                !
 ! A16   A(5,4,15)             107.579          estimate D2E/DX2                !
 ! A17   A(5,4,16)             107.704          estimate D2E/DX2                !
 ! A18   A(15,4,16)            106.2285         estimate D2E/DX2                !
 ! A19   A(4,5,6)              119.1029         estimate D2E/DX2                !
 ! A20   A(4,5,10)             123.2982         estimate D2E/DX2                !
 ! A21   A(6,5,10)             117.5969         estimate D2E/DX2                !
 ! A22   A(5,6,7)              123.3978         estimate D2E/DX2                !
 ! A23   A(5,6,17)             120.8681         estimate D2E/DX2                !
 ! A24   A(7,6,17)             115.7341         estimate D2E/DX2                !
 ! A25   A(6,7,8)              117.8401         estimate D2E/DX2                !
 ! A26   A(7,8,9)              122.7882         estimate D2E/DX2                !
 ! A27   A(7,8,18)             116.2368         estimate D2E/DX2                !
 ! A28   A(9,8,18)             120.9748         estimate D2E/DX2                !
 ! A29   A(8,9,10)             118.5971         estimate D2E/DX2                !
 ! A30   A(8,9,19)             120.7335         estimate D2E/DX2                !
 ! A31   A(10,9,19)            120.6692         estimate D2E/DX2                !
 ! A32   A(5,10,9)             119.7789         estimate D2E/DX2                !
 ! A33   A(5,10,20)            121.4347         estimate D2E/DX2                !
 ! A34   A(9,10,20)            118.7861         estimate D2E/DX2                !
 ! D1    D(1,2,3,4)            -64.7854         estimate D2E/DX2                !
 ! D2    D(1,2,3,13)            58.1699         estimate D2E/DX2                !
 ! D3    D(1,2,3,14)           173.7307         estimate D2E/DX2                !
 ! D4    D(11,2,3,4)           176.1403         estimate D2E/DX2                !
 ! D5    D(11,2,3,13)          -60.9044         estimate D2E/DX2                !
 ! D6    D(11,2,3,14)           54.6564         estimate D2E/DX2                !
 ! D7    D(12,2,3,4)            55.6995         estimate D2E/DX2                !
 ! D8    D(12,2,3,13)          178.6548         estimate D2E/DX2                !
 ! D9    D(12,2,3,14)          -65.7845         estimate D2E/DX2                !
 ! D10   D(2,3,4,5)           -175.4496         estimate D2E/DX2                !
 ! D11   D(2,3,4,15)            62.252          estimate D2E/DX2                !
 ! D12   D(2,3,4,16)           -53.6533         estimate D2E/DX2                !
 ! D13   D(13,3,4,5)            62.2762         estimate D2E/DX2                !
 ! D14   D(13,3,4,15)          -60.0222         estimate D2E/DX2                !
 ! D15   D(13,3,4,16)         -175.9275         estimate D2E/DX2                !
 ! D16   D(14,3,4,5)           -54.3021         estimate D2E/DX2                !
 ! D17   D(14,3,4,15)         -176.6005         estimate D2E/DX2                !
 ! D18   D(14,3,4,16)           67.4942         estimate D2E/DX2                !
 ! D19   D(3,4,5,6)            170.485          estimate D2E/DX2                !
 ! D20   D(3,4,5,10)           -10.0324         estimate D2E/DX2                !
 ! D21   D(15,4,5,6)           -66.0824         estimate D2E/DX2                !
 ! D22   D(15,4,5,10)          113.4002         estimate D2E/DX2                !
 ! D23   D(16,4,5,6)            48.0512         estimate D2E/DX2                !
 ! D24   D(16,4,5,10)         -132.4662         estimate D2E/DX2                !
 ! D25   D(4,5,6,7)            179.8891         estimate D2E/DX2                !
 ! D26   D(4,5,6,17)            -0.0416         estimate D2E/DX2                !
 ! D27   D(10,5,6,7)             0.3771         estimate D2E/DX2                !
 ! D28   D(10,5,6,17)         -179.5537         estimate D2E/DX2                !
 ! D29   D(4,5,10,9)          -179.8041         estimate D2E/DX2                !
 ! D30   D(4,5,10,20)           -0.0354         estimate D2E/DX2                !
 ! D31   D(6,5,10,9)            -0.3142         estimate D2E/DX2                !
 ! D32   D(6,5,10,20)          179.4545         estimate D2E/DX2                !
 ! D33   D(5,6,7,8)             -0.1989         estimate D2E/DX2                !
 ! D34   D(17,6,7,8)           179.7351         estimate D2E/DX2                !
 ! D35   D(6,7,8,9)             -0.0437         estimate D2E/DX2                !
 ! D36   D(6,7,8,18)          -179.8903         estimate D2E/DX2                !
 ! D37   D(7,8,9,10)             0.0917         estimate D2E/DX2                !
 ! D38   D(7,8,9,19)          -179.7663         estimate D2E/DX2                !
 ! D39   D(18,8,9,10)          179.9312         estimate D2E/DX2                !
 ! D40   D(18,8,9,19)            0.0732         estimate D2E/DX2                !
 ! D41   D(8,9,10,5)             0.0957         estimate D2E/DX2                !
 ! D42   D(8,9,10,20)         -179.6792         estimate D2E/DX2                !
 ! D43   D(19,9,10,5)          179.9538         estimate D2E/DX2                !
 ! D44   D(19,9,10,20)           0.1789         estimate D2E/DX2                !
 --------------------------------------------------------------------------------
 Trust Radius=3.00D-01 FncErr=1.00D-07 GrdErr=1.00D-06 EigMax=2.50D+02 EigMin=1.00D-04
 Number of steps in this run=    108 maximum allowed number of steps=    120.
 GradGradGradGradGradGradGradGradGradGradGradGradGradGradGradGradGradGrad

                          Input orientation:                          
 ---------------------------------------------------------------------
 Center     Atomic      Atomic             Coordinates (Angstroms)
 Number     Number       Type             X           Y           Z
 ---------------------------------------------------------------------
      1         35           0        5.084000   -0.128700    0.468500
      2          6           0        4.449200   -1.952400   -0.019600
      3          6           0        2.912400   -2.014300    0.013700
      4          6           0        2.313900   -1.803000    1.422600
      5          6           0        0.798300   -1.959800    1.542500
      6          6           0        0.214500   -1.981800    2.814900
      7          7           0       -1.120300   -2.114500    3.022300
      8          6           0       -1.922100   -2.227000    1.934500
      9          6           0       -1.430700   -2.210500    0.628600
     10          6           0       -0.054500   -2.074200    0.433900
     11          1           0        4.831700   -2.173300   -1.017100
     12          1           0        4.901300   -2.664300    0.672600
     13          1           0        2.515500   -1.268300   -0.676700
     14          1           0        2.597400   -2.988000   -0.365100
     15          1           0        2.572200   -0.807200    1.787500
     16          1           0        2.776500   -2.510500    2.113300
     17          1           0        0.820700   -1.890400    3.704600
     18          1           0       -2.980200   -2.329500    2.129400
     19          1           0       -2.100300   -2.298900   -0.214300
     20          1           0        0.328300   -2.055800   -0.574900
 ---------------------------------------------------------------------
                    Distance matrix (angstroms):
                    1          2          3          4          5
     1  Br   0.000000
     2  C    1.991757   0.000000
     3  C    2.911731   1.538407   0.000000
     4  C    3.374469   2.581040   1.545267   0.000000
     5  C    4.782638   3.971056   2.609525   1.528400   0.000000
     6  C    5.714158   5.095875   3.889273   2.525460   1.400110
     7  N    6.997045   6.348131   5.032334   3.801290   2.427914
     8  C    7.459052   6.669886   5.206448   4.287833   2.761455
     9  C    6.841114   5.921149   4.390799   3.849483   2.422087
    10  C    5.494575   4.528113   2.997107   2.580774   1.403335
    11  H    2.539892   1.090921   2.184386   3.525418   4.781783
    12  H    2.550354   1.091026   2.193712   2.828246   4.252958
    13  H    3.034364   2.153827   1.091191   2.175685   2.889948
    14  H    3.879905   2.149651   1.091241   2.163439   2.816539
    15  H    2.917064   2.846089   2.172370   1.091553   2.129609
    16  H    3.701742   2.767429   2.161713   1.091614   2.131281
    17  H    5.634861   5.199954   4.244208   2.728518   2.163330
    18  H    8.522525   7.743151   6.268833   5.366960   3.841639
    19  H    7.535924   6.561549   5.025947   4.733975   3.406350
    20  H    5.236323   4.159431   2.650612   2.827812   2.171059
                    6          7          8          9         10
     6  C    0.000000
     7  N    1.357319   0.000000
     8  C    2.323852   1.356041   0.000000
     9  C    2.745705   2.415650   1.395393   0.000000
    10  C    2.397928   2.799530   2.400641   1.396572   0.000000
    11  H    6.003285   7.193505   7.370796   6.475134   5.098056
    12  H    5.198206   6.487144   6.952871   6.348393   4.996514
    13  H    4.242046   5.255254   5.237343   4.261930   2.913384
    14  H    4.099152   5.104780   5.127686   4.221082   2.916506
    15  H    2.827364   4.107106   4.715525   4.397216   3.215132
    16  H    2.708433   4.020963   4.710540   4.471562   3.320437
    17  H    1.080462   2.069598   3.281692   3.825316   3.390757
    18  H    3.285866   2.074301   1.080772   2.160443   3.391109
    19  H    3.825559   3.386736   2.157375   1.080120   2.157765
    20  H    3.392517   3.878368   3.375011   2.136920   1.079144
                   11         12         13         14         15
    11  H    0.000000
    12  H    1.760969   0.000000
    13  H    2.509916   3.075950   0.000000
    14  H    2.465956   2.547461   1.749620   0.000000
    15  H    3.851928   3.180649   2.507610   3.064345   0.000000
    16  H    3.759914   2.571779   3.065172   2.530326   1.746172
    17  H    6.201823   5.142299   4.738686   4.574259   2.813600
    18  H    8.423220   8.021995   6.261235   6.145386   5.767446
    19  H    6.979462   7.067002   4.752006   4.750367   5.297606
    20  H    4.526584   4.779002   2.326878   2.462078   3.489273
                   16         17         18         19         20
    16  H    0.000000
    17  H    2.596519   0.000000
    18  H    5.759567   4.137741   0.000000
    19  H    5.407927   4.904782   2.503615   0.000000
    20  H    3.664267   4.310909   4.281860   2.467231   0.000000
 Stoichiometry    C8H10BrN
 Framework group  C1[X(C8H10BrN)]
 Deg. of freedom    54
 Full point group                 C1      NOp   1
 Largest Abelian subgroup         C1      NOp   1
 Largest concise Abelian subgroup C1      NOp   1
                         Standard orientation:                         
 ---------------------------------------------------------------------
 Center     Atomic      Atomic             Coordinates (Angstroms)
 Number     Number       Type             X           Y           Z
 ---------------------------------------------------------------------
      1         35           0       -3.056154   -0.301858   -0.363771
      2          6           0       -2.083472    0.850465    0.937434
      3          6           0       -0.619538    1.036232    0.502597
      4          6           0        0.201701   -0.272683    0.515189
      5          6           0        1.690636   -0.138306    0.197353
      6          6           0        2.529785   -1.242972    0.386692
      7          7           0        3.862563   -1.221381    0.130663
      8          6           0        4.399141   -0.066777   -0.336052
      9          6           0        3.640500    1.082765   -0.559961
     10          6           0        2.270827    1.042837   -0.290121
     11          1           0       -2.607203    1.806525    0.979439
     12          1           0       -2.160931    0.387912    1.922513
     13          1           0       -0.602513    1.478547   -0.494782
     14          1           0       -0.149222    1.758643    1.171725
     15          1           0       -0.224528   -0.982372   -0.196259
     16          1           0        0.112890   -0.736662    1.499291
     17          1           0        2.137544   -2.180783    0.752831
     18          1           0        5.461780   -0.079007   -0.532821
     19          1           0        4.101869    1.984003   -0.936217
     20          1           0        1.680273    1.928534   -0.467150
 ---------------------------------------------------------------------
 Rotational constants (GHZ):           3.0662159           0.3019070           0.2892705
 Standard basis: 6-31G(d,p) (6D, 7F)
 There are   215 symmetry adapted cartesian basis functions of A   symmetry.
 There are   215 symmetry adapted basis functions of A   symmetry.
   215 basis functions,   405 primitive gaussians,   215 cartesian basis functions
    50 alpha electrons       50 beta electrons
       nuclear repulsion energy       688.2332375900 Hartrees.
 NAtoms=   20 NActive=   20 NUniq=   20 SFac= 1.00D+00 NAtFMM=   60 NAOKFM=F Big=F
 Integral buffers will be    131072 words long.
 Raffenetti 2 integral format.
 Two-electron integral symmetry is turned on.
 Nuclear repulsion after empirical dispersion term =      688.1957875526 Hartrees.
 One-electron integrals computed using PRISM.
 NBasis=   215 RedAO= T EigKep=  7.47D-04  NBF=   215
 NBsUse=   215 1.00D-06 EigRej= -1.00D+00 NBFU=   215
 ExpMin= 1.43D-01 ExpMax= 5.74D+05 ExpMxC= 5.74D+03 IAcc=3 IRadAn=         5 AccDes= 0.00D+00
 Harris functional with IExCor=  402 and IRadAn=       5 diagonalized for initial guess.
 HarFok:  IExCor=  402 AccDes= 0.00D+00 IRadAn=         5 IDoV= 1 UseB2=F ITyADJ=14
 ICtDFT=  3500011 ScaDFX=  1.000000  1.000000  1.000000  1.000000
 FoFCou: FMM=F IPFlag=           0 FMFlag=      100000 FMFlg1=           0
         NFxFlg=           0 DoJE=T BraDBF=F KetDBF=T FulRan=T
         wScrn=  0.000000 ICntrl=       500 IOpCl=  0 I1Cent=   200000004 NGrid=           0
         NMat0=    1 NMatS0=      1 NMatT0=    0 NMatD0=    1 NMtDS0=    0 NMtDT0=    0
 Petite list used in FoFCou.
 Requested convergence on RMS density matrix=1.00D-08 within 128 cycles.
 Requested convergence on MAX density matrix=1.00D-06.
 Requested convergence on             energy=1.00D-06.
 No special actions if energy rises.
 Integral accuracy reduced to 1.0D-05 until final iterations.
 Initial convergence to 1.0D-05 achieved.  Increase integral accuracy.
 SCF Done:  E(RB3LYP) =  -2937.38319753     A.U. after   14 cycles
            NFock= 14  Conv=0.48D-08     -V/T= 2.0067

 **********************************************************************

            Population analysis using the SCF Density.

 **********************************************************************

 Orbital symmetries:
       Occupied  (A) (A) (A) (A) (A) (A) (A) (A) (A) (A) (A) (A)
                 (A) (A) (A) (A) (A) (A) (A) (A) (A) (A) (A) (A)
                 (A) (A) (A) (A) (A) (A) (A) (A) (A) (A) (A) (A)
                 (A) (A) (A) (A) (A) (A) (A) (A) (A) (A) (A) (A)
                 (A) (A)
       Virtual   (A) (A) (A) (A) (A) (A) (A) (A) (A) (A) (A) (A)
                 (A) (A) (A) (A) (A) (A) (A) (A) (A) (A) (A) (A)
                 (A) (A) (A) (A) (A) (A) (A) (A) (A) (A) (A) (A)
                 (A) (A) (A) (A) (A) (A) (A) (A) (A) (A) (A) (A)
                 (A) (A) (A) (A) (A) (A) (A) (A) (A) (A) (A) (A)
                 (A) (A) (A) (A) (A) (A) (A) (A) (A) (A) (A) (A)
                 (A) (A) (A) (A) (A) (A) (A) (A) (A) (A) (A) (A)
                 (A) (A) (A) (A) (A) (A) (A) (A) (A) (A) (A) (A)
                 (A) (A) (A) (A) (A) (A) (A) (A) (A) (A) (A) (A)
                 (A) (A) (A) (A) (A) (A) (A) (A) (A) (A) (A) (A)
                 (A) (A) (A) (A) (A) (A) (A) (A) (A) (A) (A) (A)
                 (A) (A) (A) (A) (A) (A) (A) (A) (A) (A) (A) (A)
                 (A) (A) (A) (A) (A) (A) (A) (A) (A) (A) (A) (A)
                 (A) (A) (A) (A) (A) (A) (A) (A) (A)
 The electronic state is 1-A.
 Alpha  occ. eigenvalues -- -482.90093 -61.86325 -56.38380 -56.38012 -56.38000
 Alpha  occ. eigenvalues --  -14.32977 -10.25286 -10.22029 -10.21992 -10.21054
 Alpha  occ. eigenvalues --  -10.20914 -10.20661 -10.20158 -10.19912  -8.57444
 Alpha  occ. eigenvalues --   -6.52817  -6.51557  -6.51540  -2.64378  -2.64031
 Alpha  occ. eigenvalues --   -2.64017  -2.63012  -2.63012  -0.92836  -0.83451
 Alpha  occ. eigenvalues --   -0.80410  -0.77501  -0.74087  -0.68437  -0.63525
 Alpha  occ. eigenvalues --   -0.61691  -0.58760  -0.52196  -0.48353  -0.48065
 Alpha  occ. eigenvalues --   -0.47190  -0.44842  -0.42600  -0.40849  -0.40263
 Alpha  occ. eigenvalues --   -0.39225  -0.37950  -0.36353  -0.35475  -0.34947
 Alpha  occ. eigenvalues --   -0.28204  -0.27719  -0.27603  -0.25222  -0.24983
 Alpha virt. eigenvalues --   -0.02426  -0.01065  -0.00538   0.08699   0.09847
 Alpha virt. eigenvalues --    0.11492   0.12259   0.13456   0.14067   0.15518
 Alpha virt. eigenvalues --    0.15929   0.17176   0.17203   0.20059   0.20584
 Alpha virt. eigenvalues --    0.21585   0.24600   0.25562   0.29202   0.31301
 Alpha virt. eigenvalues --    0.32753   0.36027   0.41230   0.42753   0.43573
 Alpha virt. eigenvalues --    0.44807   0.46519   0.47876   0.48519   0.50751
 Alpha virt. eigenvalues --    0.50852   0.51609   0.53848   0.54819   0.55295
 Alpha virt. eigenvalues --    0.56753   0.58263   0.58698   0.59430   0.60756
 Alpha virt. eigenvalues --    0.62374   0.63199   0.64616   0.65597   0.67655
 Alpha virt. eigenvalues --    0.68716   0.69947   0.73481   0.75007   0.77598
 Alpha virt. eigenvalues --    0.80400   0.81451   0.83067   0.83546   0.84524
 Alpha virt. eigenvalues --    0.85800   0.87081   0.87644   0.89507   0.90074
 Alpha virt. eigenvalues --    0.92117   0.93141   0.93761   0.96751   0.98596
 Alpha virt. eigenvalues --    1.01989   1.04355   1.05526   1.11654   1.16159
 Alpha virt. eigenvalues --    1.16814   1.19177   1.24888   1.26792   1.28125
 Alpha virt. eigenvalues --    1.34671   1.36864   1.40366   1.42432   1.43334
 Alpha virt. eigenvalues --    1.46975   1.47805   1.48303   1.56720   1.61689
 Alpha virt. eigenvalues --    1.62934   1.69300   1.72836   1.73956   1.74999
 Alpha virt. eigenvalues --    1.79166   1.80266   1.81977   1.86111   1.86194
 Alpha virt. eigenvalues --    1.90087   1.92256   1.93614   1.96837   1.98961
 Alpha virt. eigenvalues --    2.01903   2.02168   2.04151   2.08221   2.09596
 Alpha virt. eigenvalues --    2.11531   2.11930   2.15505   2.16272   2.23079
 Alpha virt. eigenvalues --    2.23726   2.29246   2.30332   2.30577   2.34083
 Alpha virt. eigenvalues --    2.36123   2.37368   2.39161   2.41292   2.43838
 Alpha virt. eigenvalues --    2.46886   2.47105   2.50279   2.51627   2.53446
 Alpha virt. eigenvalues --    2.56853   2.57309   2.61508   2.63486   2.66215
 Alpha virt. eigenvalues --    2.67531   2.68281   2.70095   2.74741   2.78458
 Alpha virt. eigenvalues --    2.81368   2.82664   2.84352   2.87568   2.91949
 Alpha virt. eigenvalues --    2.98806   3.04461   3.17527   3.21464   3.23516
 Alpha virt. eigenvalues --    3.25390   3.30007   3.35166   3.38636   3.39918
 Alpha virt. eigenvalues --    3.46156   3.46744   3.54279   3.78918   4.08915
 Alpha virt. eigenvalues --    4.14193   4.18117   4.28553   4.32386   4.39367
 Alpha virt. eigenvalues --    4.48075   4.61953   4.76908   8.63365  73.16144
          Condensed to atoms (all electrons):
               1          2          3          4          5          6
     1  Br  35.011928   0.254665  -0.051770  -0.010892   0.000262   0.000005
     2  C    0.254665   4.973733   0.340215  -0.039272   0.002923  -0.000079
     3  C   -0.051770   0.340215   4.963083   0.359320  -0.028472   0.002477
     4  C   -0.010892  -0.039272   0.359320   5.039490   0.330519  -0.045083
     5  C    0.000262   0.002923  -0.028472   0.330519   4.833877   0.474955
     6  C    0.000005  -0.000079   0.002477  -0.045083   0.474955   4.821823
     7  N   -0.000000   0.000000  -0.000105   0.005254  -0.013118   0.439159
     8  C    0.000000   0.000000   0.000000   0.000321  -0.033465  -0.072670
     9  C   -0.000000  -0.000003  -0.000035   0.008025  -0.021607  -0.041075
    10  C   -0.000019   0.000302  -0.003835  -0.067211   0.545209  -0.036041
    11  H   -0.037111   0.378273  -0.031211   0.003898  -0.000080   0.000001
    12  H   -0.037475   0.376304  -0.034956  -0.006478  -0.000011  -0.000005
    13  H   -0.000690  -0.038275   0.384335  -0.034635  -0.004051   0.000011
    14  H    0.004781  -0.030584   0.369579  -0.039537  -0.001369   0.000155
    15  H    0.013163  -0.005009  -0.034719   0.375502  -0.029098  -0.003271
    16  H   -0.000124  -0.003732  -0.040869   0.373759  -0.033424  -0.005301
    17  H   -0.000000  -0.000002  -0.000002  -0.003380  -0.070842   0.390352
    18  H    0.000000  -0.000000  -0.000000   0.000017   0.000789   0.004458
    19  H   -0.000000   0.000000   0.000002  -0.000122   0.004983   0.000518
    20  H   -0.000004  -0.000114   0.004948  -0.012994  -0.046749   0.005543
               7          8          9         10         11         12
     1  Br  -0.000000   0.000000  -0.000000  -0.000019  -0.037111  -0.037475
     2  C    0.000000   0.000000  -0.000003   0.000302   0.378273   0.376304
     3  C   -0.000105   0.000000  -0.000035  -0.003835  -0.031211  -0.034956
     4  C    0.005254   0.000321   0.008025  -0.067211   0.003898  -0.006478
     5  C   -0.013118  -0.033465  -0.021607   0.545209  -0.000080  -0.000011
     6  C    0.439159  -0.072670  -0.041075  -0.036041   0.000001  -0.000005
     7  N    6.726940   0.458288  -0.024254  -0.055054  -0.000000  -0.000000
     8  C    0.458288   4.724980   0.505945  -0.038910  -0.000000  -0.000000
     9  C   -0.024254   0.505945   4.915989   0.509212  -0.000000   0.000000
    10  C   -0.055054  -0.038910   0.509212   4.883243  -0.000001   0.000005
    11  H   -0.000000  -0.000000  -0.000000  -0.000001   0.582015  -0.037656
    12  H   -0.000000  -0.000000   0.000000   0.000005  -0.037656   0.583869
    13  H    0.000000  -0.000005   0.000035   0.001063  -0.003674   0.005394
    14  H   -0.000004  -0.000006  -0.000113   0.001022  -0.002252  -0.001847
    15  H   -0.000044   0.000038  -0.000175   0.000385   0.000085  -0.000165
    16  H    0.000052   0.000024  -0.000177   0.002953   0.000012   0.005234
    17  H   -0.049435   0.004836   0.000324   0.004087   0.000000   0.000001
    18  H   -0.050275   0.388008  -0.061764   0.003366  -0.000000   0.000000
    19  H    0.004889  -0.035744   0.358110  -0.039314   0.000000   0.000000
    20  H   -0.000245   0.004951  -0.047024   0.374748   0.000012   0.000003
              13         14         15         16         17         18
     1  Br  -0.000690   0.004781   0.013163  -0.000124  -0.000000   0.000000
     2  C   -0.038275  -0.030584  -0.005009  -0.003732  -0.000002  -0.000000
     3  C    0.384335   0.369579  -0.034719  -0.040869  -0.000002  -0.000000
     4  C   -0.034635  -0.039537   0.375502   0.373759  -0.003380   0.000017
     5  C   -0.004051  -0.001369  -0.029098  -0.033424  -0.070842   0.000789
     6  C    0.000011   0.000155  -0.003271  -0.005301   0.390352   0.004458
     7  N    0.000000  -0.000004  -0.000044   0.000052  -0.049435  -0.050275
     8  C   -0.000005  -0.000006   0.000038   0.000024   0.004836   0.388008
     9  C    0.000035  -0.000113  -0.000175  -0.000177   0.000324  -0.061764
    10  C    0.001063   0.001022   0.000385   0.002953   0.004087   0.003366
    11  H   -0.003674  -0.002252   0.000085   0.000012   0.000000  -0.000000
    12  H    0.005394  -0.001847  -0.000165   0.005234   0.000001   0.000000
    13  H    0.600825  -0.038316  -0.006018   0.005621   0.000003   0.000000
    14  H   -0.038316   0.622435   0.005589  -0.005155   0.000005  -0.000000
    15  H   -0.006018   0.005589   0.571730  -0.034230   0.001636  -0.000000
    16  H    0.005621  -0.005155  -0.034230   0.618985   0.003306  -0.000000
    17  H    0.000003   0.000005   0.001636   0.003306   0.621025  -0.000197
    18  H    0.000000  -0.000000  -0.000000  -0.000000  -0.000197   0.617893
    19  H    0.000002   0.000001   0.000002   0.000003   0.000027  -0.002286
    20  H    0.002199   0.001397   0.000234   0.000150  -0.000169  -0.000195
              19         20
     1  Br  -0.000000  -0.000004
     2  C    0.000000  -0.000114
     3  C    0.000002   0.004948
     4  C   -0.000122  -0.012994
     5  C    0.004983  -0.046749
     6  C    0.000518   0.005543
     7  N    0.004889  -0.000245
     8  C   -0.035744   0.004951
     9  C    0.358110  -0.047024
    10  C   -0.039314   0.374748
    11  H    0.000000   0.000012
    12  H    0.000000   0.000003
    13  H    0.000002   0.002199
    14  H    0.000001   0.001397
    15  H    0.000002   0.000234
    16  H    0.000003   0.000150
    17  H    0.000027  -0.000169
    18  H   -0.002286  -0.000195
    19  H    0.624683  -0.006677
    20  H   -0.006677   0.629707
 Mulliken charges:
               1
     1  Br  -0.146716
     2  C   -0.209345
     3  C   -0.197983
     4  C   -0.236500
     5  C    0.088770
     6  C    0.064069
     7  N   -0.442046
     8  C    0.093410
     9  C   -0.101412
    10  C   -0.085211
    11  H    0.147689
    12  H    0.147785
    13  H    0.126176
    14  H    0.114220
    15  H    0.144365
    16  H    0.112914
    17  H    0.098425
    18  H    0.100189
    19  H    0.090923
    20  H    0.090278
 Sum of Mulliken charges =  -0.00000
 Mulliken charges with hydrogens summed into heavy atoms:
               1
     1  Br  -0.146716
     2  C    0.086129
     3  C    0.042413
     4  C    0.020779
     5  C    0.088770
     6  C    0.162494
     7  N   -0.442046
     8  C    0.193599
     9  C   -0.010489
    10  C    0.005067
 Electronic spatial extent (au):  <R**2>=           3402.3042
 Charge=             -0.0000 electrons
 Dipole moment (field-independent basis, Debye):
    X=             -0.5433    Y=              2.7803    Z=              0.9266  Tot=              2.9805
 Quadrupole moment (field-independent basis, Debye-Ang):
   XX=            -82.2304   YY=            -69.9603   ZZ=            -70.8902
   XY=              5.9984   XZ=             -5.0006   YZ=              0.0623
 Traceless Quadrupole moment (field-independent basis, Debye-Ang):
   XX=             -7.8701   YY=              4.4000   ZZ=              3.4701
   XY=              5.9984   XZ=             -5.0006   YZ=              0.0623
 Octapole moment (field-independent basis, Debye-Ang**2):
  XXX=            -91.3535  YYY=             -0.9174  ZZZ=             -6.8774  XYY=            -42.7543
  XXY=             37.7014  XXZ=            -14.9677  XZZ=            -40.3821  YZZ=             -3.4344
  YYZ=             -4.2468  XYZ=             -7.5326
 Hexadecapole moment (field-independent basis, Debye-Ang**3):
 XXXX=          -3494.4403 YYYY=           -394.6107 ZZZZ=           -195.0776 XXXY=            185.5198
 XXXZ=            -43.4115 YYYX=             50.7614 YYYZ=             -0.8152 ZZZX=             33.5712
 ZZZY=              5.5453 XXYY=           -675.4090 XXZZ=           -609.4744 YYZZ=            -97.2391
 XXYZ=              7.6456 YYXZ=              3.8905 ZZXY=             10.8178
 N-N= 6.881957875526D+02 E-N=-8.356907874220D+03  KE= 2.917963551303D+03
 Calling FoFJK, ICntrl=      2127 FMM=F ISym2X=0 I1Cent= 0 IOpClX= 0 NMat=1 NMatS=1 NMatT=0.
 ***** Axes restored to original set *****
 -------------------------------------------------------------------
 Center     Atomic                   Forces (Hartrees/Bohr)
 Number     Number              X              Y              Z
 -------------------------------------------------------------------
      1       35           0.000251931   -0.006847813   -0.001406638
      2        6          -0.011801139   -0.003522146   -0.001591331
      3        6           0.002885330    0.005613135    0.009919620
      4        6          -0.006755951   -0.001398987   -0.005488631
      5        6           0.007701611   -0.000424161   -0.007982709
      6        6          -0.028127302   -0.003409589   -0.008868393
      7        7           0.006903666    0.000800395   -0.009766289
      8        6           0.018442342    0.002206636    0.008495373
      9        6           0.004295274    0.000910883    0.006399290
     10        6          -0.003191939   -0.000015967    0.007987684
     11        1           0.000537395    0.005012098   -0.000075686
     12        1           0.000941725    0.004298853    0.003695545
     13        1          -0.000295577    0.002084736   -0.001556927
     14        1           0.001173093   -0.004930366   -0.001489682
     15        1           0.003835582    0.002322616   -0.000634209
     16        1           0.002837689   -0.001911785    0.002257412
     17        1           0.003473576    0.000135668    0.004056554
     18        1          -0.004118900   -0.000538522    0.001471190
     19        1          -0.002550354   -0.000370759   -0.002547225
     20        1           0.003561946   -0.000014924   -0.002874949
 -------------------------------------------------------------------
 Cartesian Forces:  Max     0.028127302 RMS     0.006233448

 GradGradGradGradGradGradGradGradGradGradGradGradGradGradGradGradGradGrad
 Berny optimization.
 FormGI is forming the generalized inverse of G from B-inverse, IUseBI=4.
 Internal  Forces:  Max     0.018812609 RMS     0.003808067
 Search for a local minimum.
 Step number   1 out of a maximum of  108
 All quantities printed in internal units (Hartrees-Bohrs-Radians)
 Mixed Optimization -- RFO/linear search
 Second derivative matrix not updated -- first step.
 ITU=  0
     Eigenvalues ---    0.00230   0.00258   0.00390   0.01367   0.02073
     Eigenvalues ---    0.02091   0.02139   0.02142   0.02142   0.02188
     Eigenvalues ---    0.02233   0.03346   0.03594   0.04727   0.05189
     Eigenvalues ---    0.05456   0.05638   0.08440   0.09895   0.12294
     Eigenvalues ---    0.13179   0.14413   0.16000   0.16000   0.16000
     Eigenvalues ---    0.16000   0.16000   0.16000   0.21931   0.21998
     Eigenvalues ---    0.22000   0.22233   0.23190   0.23451   0.24999
     Eigenvalues ---    0.28057   0.28661   0.29572   0.34627   0.34634
     Eigenvalues ---    0.34670   0.34675   0.34694   0.34706   0.35901
     Eigenvalues ---    0.35939   0.35980   0.36098   0.42040   0.43300
     Eigenvalues ---    0.45712   0.46111   0.51808   0.52973
 RFO step:  Lambda=-4.74416746D-03 EMin= 2.30000000D-03
 Linear search not attempted -- first point.
 Iteration  1 RMS(Cart)=  0.02599191 RMS(Int)=  0.00029821
 Iteration  2 RMS(Cart)=  0.00029788 RMS(Int)=  0.00012834
 Iteration  3 RMS(Cart)=  0.00000010 RMS(Int)=  0.00012834
 Variable       Old X    -DE/DX   Delta X   Delta X   Delta X     New X
                                 (Linear)    (Quad)   (Total)
    R1        3.76387  -0.00653   0.00000  -0.04389  -0.04389   3.71999
    R2        2.90717  -0.01012   0.00000  -0.03472  -0.03472   2.87245
    R3        2.06154  -0.00076   0.00000  -0.00215  -0.00215   2.05939
    R4        2.06174  -0.00007   0.00000  -0.00020  -0.00020   2.06154
    R5        2.92013  -0.00951   0.00000  -0.03333  -0.03333   2.88680
    R6        2.06205   0.00252   0.00000   0.00716   0.00716   2.06922
    R7        2.06215   0.00458   0.00000   0.01303   0.01303   2.07517
    R8        2.88826  -0.00655   0.00000  -0.02179  -0.02179   2.86647
    R9        2.06274   0.00281   0.00000   0.00802   0.00802   2.07075
   R10        2.06285   0.00387   0.00000   0.01102   0.01102   2.07388
   R11        2.64582  -0.00029   0.00000  -0.00092  -0.00089   2.64494
   R12        2.65192  -0.00824   0.00000  -0.01674  -0.01672   2.63519
   R13        2.56496  -0.01881   0.00000  -0.03618  -0.03617   2.52879
   R14        2.04178   0.00530   0.00000   0.01456   0.01456   2.05633
   R15        2.56255  -0.01682   0.00000  -0.03214  -0.03216   2.53038
   R16        2.63691  -0.00238   0.00000  -0.00490  -0.00493   2.63198
   R17        2.04236   0.00435   0.00000   0.01196   0.01196   2.05432
   R18        2.63914  -0.00349   0.00000  -0.00593  -0.00595   2.63319
   R19        2.04113   0.00360   0.00000   0.00987   0.00987   2.05100
   R20        2.03929   0.00395   0.00000   0.01080   0.01080   2.05009
    A1        1.92828   0.00459   0.00000   0.01040   0.01046   1.93874
    A2        1.87311  -0.00396   0.00000  -0.03137  -0.03132   1.84179
    A3        1.88589  -0.00472   0.00000  -0.04334  -0.04328   1.84261
    A4        1.94110   0.00114   0.00000   0.01644   0.01605   1.95715
    A5        1.95407   0.00079   0.00000   0.01014   0.00975   1.96383
    A6        1.87832   0.00171   0.00000   0.03485   0.03412   1.91245
    A7        1.98356  -0.00204   0.00000  -0.01237  -0.01240   1.97116
    A8        1.89879   0.00055   0.00000   0.00104   0.00111   1.89990
    A9        1.89310  -0.00111   0.00000  -0.01772  -0.01770   1.87540
   A10        1.92038   0.00074   0.00000   0.00800   0.00795   1.92833
   A11        1.90361   0.00171   0.00000   0.01008   0.00985   1.91346
   A12        1.86021   0.00026   0.00000   0.01218   0.01208   1.87229
   A13        2.02814  -0.00445   0.00000  -0.01927  -0.01921   2.00893
   A14        1.91547  -0.00144   0.00000  -0.01900  -0.01889   1.89658
   A15        1.90090   0.00090   0.00000   0.00019   0.00028   1.90118
   A16        1.87761   0.00394   0.00000   0.02722   0.02699   1.90460
   A17        1.87979   0.00207   0.00000   0.01609   0.01599   1.89578
   A18        1.85404  -0.00069   0.00000  -0.00343  -0.00374   1.85029
   A19        2.07874   0.00155   0.00000   0.00512   0.00510   2.08384
   A20        2.15196   0.00211   0.00000   0.00734   0.00732   2.15928
   A21        2.05245  -0.00366   0.00000  -0.01248  -0.01243   2.04002
   A22        2.15370   0.00707   0.00000   0.02761   0.02765   2.18135
   A23        2.10955  -0.00411   0.00000  -0.01729  -0.01732   2.09223
   A24        2.01994  -0.00296   0.00000  -0.01031  -0.01033   2.00961
   A25        2.05670  -0.00259   0.00000  -0.01840  -0.01841   2.03829
   A26        2.14306   0.00282   0.00000   0.01003   0.00997   2.15303
   A27        2.02872  -0.00212   0.00000  -0.00931  -0.00929   2.01943
   A28        2.11141  -0.00070   0.00000  -0.00070  -0.00068   2.11073
   A29        2.06991  -0.00017   0.00000   0.00279   0.00274   2.07265
   A30        2.10720  -0.00034   0.00000  -0.00397  -0.00395   2.10325
   A31        2.10608   0.00051   0.00000   0.00119   0.00121   2.10729
   A32        2.09054  -0.00346   0.00000  -0.00950  -0.00950   2.08104
   A33        2.11943  -0.00060   0.00000  -0.00941  -0.00941   2.11002
   A34        2.07321   0.00406   0.00000   0.01892   0.01892   2.09212
    D1       -1.13072   0.00043   0.00000   0.00764   0.00770  -1.12301
    D2        1.01526   0.00038   0.00000   0.01022   0.01024   1.02550
    D3        3.03217   0.00038   0.00000   0.01567   0.01560   3.04777
    D4        3.07423   0.00165   0.00000   0.02952   0.02977   3.10400
    D5       -1.06298   0.00160   0.00000   0.03210   0.03231  -1.03067
    D6        0.95393   0.00160   0.00000   0.03755   0.03767   0.99160
    D7        0.97214  -0.00188   0.00000  -0.03344  -0.03358   0.93856
    D8        3.11811  -0.00192   0.00000  -0.03086  -0.03105   3.08707
    D9       -1.14816  -0.00192   0.00000  -0.02542  -0.02569  -1.17384
   D10       -3.06217   0.00053   0.00000  -0.00774  -0.00766  -3.06983
   D11        1.08650  -0.00029   0.00000  -0.01454  -0.01458   1.07192
   D12       -0.93643   0.00082   0.00000   0.00001   0.00004  -0.93639
   D13        1.08693   0.00071   0.00000  -0.00633  -0.00622   1.08071
   D14       -1.04758  -0.00012   0.00000  -0.01313  -0.01314  -1.06072
   D15       -3.07051   0.00100   0.00000   0.00142   0.00148  -3.06904
   D16       -0.94775  -0.00102   0.00000  -0.03143  -0.03144  -0.97919
   D17       -3.08226  -0.00185   0.00000  -0.03823  -0.03836  -3.12062
   D18        1.17800  -0.00073   0.00000  -0.02368  -0.02374   1.15425
   D19        2.97553   0.00046   0.00000  -0.00474  -0.00467   2.97086
   D20       -0.17510   0.00042   0.00000  -0.00671  -0.00666  -0.18176
   D21       -1.15336  -0.00142   0.00000  -0.02163  -0.02184  -1.17520
   D22        1.97921  -0.00146   0.00000  -0.02359  -0.02383   1.95537
   D23        0.83865   0.00074   0.00000  -0.00433  -0.00414   0.83451
   D24       -2.31197   0.00069   0.00000  -0.00629  -0.00613  -2.31811
   D25        3.13966  -0.00019   0.00000  -0.00859  -0.00865   3.13101
   D26       -0.00073  -0.00025   0.00000  -0.01030  -0.01030  -0.01103
   D27        0.00658  -0.00017   0.00000  -0.00684  -0.00689  -0.00031
   D28       -3.13380  -0.00023   0.00000  -0.00854  -0.00854   3.14084
   D29       -3.13817   0.00021   0.00000   0.00806   0.00801  -3.13016
   D30       -0.00062   0.00025   0.00000   0.00969   0.00964   0.00903
   D31       -0.00548   0.00018   0.00000   0.00620   0.00615   0.00066
   D32        3.13207   0.00023   0.00000   0.00783   0.00778   3.13985
   D33       -0.00347   0.00010   0.00000   0.00365   0.00367   0.00020
   D34        3.13697   0.00015   0.00000   0.00526   0.00525  -3.14097
   D35       -0.00076  -0.00000   0.00000   0.00026   0.00030  -0.00046
   D36       -3.13968  -0.00013   0.00000  -0.00490  -0.00487   3.13864
   D37        0.00160  -0.00002   0.00000  -0.00076  -0.00076   0.00084
   D38       -3.13751  -0.00010   0.00000  -0.00425  -0.00428   3.14139
   D39        3.14039   0.00012   0.00000   0.00463   0.00466  -3.13814
   D40        0.00128   0.00003   0.00000   0.00113   0.00113   0.00241
   D41        0.00167  -0.00006   0.00000  -0.00255  -0.00259  -0.00092
   D42       -3.13599  -0.00009   0.00000  -0.00407  -0.00414  -3.14014
   D43        3.14079   0.00003   0.00000   0.00094   0.00094  -3.14146
   D44        0.00312  -0.00000   0.00000  -0.00059  -0.00062   0.00251
         Item               Value     Threshold  Converged?
 Maximum Force            0.018813     0.000450     NO 
 RMS     Force            0.003808     0.000300     NO 
 Maximum Displacement     0.077567     0.001800     NO 
 RMS     Displacement     0.026022     0.001200     NO 
 Predicted change in Energy=-2.450584D-03
 GradGradGradGradGradGradGradGradGradGradGradGradGradGradGradGradGradGrad

                          Input orientation:                          
 ---------------------------------------------------------------------
 Center     Atomic      Atomic             Coordinates (Angstroms)
 Number     Number       Type             X           Y           Z
 ---------------------------------------------------------------------
      1         35           0        5.043973   -0.152961    0.474425
      2          6           0        4.408153   -1.951969   -0.009743
      3          6           0        2.890092   -2.022367    0.022402
      4          6           0        2.313559   -1.807357    1.420626
      5          6           0        0.808595   -1.964193    1.527285
      6          6           0        0.208669   -1.991939    2.791529
      7          7           0       -1.105146   -2.113476    3.014779
      8          6           0       -1.893427   -2.215559    1.937202
      9          6           0       -1.410662   -2.199826    0.630859
     10          6           0       -0.038427   -2.072689    0.424847
     11          1           0        4.807161   -2.144220   -1.005463
     12          1           0        4.873128   -2.629817    0.707492
     13          1           0        2.486619   -1.282232   -0.676450
     14          1           0        2.598453   -3.013975   -0.348486
     15          1           0        2.595602   -0.806448    1.766173
     16          1           0        2.789356   -2.512327    2.114187
     17          1           0        0.824024   -1.911601    3.685391
     18          1           0       -2.956903   -2.316340    2.138809
     19          1           0       -2.092137   -2.286100   -0.209452
     20          1           0        0.357120   -2.057005   -0.585212
 ---------------------------------------------------------------------
                    Distance matrix (angstroms):
                    1          2          3          4          5
     1  Br   0.000000
     2  C    1.968532   0.000000
     3  C    2.887596   1.520033   0.000000
     4  C    3.329787   2.540511   1.527629   0.000000
     5  C    4.725198   3.914004   2.569180   1.516869   0.000000
     6  C    5.668419   5.048207   3.854740   2.518731   1.399641
     7  N    6.936042   6.290492   4.992449   3.784518   2.428441
     8  C    7.383870   6.600757   5.156145   4.258193   2.744474
     9  C    6.773215   5.859216   4.347205   3.827217   2.405037
    10  C    5.433103   4.469399   2.956471   2.567843   1.394485
    11  H    2.492240   1.089782   2.178649   3.495345   4.736639
    12  H    2.493657   1.090919   2.184211   2.781437   4.199469
    13  H    3.023215   2.141341   1.094982   2.168740   2.852592
    14  H    3.852681   2.125469   1.098134   2.160290   2.797169
    15  H    2.844324   2.784141   2.146141   1.095796   2.142623
    16  H    3.652222   2.728660   2.150761   1.097448   2.137362
    17  H    5.586688   5.147973   4.206946   2.712700   2.158802
    18  H    8.453661   7.680696   6.225186   5.343465   3.831050
    19  H    7.479440   6.511935   4.994589   4.721918   3.396193
    20  H    5.168637   4.093052   2.605061   2.813071   2.162195
                    6          7          8          9         10
     6  C    0.000000
     7  N    1.338178   0.000000
     8  C    2.280063   1.339022   0.000000
     9  C    2.708126   2.404968   1.392782   0.000000
    10  C    2.380917   2.801303   2.397635   1.393425   0.000000
    11  H    5.965439   7.149732   7.318623   6.429772   5.052785
    12  H    5.148522   6.428836   6.889852   6.298951   4.951127
    13  H    4.209468   5.216983   5.185275   4.211868   2.865926
    14  H    4.076190   5.083217   5.102826   4.206538   2.904686
    15  H    2.855555   4.118601   4.708102   4.390967   3.215686
    16  H    2.718371   4.017125   4.695514   4.465206   3.323178
    17  H    1.088166   2.052357   3.245473   3.795664   3.376525
    18  H    3.248404   2.058514   1.087098   2.162949   3.393307
    19  H    3.792905   3.376331   2.156985   1.085344   2.160000
    20  H    3.380629   3.886045   3.384180   2.150413   1.084860
                   11         12         13         14         15
    11  H    0.000000
    12  H    1.781676   0.000000
    13  H    2.497237   3.070294   0.000000
    14  H    2.463023   2.537088   1.766069   0.000000
    15  H    3.789801   3.103644   2.490914   3.056954   0.000000
    16  H    3.733531   2.516883   3.064708   2.520487   1.751764
    17  H    6.158214   5.077298   4.710200   4.542686   2.836062
    18  H    8.378351   7.965947   6.215061   6.126607   5.766189
    19  H    6.946516   7.033765   4.710715   4.748765   5.297864
    20  H    4.470692   4.732180   2.267898   2.448552   3.479038
                   16         17         18         19         20
    16  H    0.000000
    17  H    2.586906   0.000000
    18  H    5.749652   4.105014   0.000000
    19  H    5.411049   4.879963   2.502611   0.000000
    20  H    3.661946   4.298511   4.297708   2.488481   0.000000
 Stoichiometry    C8H10BrN
 Framework group  C1[X(C8H10BrN)]
 Deg. of freedom    54
 Full point group                 C1      NOp   1
 Largest Abelian subgroup         C1      NOp   1
 Largest concise Abelian subgroup C1      NOp   1
                         Standard orientation:                         
 ---------------------------------------------------------------------
 Center     Atomic      Atomic             Coordinates (Angstroms)
 Number     Number       Type             X           Y           Z
 ---------------------------------------------------------------------
      1         35           0       -3.024130   -0.297858   -0.362350
      2          6           0       -2.058498    0.833687    0.926943
      3          6           0       -0.609790    1.025273    0.508564
      4          6           0        0.188460   -0.277196    0.513045
      5          6           0        1.664697   -0.128309    0.197692
      6          6           0        2.519292   -1.222095    0.377402
      7          7           0        3.833267   -1.218819    0.124067
      8          6           0        4.356331   -0.075107   -0.335617
      9          6           0        3.605248    1.077302   -0.553952
     10          6           0        2.238916    1.048431   -0.282040
     11          1           0       -2.605706    1.775693    0.955438
     12          1           0       -2.152171    0.327338    1.888682
     13          1           0       -0.586192    1.485773   -0.484596
     14          1           0       -0.156110    1.738489    1.209560
     15          1           0       -0.264414   -0.968561   -0.206461
     16          1           0        0.086528   -0.753851    1.496306
     17          1           0        2.122673   -2.164344    0.750181
     18          1           0        5.425286   -0.091185   -0.532742
     19          1           0        4.077485    1.980115   -0.927977
     20          1           0        1.636369    1.935393   -0.446838
 ---------------------------------------------------------------------
 Rotational constants (GHZ):           3.1114687           0.3078483           0.2949068
 Standard basis: 6-31G(d,p) (6D, 7F)
 There are   215 symmetry adapted cartesian basis functions of A   symmetry.
 There are   215 symmetry adapted basis functions of A   symmetry.
   215 basis functions,   405 primitive gaussians,   215 cartesian basis functions
    50 alpha electrons       50 beta electrons
       nuclear repulsion energy       694.1152237909 Hartrees.
 NAtoms=   20 NActive=   20 NUniq=   20 SFac= 1.00D+00 NAtFMM=   60 NAOKFM=F Big=F
 Integral buffers will be    131072 words long.
 Raffenetti 2 integral format.
 Two-electron integral symmetry is turned on.
 Nuclear repulsion after empirical dispersion term =      694.0774638000 Hartrees.
 One-electron integrals computed using PRISM.
 NBasis=   215 RedAO= T EigKep=  7.28D-04  NBF=   215
 NBsUse=   215 1.00D-06 EigRej= -1.00D+00 NBFU=   215
 Initial guess from the checkpoint file:  "pyrd10_conf-8.chk"
 B after Tr=    -0.000000   -0.000000    0.000000
         Rot=    0.999996   -0.002935    0.000095   -0.000242 Ang=  -0.34 deg.
 ExpMin= 1.43D-01 ExpMax= 5.74D+05 ExpMxC= 5.74D+03 IAcc=3 IRadAn=         5 AccDes= 0.00D+00
 Harris functional with IExCor=  402 and IRadAn=       5 diagonalized for initial guess.
 HarFok:  IExCor=  402 AccDes= 0.00D+00 IRadAn=         5 IDoV= 1 UseB2=F ITyADJ=14
 ICtDFT=  3500011 ScaDFX=  1.000000  1.000000  1.000000  1.000000
 FoFCou: FMM=F IPFlag=           0 FMFlag=      100000 FMFlg1=           0
         NFxFlg=           0 DoJE=T BraDBF=F KetDBF=T FulRan=T
         wScrn=  0.000000 ICntrl=       500 IOpCl=  0 I1Cent=   200000004 NGrid=           0
         NMat0=    1 NMatS0=      1 NMatT0=    0 NMatD0=    1 NMtDS0=    0 NMtDT0=    0
 Petite list used in FoFCou.
 Requested convergence on RMS density matrix=1.00D-08 within 128 cycles.
 Requested convergence on MAX density matrix=1.00D-06.
 Requested convergence on             energy=1.00D-06.
 No special actions if energy rises.
 Integral accuracy reduced to 1.0D-05 until final iterations.
 Initial convergence to 1.0D-05 achieved.  Increase integral accuracy.
 SCF Done:  E(RB3LYP) =  -2937.38547689     A.U. after   11 cycles
            NFock= 11  Conv=0.81D-08     -V/T= 2.0066
 Calling FoFJK, ICntrl=      2127 FMM=F ISym2X=0 I1Cent= 0 IOpClX= 0 NMat=1 NMatS=1 NMatT=0.
 ***** Axes restored to original set *****
 -------------------------------------------------------------------
 Center     Atomic                   Forces (Hartrees/Bohr)
 Number     Number              X              Y              Z
 -------------------------------------------------------------------
      1       35           0.002507540    0.003535386    0.000762499
      2        6          -0.001800737   -0.003271917   -0.001945655
      3        6           0.001227197   -0.000291323    0.001043740
      4        6          -0.003771340   -0.000448197    0.000047566
      5        6           0.004726688    0.000492196   -0.000607832
      6        6          -0.004247280   -0.000346884    0.003388302
      7        7           0.003605732    0.000239601   -0.001902732
      8        6          -0.001428517   -0.000201215    0.000336540
      9        6          -0.001123738   -0.000157303   -0.000296394
     10        6          -0.001304262    0.000139569   -0.000590467
     11        1           0.000082797    0.000381034    0.000413020
     12        1          -0.000203793    0.000398533    0.000012277
     13        1          -0.000030231   -0.000252262   -0.000265798
     14        1           0.000130628   -0.000342359   -0.000564450
     15        1           0.000585987    0.000006008    0.000234317
     16        1           0.000319974    0.000210041    0.000450878
     17        1           0.001937814    0.000076813    0.000098979
     18        1          -0.000868450    0.000000088   -0.001061186
     19        1          -0.000269756   -0.000039662    0.000305411
     20        1          -0.000076252   -0.000128146    0.000140986
 -------------------------------------------------------------------
 Cartesian Forces:  Max     0.004726688 RMS     0.001510188

 GradGradGradGradGradGradGradGradGradGradGradGradGradGradGradGradGradGrad
 Berny optimization.
 Using GEDIIS/GDIIS optimizer.
 FormGI is forming the generalized inverse of G from B-inverse, IUseBI=4.
 Internal  Forces:  Max     0.004228685 RMS     0.000907113
 Search for a local minimum.
 Step number   2 out of a maximum of  108
 All quantities printed in internal units (Hartrees-Bohrs-Radians)
 Mixed Optimization -- En-DIIS/RFO-DIIS
 Update second derivatives using D2CorX and points    1    2
 DE= -2.28D-03 DEPred=-2.45D-03 R= 9.30D-01
 TightC=F SS=  1.41D+00  RLast= 1.72D-01 DXNew= 5.0454D-01 5.1722D-01
 Trust test= 9.30D-01 RLast= 1.72D-01 DXMaxT set to 5.05D-01
 ITU=  1  0
 Use linear search instead of GDIIS.
     Eigenvalues ---    0.00230   0.00258   0.00390   0.01360   0.02073
     Eigenvalues ---    0.02092   0.02139   0.02142   0.02142   0.02188
     Eigenvalues ---    0.02232   0.03427   0.03695   0.04784   0.05207
     Eigenvalues ---    0.05464   0.05492   0.08261   0.09637   0.12174
     Eigenvalues ---    0.13030   0.15179   0.15679   0.16000   0.16000
     Eigenvalues ---    0.16000   0.16000   0.16355   0.20879   0.21962
     Eigenvalues ---    0.22000   0.22249   0.23324   0.24253   0.25021
     Eigenvalues ---    0.28327   0.29349   0.29577   0.34385   0.34631
     Eigenvalues ---    0.34649   0.34677   0.34699   0.34726   0.35598
     Eigenvalues ---    0.35915   0.36002   0.36151   0.42042   0.43471
     Eigenvalues ---    0.45622   0.46204   0.51188   0.54286
 RFO step:  Lambda=-3.71753678D-04 EMin= 2.30450313D-03
 Quartic linear search produced a step of -0.04773.
 Iteration  1 RMS(Cart)=  0.02266864 RMS(Int)=  0.00025589
 Iteration  2 RMS(Cart)=  0.00030554 RMS(Int)=  0.00001030
 Iteration  3 RMS(Cart)=  0.00000008 RMS(Int)=  0.00001030
 Variable       Old X    -DE/DX   Delta X   Delta X   Delta X     New X
                                 (Linear)    (Quad)   (Total)
    R1        3.71999   0.00423   0.00209   0.02230   0.02439   3.74438
    R2        2.87245   0.00065   0.00166  -0.00219  -0.00053   2.87192
    R3        2.05939  -0.00041   0.00010  -0.00140  -0.00130   2.05809
    R4        2.06154  -0.00033   0.00001  -0.00092  -0.00091   2.06063
    R5        2.88680   0.00120   0.00159  -0.00011   0.00149   2.88829
    R6        2.06922   0.00001  -0.00034   0.00092   0.00058   2.06979
    R7        2.07517   0.00047  -0.00062   0.00290   0.00228   2.07745
    R8        2.86647  -0.00097   0.00104  -0.00583  -0.00479   2.86168
    R9        2.07075   0.00023  -0.00038   0.00163   0.00125   2.07200
   R10        2.07388   0.00029  -0.00053   0.00217   0.00164   2.07552
   R11        2.64494   0.00178   0.00004   0.00363   0.00367   2.64861
   R12        2.63519   0.00243   0.00080   0.00316   0.00395   2.63915
   R13        2.52879  -0.00152   0.00173  -0.00724  -0.00552   2.52327
   R14        2.05633   0.00118  -0.00069   0.00494   0.00425   2.06058
   R15        2.53038   0.00156   0.00154  -0.00133   0.00021   2.53059
   R16        2.63198  -0.00058   0.00024  -0.00184  -0.00160   2.63037
   R17        2.05432   0.00065  -0.00057   0.00322   0.00265   2.05697
   R18        2.63319   0.00120   0.00028   0.00178   0.00206   2.63526
   R19        2.05100  -0.00006  -0.00047   0.00106   0.00059   2.05159
   R20        2.05009  -0.00016  -0.00052   0.00092   0.00041   2.05050
    A1        1.93874   0.00313  -0.00050   0.01495   0.01444   1.95318
    A2        1.84179  -0.00146   0.00150  -0.01024  -0.00876   1.83302
    A3        1.84261  -0.00115   0.00207  -0.00950  -0.00743   1.83517
    A4        1.95715  -0.00012  -0.00077   0.00180   0.00105   1.95820
    A5        1.96383  -0.00065  -0.00047  -0.00189  -0.00234   1.96149
    A6        1.91245   0.00015  -0.00163   0.00381   0.00222   1.91466
    A7        1.97116   0.00173   0.00059   0.00726   0.00785   1.97900
    A8        1.89990  -0.00056  -0.00005  -0.00132  -0.00140   1.89850
    A9        1.87540  -0.00077   0.00084  -0.00736  -0.00652   1.86887
   A10        1.92833  -0.00034  -0.00038   0.00221   0.00182   1.93015
   A11        1.91346  -0.00024  -0.00047   0.00120   0.00076   1.91423
   A12        1.87229   0.00010  -0.00058  -0.00275  -0.00334   1.86895
   A13        2.00893   0.00139   0.00092   0.00520   0.00610   2.01503
   A14        1.89658  -0.00051   0.00090  -0.00459  -0.00372   1.89286
   A15        1.90118  -0.00033  -0.00001  -0.00134  -0.00137   1.89981
   A16        1.90460  -0.00016  -0.00129   0.00503   0.00376   1.90836
   A17        1.89578  -0.00038  -0.00076   0.00146   0.00070   1.89648
   A18        1.85029  -0.00011   0.00018  -0.00678  -0.00660   1.84370
   A19        2.08384  -0.00060  -0.00024  -0.00184  -0.00208   2.08175
   A20        2.15928   0.00168  -0.00035   0.00713   0.00678   2.16606
   A21        2.04002  -0.00108   0.00059  -0.00528  -0.00469   2.03534
   A22        2.18135  -0.00064  -0.00132   0.00075  -0.00057   2.18077
   A23        2.09223  -0.00126   0.00083  -0.01019  -0.00936   2.08287
   A24        2.00961   0.00190   0.00049   0.00944   0.00993   2.01954
   A25        2.03829   0.00207   0.00088   0.00526   0.00614   2.04443
   A26        2.15303  -0.00093  -0.00048  -0.00296  -0.00344   2.14959
   A27        2.01943   0.00170   0.00044   0.00826   0.00870   2.02812
   A28        2.11073  -0.00077   0.00003  -0.00529  -0.00526   2.10547
   A29        2.07265  -0.00022  -0.00013  -0.00047  -0.00060   2.07204
   A30        2.10325  -0.00030   0.00019  -0.00255  -0.00236   2.10089
   A31        2.10729   0.00052  -0.00006   0.00302   0.00296   2.11025
   A32        2.08104   0.00080   0.00045   0.00271   0.00316   2.08420
   A33        2.11002  -0.00037   0.00045  -0.00295  -0.00250   2.10752
   A34        2.09212  -0.00043  -0.00090   0.00024  -0.00066   2.09146
    D1       -1.12301  -0.00011  -0.00037  -0.01896  -0.01933  -1.14235
    D2        1.02550   0.00023  -0.00049  -0.01213  -0.01262   1.01288
    D3        3.04777  -0.00036  -0.00074  -0.01996  -0.02068   3.02709
    D4        3.10400  -0.00027  -0.00142  -0.01714  -0.01858   3.08542
    D5       -1.03067   0.00006  -0.00154  -0.01030  -0.01187  -1.04254
    D6        0.99160  -0.00052  -0.00180  -0.01813  -0.01993   0.97167
    D7        0.93856   0.00012   0.00160  -0.02214  -0.02054   0.91802
    D8        3.08707   0.00046   0.00148  -0.01531  -0.01382   3.07324
    D9       -1.17384  -0.00013   0.00123  -0.02313  -0.02189  -1.19573
   D10       -3.06983   0.00011   0.00037  -0.01137  -0.01101  -3.08085
   D11        1.07192  -0.00026   0.00070  -0.01806  -0.01735   1.05458
   D12       -0.93639   0.00033  -0.00000  -0.00685  -0.00686  -0.94325
   D13        1.08071  -0.00014   0.00030  -0.01643  -0.01615   1.06456
   D14       -1.06072  -0.00050   0.00063  -0.02311  -0.02248  -1.08321
   D15       -3.06904   0.00008  -0.00007  -0.01191  -0.01199  -3.08103
   D16       -0.97919   0.00009   0.00150  -0.01513  -0.01362  -0.99282
   D17       -3.12062  -0.00028   0.00183  -0.02181  -0.01996  -3.14058
   D18        1.15425   0.00031   0.00113  -0.01060  -0.00947   1.14478
   D19        2.97086  -0.00008   0.00022  -0.02394  -0.02373   2.94712
   D20       -0.18176  -0.00007   0.00032  -0.02323  -0.02292  -0.20468
   D21       -1.17520   0.00010   0.00104  -0.02238  -0.02132  -1.19652
   D22        1.95537   0.00011   0.00114  -0.02167  -0.02051   1.93486
   D23        0.83451  -0.00033   0.00020  -0.02694  -0.02676   0.80775
   D24       -2.31811  -0.00032   0.00029  -0.02623  -0.02595  -2.34405
   D25        3.13101  -0.00000   0.00041  -0.00176  -0.00135   3.12966
   D26       -0.01103  -0.00006   0.00049  -0.00429  -0.00380  -0.01483
   D27       -0.00031  -0.00003   0.00033  -0.00250  -0.00217  -0.00248
   D28        3.14084  -0.00009   0.00041  -0.00503  -0.00462   3.13622
   D29       -3.13016   0.00001  -0.00038   0.00142   0.00104  -3.12912
   D30        0.00903   0.00006  -0.00046   0.00382   0.00336   0.01239
   D31        0.00066   0.00003  -0.00029   0.00213   0.00184   0.00251
   D32        3.13985   0.00007  -0.00037   0.00454   0.00417  -3.13916
   D33        0.00020  -0.00000  -0.00018   0.00050   0.00033   0.00052
   D34       -3.14097   0.00005  -0.00025   0.00293   0.00270  -3.13827
   D35       -0.00046   0.00004  -0.00001   0.00190   0.00188   0.00142
   D36        3.13864   0.00006   0.00023   0.00209   0.00232   3.14096
   D37        0.00084  -0.00005   0.00004  -0.00215  -0.00211  -0.00127
   D38        3.14139  -0.00003   0.00020  -0.00217  -0.00197   3.13942
   D39       -3.13814  -0.00007  -0.00022  -0.00237  -0.00259  -3.14073
   D40        0.00241  -0.00006  -0.00005  -0.00239  -0.00244  -0.00004
   D41       -0.00092   0.00001   0.00012  -0.00002   0.00011  -0.00081
   D42       -3.14014  -0.00004   0.00020  -0.00239  -0.00219   3.14086
   D43       -3.14146  -0.00000  -0.00004   0.00001  -0.00003  -3.14150
   D44        0.00251  -0.00005   0.00003  -0.00237  -0.00233   0.00017
         Item               Value     Threshold  Converged?
 Maximum Force            0.004229     0.000450     NO 
 RMS     Force            0.000907     0.000300     NO 
 Maximum Displacement     0.099939     0.001800     NO 
 RMS     Displacement     0.022749     0.001200     NO 
 Predicted change in Energy=-1.925880D-04
 GradGradGradGradGradGradGradGradGradGradGradGradGradGradGradGradGradGrad

                          Input orientation:                          
 ---------------------------------------------------------------------
 Center     Atomic      Atomic             Coordinates (Angstroms)
 Number     Number       Type             X           Y           Z
 ---------------------------------------------------------------------
      1         35           0        5.061787   -0.123811    0.421540
      2          6           0        4.414737   -1.947303   -0.005441
      3          6           0        2.897787   -2.033138    0.028400
      4          6           0        2.308276   -1.808364    1.420522
      5          6           0        0.805611   -1.964899    1.524000
      6          6           0        0.206904   -2.010948    2.790439
      7          7           0       -1.104080   -2.132624    3.012771
      8          6           0       -1.900389   -2.217031    1.939440
      9          6           0       -1.422591   -2.184999    0.632473
     10          6           0       -0.049670   -2.057558    0.423848
     11          1           0        4.817245   -2.165525   -0.993617
     12          1           0        4.884021   -2.596653    0.734269
     13          1           0        2.487771   -1.310090   -0.684864
     14          1           0        2.622937   -3.034433   -0.332727
     15          1           0        2.593159   -0.805555    1.760278
     16          1           0        2.783460   -2.505331    2.123897
     17          1           0        0.833757   -1.947394    3.680394
     18          1           0       -2.965973   -2.316391    2.138163
     19          1           0       -2.109429   -2.259002   -0.205039
     20          1           0        0.342481   -2.031351   -0.587547
 ---------------------------------------------------------------------
                    Distance matrix (angstroms):
                    1          2          3          4          5
     1  Br   0.000000
     2  C    1.981441   0.000000
     3  C    2.912556   1.519753   0.000000
     4  C    3.378980   2.547519   1.528415   0.000000
     5  C    4.766556   3.919858   2.572679   1.514336   0.000000
     6  C    5.722138   5.052411   3.856191   2.516640   1.401585
     7  N    6.983389   6.292955   4.993126   3.779494   2.427239
     8  C    7.426809   6.613331   5.168016   4.260182   2.749291
     9  C    6.807360   5.876890   4.365048   3.831742   2.410010
    10  C    5.465014   4.486355   2.973968   2.572036   1.396576
    11  H    2.496210   1.089094   2.178615   3.500080   4.740449
    12  H    2.498870   1.090437   2.181954   2.779713   4.201929
    13  H    3.042523   2.140293   1.095288   2.170978   2.852633
    14  H    3.871514   2.121206   1.099339   2.162438   2.809628
    15  H    2.889830   2.781996   2.144566   1.096458   2.143650
    16  H    3.709505   2.739806   2.151080   1.098316   2.136312
    17  H    5.641083   5.138949   4.195788   2.701954   2.156649
    18  H    8.497007   7.694553   6.238191   5.347037   3.837394
    19  H    7.508528   6.534657   5.017741   4.728810   3.401990
    20  H    5.189298   4.114509   2.628495   2.818939   2.162761
                    6          7          8          9         10
     6  C    0.000000
     7  N    1.335258   0.000000
     8  C    2.281963   1.339132   0.000000
     9  C    2.709680   2.402085   1.391933   0.000000
    10  C    2.380915   2.796415   2.397417   1.394517   0.000000
    11  H    5.966425   7.149428   7.330218   6.448264   5.070280
    12  H    5.142597   6.423725   6.901070   6.320853   4.972755
    13  H    4.215601   5.220197   5.192828   4.218030   2.868198
    14  H    4.079081   5.088838   5.127511   4.244933   2.944405
    15  H    2.865034   4.123036   4.713421   4.393297   3.215292
    16  H    2.706905   4.005243   4.696338   4.474128   3.334260
    17  H    1.090414   2.057970   3.252565   3.799656   3.376043
    18  H    3.253600   2.065275   1.088500   2.160183   3.392741
    19  H    3.794710   3.373575   2.155052   1.085657   2.163027
    20  H    3.380767   3.881376   3.383874   2.151171   1.085076
                   11         12         13         14         15
    11  H    0.000000
    12  H    1.782112   0.000000
    13  H    2.500709   3.067767   0.000000
    14  H    2.450870   2.538234   1.765114   0.000000
    15  H    3.792099   3.083630   2.498876   3.057688   0.000000
    16  H    3.737732   2.520269   3.066785   2.518078   1.748620
    17  H    6.145091   5.050329   4.711411   4.526363   2.843613
    18  H    8.391025   7.979465   6.222978   6.152788   5.773160
    19  H    6.972046   7.064322   4.718572   4.797175   5.299936
    20  H    4.495155   4.763649   2.265383   2.504314   3.475688
                   16         17         18         19         20
    16  H    0.000000
    17  H    2.556427   0.000000
    18  H    5.752555   4.117352   0.000000
    19  H    5.424480   4.884264   2.495507   0.000000
    20  H    3.678989   4.296943   4.296115   2.491987   0.000000
 Stoichiometry    C8H10BrN
 Framework group  C1[X(C8H10BrN)]
 Deg. of freedom    54
 Full point group                 C1      NOp   1
 Largest Abelian subgroup         C1      NOp   1
 Largest concise Abelian subgroup C1      NOp   1
                         Standard orientation:                         
 ---------------------------------------------------------------------
 Center     Atomic      Atomic             Coordinates (Angstroms)
 Number     Number       Type             X           Y           Z
 ---------------------------------------------------------------------
      1         35           0       -3.050346   -0.280844   -0.375189
      2          6           0       -2.052835    0.789186    0.961267
      3          6           0       -0.603675    0.997490    0.553597
      4          6           0        0.208518   -0.296766    0.517593
      5          6           0        1.679454   -0.133333    0.196895
      6          6           0        2.544164   -1.222461    0.371582
      7          7           0        3.853962   -1.208450    0.112453
      8          6           0        4.373228   -0.063327   -0.348341
      9          6           0        3.615972    1.085220   -0.560192
     10          6           0        2.249881    1.047835   -0.282564
     11          1           0       -2.598644    1.728753    1.034969
     12          1           0       -2.145770    0.235737    1.896206
     13          1           0       -0.579893    1.494430   -0.422181
     14          1           0       -0.160409    1.692563    1.280876
     15          1           0       -0.249473   -0.973684   -0.213328
     16          1           0        0.114499   -0.801851    1.488339
     17          1           0        2.146581   -2.165214    0.748607
     18          1           0        5.442132   -0.068681   -0.553883
     19          1           0        4.084566    1.990521   -0.933689
     20          1           0        1.642547    1.933044   -0.440490
 ---------------------------------------------------------------------
 Rotational constants (GHZ):           3.1115999           0.3036635           0.2919148
 Standard basis: 6-31G(d,p) (6D, 7F)
 There are   215 symmetry adapted cartesian basis functions of A   symmetry.
 There are   215 symmetry adapted basis functions of A   symmetry.
   215 basis functions,   405 primitive gaussians,   215 cartesian basis functions
    50 alpha electrons       50 beta electrons
       nuclear repulsion energy       691.5431213660 Hartrees.
 NAtoms=   20 NActive=   20 NUniq=   20 SFac= 1.00D+00 NAtFMM=   60 NAOKFM=F Big=F
 Integral buffers will be    131072 words long.
 Raffenetti 2 integral format.
 Two-electron integral symmetry is turned on.
 Nuclear repulsion after empirical dispersion term =      691.5055033434 Hartrees.
 One-electron integrals computed using PRISM.
 NBasis=   215 RedAO= T EigKep=  7.28D-04  NBF=   215
 NBsUse=   215 1.00D-06 EigRej= -1.00D+00 NBFU=   215
 Initial guess from the checkpoint file:  "pyrd10_conf-8.chk"
 B after Tr=    -0.000000    0.000000    0.000000
         Rot=    0.999942   -0.010753   -0.000609    0.000012 Ang=  -1.23 deg.
 ExpMin= 1.43D-01 ExpMax= 5.74D+05 ExpMxC= 5.74D+03 IAcc=3 IRadAn=         5 AccDes= 0.00D+00
 Harris functional with IExCor=  402 and IRadAn=       5 diagonalized for initial guess.
 HarFok:  IExCor=  402 AccDes= 0.00D+00 IRadAn=         5 IDoV= 1 UseB2=F ITyADJ=14
 ICtDFT=  3500011 ScaDFX=  1.000000  1.000000  1.000000  1.000000
 FoFCou: FMM=F IPFlag=           0 FMFlag=      100000 FMFlg1=           0
         NFxFlg=           0 DoJE=T BraDBF=F KetDBF=T FulRan=T
         wScrn=  0.000000 ICntrl=       500 IOpCl=  0 I1Cent=   200000004 NGrid=           0
         NMat0=    1 NMatS0=      1 NMatT0=    0 NMatD0=    1 NMtDS0=    0 NMtDT0=    0
 Petite list used in FoFCou.
 Requested convergence on RMS density matrix=1.00D-08 within 128 cycles.
 Requested convergence on MAX density matrix=1.00D-06.
 Requested convergence on             energy=1.00D-06.
 No special actions if energy rises.
 Integral accuracy reduced to 1.0D-05 until final iterations.
 Initial convergence to 1.0D-05 achieved.  Increase integral accuracy.
 SCF Done:  E(RB3LYP) =  -2937.38566229     A.U. after   11 cycles
            NFock= 11  Conv=0.59D-08     -V/T= 2.0066
 Calling FoFJK, ICntrl=      2127 FMM=F ISym2X=0 I1Cent= 0 IOpClX= 0 NMat=1 NMatS=1 NMatT=0.
 ***** Axes restored to original set *****
 -------------------------------------------------------------------
 Center     Atomic                   Forces (Hartrees/Bohr)
 Number     Number              X              Y              Z
 -------------------------------------------------------------------
      1       35          -0.000268232    0.000170261    0.000320758
      2        6          -0.000497258   -0.001189381   -0.000332376
      3        6           0.000541080    0.000145079   -0.000114209
      4        6          -0.000575085   -0.000005954    0.000028025
      5        6           0.001077543    0.000067988   -0.000838074
      6        6          -0.000767978   -0.000242546    0.001914587
      7        7           0.001015980    0.000111670    0.000198428
      8        6          -0.001220770   -0.000094269   -0.000122087
      9        6          -0.000221528   -0.000030377   -0.000526141
     10        6           0.000223315    0.000166496   -0.000233733
     11        1           0.000016187    0.000232690    0.000108819
     12        1           0.000176112    0.000231452    0.000015170
     13        1          -0.000124155   -0.000255675    0.000010878
     14        1           0.000026689    0.000200385   -0.000189172
     15        1           0.000125439    0.000244246    0.000006167
     16        1          -0.000113803    0.000228717    0.000027202
     17        1           0.000135820    0.000005398   -0.000342372
     18        1           0.000306422    0.000050000   -0.000212451
     19        1           0.000231446   -0.000000333    0.000190009
     20        1          -0.000087224   -0.000035847    0.000090573
 -------------------------------------------------------------------
 Cartesian Forces:  Max     0.001914587 RMS     0.000460220

 GradGradGradGradGradGradGradGradGradGradGradGradGradGradGradGradGradGrad
 Berny optimization.
 Using GEDIIS/GDIIS optimizer.
 FormGI is forming the generalized inverse of G from B-inverse, IUseBI=4.
 Internal  Forces:  Max     0.001179020 RMS     0.000275193
 Search for a local minimum.
 Step number   3 out of a maximum of  108
 All quantities printed in internal units (Hartrees-Bohrs-Radians)
 Mixed Optimization -- En-DIIS/RFO-DIIS
 Swapping is turned off.
 Update second derivatives using D2CorX and points    1    2    3
 DE= -1.85D-04 DEPred=-1.93D-04 R= 9.63D-01
 TightC=F SS=  1.41D+00  RLast= 1.01D-01 DXNew= 8.4853D-01 3.0324D-01
[...]
   Eigenvalues:    23.5643    29.0821    32.8330
     16  H    Isotropic =    29.4790   Anisotropy =     7.5939
   XX=    29.7969   YX=    -0.0374   ZX=    -1.3677
   XY=    -2.2328   YY=    29.6951   ZY=     4.3000
   XZ=    -0.5797   YZ=     5.1719   ZZ=    28.9450
   Eigenvalues:    24.5687    29.3267    34.5416
     17  H    Isotropic =    22.3978   Anisotropy =    10.7179
   XX=    27.4121   YX=    -4.1635   ZX=    -0.5620
   XY=    -4.4208   YY=    20.6793   ZY=     0.1149
   XZ=    -0.5594   YZ=     0.6273   ZZ=    19.1020
   Eigenvalues:    18.5748    19.0755    29.5431
     18  H    Isotropic =    22.4516   Anisotropy =     7.0563
   XX=    22.1574   YX=    -3.0302   ZX=    -0.4439
   XY=    -2.2575   YY=    25.5241   ZY=     1.1432
   XZ=    -0.4489   YZ=     1.0195   ZZ=    19.6732
   Eigenvalues:    19.4793    20.7196    27.1558
     19  H    Isotropic =    23.9522   Anisotropy =     7.1196
   XX=    28.5762   YX=    -0.1691   ZX=     0.7421
   XY=    -1.1617   YY=    21.6133   ZY=    -0.1942
   XZ=     0.5244   YZ=    -0.1389   ZZ=    21.6671
   Eigenvalues:    21.4695    21.6885    28.6986
     20  H    Isotropic =    23.5581   Anisotropy =    10.6766
   XX=    25.6030   YX=     5.7063   ZX=     1.3448
   XY=     4.9350   YY=    24.5373   ZY=     1.0182
   XZ=     1.3973   YZ=     0.7762   ZZ=    20.5341
   Eigenvalues:    19.6255    20.3730    30.6759
 End of Minotr F.D. properties file   721 does not exist.
 End of Minotr F.D. properties file   722 does not exist.
 End of Minotr F.D. properties file   788 does not exist.

 **********************************************************************

            Population analysis using the SCF Density.

 **********************************************************************

 Orbital symmetries:
       Occupied  (A) (A) (A) (A) (A) (A) (A) (A) (A) (A) (A) (A)
                 (A) (A) (A) (A) (A) (A) (A) (A) (A) (A) (A) (A)
                 (A) (A) (A) (A) (A) (A) (A) (A) (A) (A) (A) (A)
                 (A) (A) (A) (A) (A) (A) (A) (A) (A) (A) (A) (A)
                 (A) (A)
       Virtual   (A) (A) (A) (A) (A) (A) (A) (A) (A) (A) (A) (A)
                 (A) (A) (A) (A) (A) (A) (A) (A) (A) (A) (A) (A)
                 (A) (A) (A) (A) (A) (A) (A) (A) (A) (A) (A) (A)
                 (A) (A) (A) (A) (A) (A) (A) (A) (A) (A) (A) (A)
                 (A) (A) (A) (A) (A) (A) (A) (A) (A) (A) (A) (A)
                 (A) (A) (A) (A) (A) (A) (A) (A) (A) (A) (A) (A)
                 (A) (A) (A) (A) (A) (A) (A) (A) (A) (A) (A) (A)
                 (A) (A) (A) (A) (A) (A) (A) (A) (A) (A) (A) (A)
                 (A) (A) (A) (A) (A) (A) (A) (A) (A) (A) (A) (A)
                 (A) (A) (A) (A) (A) (A) (A) (A) (A) (A) (A) (A)
                 (A) (A) (A) (A) (A) (A) (A) (A) (A) (A) (A) (A)
                 (A) (A) (A) (A) (A) (A) (A) (A) (A) (A) (A) (A)
                 (A) (A) (A) (A) (A) (A) (A) (A) (A) (A) (A) (A)
                 (A) (A) (A) (A) (A) (A) (A) (A) (A) (A) (A) (A)
                 (A) (A) (A) (A) (A) (A) (A) (A) (A) (A) (A) (A)
                 (A) (A) (A) (A) (A) (A) (A) (A) (A) (A) (A) (A)
                 (A) (A) (A) (A) (A) (A) (A) (A) (A) (A) (A) (A)
                 (A) (A) (A) (A) (A) (A) (A) (A) (A) (A) (A) (A)
                 (A) (A) (A) (A) (A) (A) (A) (A) (A) (A) (A) (A)
                 (A) (A) (A) (A) (A) (A) (A) (A) (A) (A) (A) (A)
                 (A) (A) (A) (A) (A) (A) (A) (A) (A) (A) (A) (A)
                 (A) (A) (A) (A) (A) (A) (A) (A) (A) (A) (A) (A)
                 (A) (A) (A) (A) (A) (A) (A) (A) (A) (A) (A) (A)
                 (A) (A) (A) (A) (A) (A) (A) (A) (A) (A) (A) (A)
                 (A) (A) (A) (A) (A) (A) (A) (A) (A) (A) (A) (A)
                 (A) (A) (A) (A) (A) (A) (A) (A) (A) (A) (A) (A)
                 (A) (A) (A) (A) (A) (A) (A) (A) (A) (A) (A) (A)
                 (A) (A) (A) (A) (A) (A) (A) (A) (A) (A) (A) (A)
                 (A)
 The electronic state is 1-A.
 Alpha  occ. eigenvalues -- -485.36482 -63.34984 -57.16924 -57.16691 -57.16687
 Alpha  occ. eigenvalues --  -14.75118 -10.60484 -10.57747 -10.57715 -10.56306
 Alpha  occ. eigenvalues --  -10.56192 -10.56077 -10.55443 -10.55369  -9.01619
 Alpha  occ. eigenvalues --   -6.84008  -6.83156  -6.83142  -2.87374  -2.87072
 Alpha  occ. eigenvalues --   -2.87059  -2.86264  -2.86264  -1.05354  -0.94309
 Alpha  occ. eigenvalues --   -0.91076  -0.87804  -0.83768  -0.77716  -0.71979
 Alpha  occ. eigenvalues --   -0.70530  -0.67670  -0.60195  -0.57261  -0.55080
 Alpha  occ. eigenvalues --   -0.53915  -0.52098  -0.50245  -0.47761  -0.47349
 Alpha  occ. eigenvalues --   -0.46022  -0.45368  -0.43123  -0.41611  -0.40487
 Alpha  occ. eigenvalues --   -0.34799  -0.34170  -0.33982  -0.32629  -0.31209
 Alpha virt. eigenvalues --   -0.00211   0.01192   0.02587   0.06361   0.07963
 Alpha virt. eigenvalues --    0.08847   0.10235   0.10386   0.12102   0.13053
 Alpha virt. eigenvalues --    0.13383   0.14100   0.14764   0.15757   0.16531
 Alpha virt. eigenvalues --    0.18814   0.20362   0.21050   0.22128   0.22798
 Alpha virt. eigenvalues --    0.23343   0.23489   0.24154   0.25212   0.26170
 Alpha virt. eigenvalues --    0.27799   0.28314   0.28627   0.29328   0.30562
 Alpha virt. eigenvalues --    0.30801   0.31604   0.32992   0.34397   0.34588
 Alpha virt. eigenvalues --    0.35419   0.35660   0.36880   0.37577   0.38831
 Alpha virt. eigenvalues --    0.39586   0.40047   0.40431   0.41467   0.42911
 Alpha virt. eigenvalues --    0.43830   0.44469   0.44666   0.45831   0.46431
 Alpha virt. eigenvalues --    0.46536   0.47397   0.47558   0.49066   0.49629
 Alpha virt. eigenvalues --    0.50176   0.50908   0.52231   0.52862   0.55106
 Alpha virt. eigenvalues --    0.55906   0.56759   0.58682   0.59489   0.61044
 Alpha virt. eigenvalues --    0.61807   0.62633   0.64476   0.66391   0.67619
 Alpha virt. eigenvalues --    0.68431   0.69335   0.69888   0.70820   0.72631
 Alpha virt. eigenvalues --    0.74069   0.75404   0.77927   0.78595   0.81434
 Alpha virt. eigenvalues --    0.81727   0.84163   0.84678   0.85636   0.87799
 Alpha virt. eigenvalues --    0.88298   0.90054   0.91931   0.93815   0.98014
 Alpha virt. eigenvalues --    0.99227   1.01597   1.02170   1.02872   1.05750
 Alpha virt. eigenvalues --    1.07673   1.08461   1.09084   1.11875   1.13190
 Alpha virt. eigenvalues --    1.15230   1.16294   1.18449   1.20759   1.22899
 Alpha virt. eigenvalues --    1.24537   1.25914   1.28165   1.28607   1.30084
 Alpha virt. eigenvalues --    1.32017   1.32682   1.34746   1.37736   1.39471
 Alpha virt. eigenvalues --    1.40071   1.40315   1.42024   1.42968   1.43011
 Alpha virt. eigenvalues --    1.43965   1.46127   1.47203   1.48451   1.51177
 Alpha virt. eigenvalues --    1.51938   1.54113   1.55766   1.57428   1.57800
 Alpha virt. eigenvalues --    1.58349   1.59565   1.60199   1.61097   1.61731
 Alpha virt. eigenvalues --    1.62598   1.63419   1.63863   1.64394   1.66258
 Alpha virt. eigenvalues --    1.66830   1.66996   1.68191   1.69280   1.69864
 Alpha virt. eigenvalues --    1.70510   1.73260   1.74260   1.74857   1.77144
 Alpha virt. eigenvalues --    1.77693   1.78896   1.80249   1.80822   1.83624
 Alpha virt. eigenvalues --    1.85878   1.87506   1.91990   1.92660   1.94095
 Alpha virt. eigenvalues --    1.95729   1.96920   1.97695   1.98206   2.02459
 Alpha virt. eigenvalues --    2.03212   2.05797   2.08666   2.12183   2.12803
 Alpha virt. eigenvalues --    2.15147   2.17586   2.18026   2.21910   2.24923
 Alpha virt. eigenvalues --    2.27192   2.27739   2.29543   2.31153   2.32202
 Alpha virt. eigenvalues --    2.34103   2.36058   2.39171   2.40971   2.43699
 Alpha virt. eigenvalues --    2.44648   2.47141   2.47566   2.49389   2.52887
 Alpha virt. eigenvalues --    2.53732   2.54512   2.57675   2.59228   2.59938
 Alpha virt. eigenvalues --    2.60385   2.62509   2.63324   2.64050   2.65148
 Alpha virt. eigenvalues --    2.65636   2.67541   2.69344   2.70921   2.71710
 Alpha virt. eigenvalues --    2.72887   2.74568   2.75914   2.76471   2.78894
 Alpha virt. eigenvalues --    2.81815   2.82345   2.83007   2.85087   2.86402
 Alpha virt. eigenvalues --    2.88312   2.90805   2.91962   2.95218   2.95969
 Alpha virt. eigenvalues --    2.98501   3.00107   3.02604   3.04392   3.06671
 Alpha virt. eigenvalues --    3.08712   3.09690   3.09775   3.11472   3.13193
 Alpha virt. eigenvalues --    3.13715   3.16500   3.17187   3.17379   3.19189
 Alpha virt. eigenvalues --    3.20289   3.22409   3.22712   3.24343   3.24607
 Alpha virt. eigenvalues --    3.27458   3.27892   3.28427   3.29796   3.31934
 Alpha virt. eigenvalues --    3.32795   3.34060   3.36624   3.38643   3.40066
 Alpha virt. eigenvalues --    3.40899   3.41771   3.42339   3.44095   3.44559
 Alpha virt. eigenvalues --    3.46363   3.47171   3.49268   3.51208   3.51541
 Alpha virt. eigenvalues --    3.53415   3.56299   3.60782   3.61027   3.64175
 Alpha virt. eigenvalues --    3.66871   3.71195   3.74657   3.76834   3.78832
 Alpha virt. eigenvalues --    3.80926   3.82871   3.85312   3.86945   3.88986
 Alpha virt. eigenvalues --    3.90305   3.95701   3.97400   4.01295   4.03050
 Alpha virt. eigenvalues --    4.04799   4.05769   4.09847   4.10187   4.11348
 Alpha virt. eigenvalues --    4.11845   4.13860   4.14929   4.16851   4.22737
 Alpha virt. eigenvalues --    4.24790   4.27794   4.28346   4.29368   4.34560
 Alpha virt. eigenvalues --    4.35593   4.37428   4.40103   4.45058   4.47785
 Alpha virt. eigenvalues --    4.49429   4.51610   4.53259   4.55353   4.57064
 Alpha virt. eigenvalues --    4.59252   4.63033   4.72894   4.74771   4.78221
 Alpha virt. eigenvalues --    4.79340   4.83582   4.89586   4.92171   4.92770
 Alpha virt. eigenvalues --    5.02557   5.06112   5.16270   5.17296   5.19959
 Alpha virt. eigenvalues --    5.26685   5.34812   5.41353   5.52781   5.57875
 Alpha virt. eigenvalues --    5.72560   5.95114   7.69006  22.32832  22.43594
 Alpha virt. eigenvalues --   22.52238  22.59984  22.73384  22.85483  22.88762
 Alpha virt. eigenvalues --   23.20742  32.51390
          Condensed to atoms (all electrons):
               1          2          3          4          5          6
     1  Br  35.029772   0.247841  -0.038614  -0.007149   0.000338  -0.000395
     2  C    0.247841   4.941244   0.261152  -0.032490   0.009603   0.000619
     3  C   -0.038614   0.261152   5.301425   0.155485  -0.019949  -0.013053
     4  C   -0.007149  -0.032490   0.155485   5.442662   0.207975  -0.030589
     5  C    0.000338   0.009603  -0.019949   0.207975   5.102913   0.459776
     6  C   -0.000395   0.000619  -0.013053  -0.030589   0.459776   4.893854
     7  N    0.000001   0.000005   0.000324   0.008272  -0.045266   0.513756
     8  C    0.000009  -0.000014  -0.000230  -0.000703  -0.041726  -0.115333
     9  C   -0.000088   0.000021   0.001871   0.008369  -0.046368  -0.015619
    10  C    0.001262  -0.000032  -0.012656  -0.085688   0.452010  -0.059661
    11  H   -0.041155   0.437507  -0.053207   0.010266  -0.000614  -0.000090
    12  H   -0.041536   0.421265  -0.034817  -0.014539   0.000513   0.000252
    13  H   -0.003393  -0.034837   0.432528  -0.057930   0.004132   0.003924
    14  H    0.007414  -0.039013   0.405517  -0.038818   0.003127  -0.003842
    15  H    0.006679  -0.003923  -0.057694   0.442785  -0.042007   0.001301
    16  H    0.000048   0.001104  -0.048601   0.421605  -0.041755  -0.000111
    17  H    0.000015   0.000021  -0.001224   0.004711  -0.090675   0.443041
    18  H    0.000000  -0.000000   0.000012   0.000058  -0.000726   0.006082
    19  H   -0.000002  -0.000001   0.000050   0.000027   0.012475  -0.001775
    20  H    0.001376  -0.000093  -0.002675   0.004167  -0.049085   0.003741
               7          8          9         10         11         12
     1  Br   0.000001   0.000009  -0.000088   0.001262  -0.041155  -0.041536
     2  C    0.000005  -0.000014   0.000021  -0.000032   0.437507   0.421265
     3  C    0.000324  -0.000230   0.001871  -0.012656  -0.053207  -0.034817
     4  C    0.008272  -0.000703   0.008369  -0.085688   0.010266  -0.014539
     5  C   -0.045266  -0.041726  -0.046368   0.452010  -0.000614   0.000513
     6  C    0.513756  -0.115333  -0.015619  -0.059661  -0.000090   0.000252
     7  N    6.420327   0.496021  -0.043185  -0.068146  -0.000000   0.000000
     8  C    0.496021   4.830632   0.489920  -0.017781   0.000002  -0.000004
     9  C   -0.043185   0.489920   4.984840   0.460918  -0.000007   0.000010
    10  C   -0.068146  -0.017781   0.460918   5.101252   0.000078  -0.000202
    11  H   -0.000000   0.000002  -0.000007   0.000078   0.506058  -0.025578
    12  H    0.000000  -0.000004   0.000010  -0.000202  -0.025578   0.516783
    13  H   -0.000078  -0.000145   0.000390  -0.005517  -0.004217   0.005664
    14  H   -0.000165   0.000147  -0.000559   0.005548  -0.004586  -0.000387
    15  H   -0.000395   0.000268  -0.001185  -0.001546  -0.000231   0.002112
    16  H    0.000159  -0.000035  -0.000274   0.005232   0.000167   0.001109
    17  H   -0.032056   0.009165  -0.002481   0.006521   0.000001   0.000015
    18  H   -0.033864   0.432930  -0.066639   0.001979  -0.000000  -0.000000
    19  H    0.007207  -0.030751   0.415138  -0.057462  -0.000000   0.000000
    20  H   -0.002110   0.003363  -0.034073   0.423131   0.000012   0.000019
              13         14         15         16         17         18
     1  Br  -0.003393   0.007414   0.006679   0.000048   0.000015   0.000000
     2  C   -0.034837  -0.039013  -0.003923   0.001104   0.000021  -0.000000
     3  C    0.432528   0.405517  -0.057694  -0.048601  -0.001224   0.000012
     4  C   -0.057930  -0.038818   0.442785   0.421605   0.004711   0.000058
     5  C    0.004132   0.003127  -0.042007  -0.041755  -0.090675  -0.000726
     6  C    0.003924  -0.003842   0.001301  -0.000111   0.443041   0.006082
     7  N   -0.000078  -0.000165  -0.000395   0.000159  -0.032056  -0.033864
     8  C   -0.000145   0.000147   0.000268  -0.000035   0.009165   0.432930
     9  C    0.000390  -0.000559  -0.001185  -0.000274  -0.002481  -0.066639
    10  C   -0.005517   0.005548  -0.001546   0.005232   0.006521   0.001979
    11  H   -0.004217  -0.004586  -0.000231   0.000167   0.000001  -0.000000
    12  H    0.005664  -0.000387   0.002112   0.001109   0.000015  -0.000000
    13  H    0.489997  -0.011463   0.003675   0.003817   0.000020  -0.000002
    14  H   -0.011463   0.514385   0.003734   0.000226   0.000585  -0.000001
    15  H    0.003675   0.003734   0.463548  -0.008701   0.000155  -0.000003
    16  H    0.003817   0.000226  -0.008701   0.501353   0.001276  -0.000002
    17  H    0.000020   0.000585   0.000155   0.001276   0.518126  -0.000026
    18  H   -0.000002  -0.000001  -0.000003  -0.000002  -0.000026   0.516557
    19  H    0.000020  -0.000006  -0.000063   0.000013   0.000097  -0.000316
    20  H    0.000850   0.000264   0.000617   0.000328  -0.000220  -0.000255
              19         20
     1  Br  -0.000002   0.001376
     2  C   -0.000001  -0.000093
     3  C    0.000050  -0.002675
     4  C    0.000027   0.004167
     5  C    0.012475  -0.049085
     6  C   -0.001775   0.003741
     7  N    0.007207  -0.002110
     8  C   -0.030751   0.003363
     9  C    0.415138  -0.034073
    10  C   -0.057462   0.423131
    11  H   -0.000000   0.000012
    12  H    0.000000   0.000019
    13  H    0.000020   0.000850
    14  H   -0.000006   0.000264
    15  H   -0.000063   0.000617
    16  H    0.000013   0.000328
    17  H    0.000097  -0.000220
    18  H   -0.000316  -0.000255
    19  H    0.518130  -0.005608
    20  H   -0.005608   0.491636
 Mulliken charges:
               1
     1  Br  -0.162425
     2  C   -0.209980
     3  C   -0.275645
     4  C   -0.438478
     5  C    0.125310
     6  C   -0.085879
     7  N   -0.220809
     8  C   -0.055737
     9  C   -0.150998
    10  C   -0.149239
    11  H    0.175594
    12  H    0.169321
    13  H    0.172565
    14  H    0.157892
    15  H    0.190873
    16  H    0.163041
    17  H    0.142932
    18  H    0.144217
    19  H    0.142827
    20  H    0.164616
 Sum of Mulliken charges =  -0.00000
 Mulliken charges with hydrogens summed into heavy atoms:
               1
     1  Br  -0.162425
     2  C    0.134934
     3  C    0.054812
     4  C   -0.084563
     5  C    0.125310
     6  C    0.057054
     7  N   -0.220809
     8  C    0.088479
     9  C   -0.008171
    10  C    0.015377
 Electronic spatial extent (au):  <R**2>=           3298.5896
 Charge=             -0.0000 electrons
 Dipole moment (field-independent basis, Debye):
    X=             -0.5914    Y=              0.0168    Z=              0.9767  Tot=              1.1419
 Quadrupole moment (field-independent basis, Debye-Ang):
   XX=            -85.8668   YY=            -68.0629   ZZ=            -73.9636
   XY=             10.9112   XZ=              0.6189   YZ=              0.2012
 Traceless Quadrupole moment (field-independent basis, Debye-Ang):
   XX=             -9.9024   YY=              7.9016   ZZ=              2.0008
   XY=             10.9112   XZ=              0.6189   YZ=              0.2012
 Octapole moment (field-independent basis, Debye-Ang**2):
  XXX=           -102.8197  YYY=             13.2186  ZZZ=             -1.8525  XYY=            -36.9197
  XXY=             38.1827  XXZ=             12.8289  XZZ=            -40.4822  YZZ=              0.5381
  YYZ=             -0.5435  XYZ=              6.9738
 Hexadecapole moment (field-independent basis, Debye-Ang**3):
 XXXX=          -3522.5074 YYYY=           -416.7237 ZZZZ=           -180.9722 XXXY=            153.5757
 XXXZ=             70.1379 YYYX=            -11.8004 YYYZ=              6.6061 ZZZX=              5.7297
 ZZZY=             -5.6056 XXYY=           -635.8733 XXZZ=           -614.7109 YYZZ=           -102.3797
 XXYZ=             -1.0464 YYXZ=             11.5615 ZZXY=            -12.2662
 N-N= 6.946096960580D+02 E-N=-8.390157931334D+03  KE= 2.934433735175D+03
 Unable to Open any file for archive entry.
 1\1\GINC-COMPUTE-0-27\SP\RM062X\def2TZVP\C8H10Br1N1\ZTAN64\14-Aug-2024
 \0\\# M062X/def2tzvp int=(grid=ultrafine) nmr=giao guess=read geom=che
 ck\\pyrd10.xyz\\0,1\Br,0,4.6824453893,-0.2851451497,-0.6979202579\C,0,
 4.4357606736,-2.0648146202,0.145535979\C,0,2.9659040455,-2.3865656435,
 0.3474405745\C,0,2.2550506911,-1.4486840195,1.3366802943\C,0,0.7934634
 845,-1.7842896653,1.4819845349\C,0,0.3327939763,-2.5995547252,2.522382
 2482\N,0,-0.9411937927,-2.9703669052,2.6894710754\C,0,-1.8300634188,-2
 .5251415377,1.7936131766\C,0,-1.4893557791,-1.7050460383,0.7172974173\
 C,0,-0.1573873892,-1.3318257176,0.5620097442\H,0,4.9253970015,-2.76520
 56839,-0.5293230062\H,0,4.9866102956,-2.0094016808,1.0847662441\H,0,2.
 4511996199,-2.3642264792,-0.6189880511\H,0,2.9006120094,-3.4197095851,
 0.7156504416\H,0,2.3726834844,-0.4182763956,0.9862605665\H,0,2.7512203
 931,-1.5119387307,2.3125481212\H,0,1.0389846825,-2.9683695719,3.266182
 5794\H,0,-2.8618252704,-2.8358448655,1.9447169479\H,0,-2.2515276315,-1
 .366600786,0.0229011163\H,0,0.147027535,-0.6913921989,-0.2620097463\\V
 ersion=ES64L-G16RevC.01\State=1-A\HF=-2939.7892141\RMSD=3.809e-09\Dipo
 le=0.1800561,-0.21074,-0.353571\Quadrupole=2.0320409,-0.183949,-1.8480
 919,-6.6097675,7.6318273,2.4044992\PG=C01 [X(C8H10Br1N1)]\\@
 The archive entry for this job was punched.


 IF AT FIRST YOU DON'T SUCCEED, TRY, TRY AGAIN.
 THEN GIVE UP;
 THERE'S NO USE BEING A DAMN FOOL ABOUT IT.

                                 -- W. C. FIELDS
 Job cpu time:       0 days  0 hours 18 minutes 14.5 seconds.
 Elapsed time:       0 days  0 hours  1 minutes 13.6 seconds.
 File lengths (MBytes):  RWF=     88 Int=      0 D2E=      0 Chk=     15 Scr=      1
 Normal termination of Gaussian 16 at Wed Aug 14 18:57:36 2024.
 
 
-----Kestrel cluster job statistics-----
Time info:

real	11m47.460s
user	181m40.970s
sys	0m37.816s
 
Disk space usage:
15M	/scratch/362955.kestrel.chem.wisc.edu
