 Entering Gaussian System, Link 0=/share/apps/gaussian/g16/g16
 Initial command:
 /share/apps/gaussian/g16/l1.exe "/scratch/362980.kestrel.chem.wisc.edu/Gau-13551.inp" -scrdir="/scratch/362980.kestrel.chem.wisc.edu/"
 Entering Link 1 = /share/apps/gaussian/g16/l1.exe PID=     13552.
  
 Copyright (c) 1988-2019, Gaussian, Inc.  All Rights Reserved.
  
 This is part of the Gaussian(R) 16 program.  It is based on
 the Gaussian(R) 09 system (copyright 2009, Gaussian, Inc.),
 the Gaussian(R) 03 system (copyright 2003, Gaussian, Inc.),
 the Gaussian(R) 98 system (copyright 1998, Gaussian, Inc.),
 the Gaussian(R) 94 system (copyright 1995, Gaussian, Inc.),
 the Gaussian 92(TM) system (copyright 1992, Gaussian, Inc.),
 the Gaussian 90(TM) system (copyright 1990, Gaussian, Inc.),
 the Gaussian 88(TM) system (copyright 1988, Gaussian, Inc.),
 the Gaussian 86(TM) system (copyright 1986, Carnegie Mellon
 University), and the Gaussian 82(TM) system (copyright 1983,
 Carnegie Mellon University). Gaussian is a federally registered
 trademark of Gaussian, Inc.
  
 This software contains proprietary and confidential information,
 including trade secrets, belonging to Gaussian, Inc.
  
 This software is provided under written license and may be
 used, copied, transmitted, or stored only in accord with that
 written license.
  
 The following legend is applicable only to US Government
 contracts under FAR:
  
                    RESTRICTED RIGHTS LEGEND
  
 Use, reproduction and disclosure by the US Government is
 subject to restrictions as set forth in subparagraphs (a)
 and (c) of the Commercial Computer Software - Restricted
 Rights clause in FAR 52.227-19.
  
 Gaussian, Inc.
 340 Quinnipiac St., Bldg. 40, Wallingford CT 06492
  
  
 ---------------------------------------------------------------
 Warning -- This program may not be used in any manner that
 competes with the business of Gaussian, Inc. or will provide
 assistance to any competitor of Gaussian, Inc.  The licensee
 of this program is prohibited from giving any competitor of
 Gaussian, Inc. access to this program.  By using this program,
 the user acknowledges that Gaussian, Inc. is engaged in the
 business of creating and licensing software in the field of
 computational chemistry and represents and warrants to the
 licensee that it is not a competitor of Gaussian, Inc. and that
 it will not use this program in any manner prohibited above.
 ---------------------------------------------------------------
  

 Cite this work as:
 Gaussian 16, Revision C.01,
 M. J. Frisch, G. W. Trucks, H. B. Schlegel, G. E. Scuseria, 
 M. A. Robb, J. R. Cheeseman, G. Scalmani, V. Barone, 
 G. A. Petersson, H. Nakatsuji, X. Li, M. Caricato, A. V. Marenich, 
 J. Bloino, B. G. Janesko, R. Gomperts, B. Mennucci, H. P. Hratchian, 
 J. V. Ortiz, A. F. Izmaylov, J. L. Sonnenberg, D. Williams-Young, 
 F. Ding, F. Lipparini, F. Egidi, J. Goings, B. Peng, A. Petrone, 
 T. Henderson, D. Ranasinghe, V. G. Zakrzewski, J. Gao, N. Rega, 
 G. Zheng, W. Liang, M. Hada, M. Ehara, K. Toyota, R. Fukuda, 
 J. Hasegawa, M. Ishida, T. Nakajima, Y. Honda, O. Kitao, H. Nakai, 
 T. Vreven, K. Throssell, J. A. Montgomery, Jr., J. E. Peralta, 
 F. Ogliaro, M. J. Bearpark, J. J. Heyd, E. N. Brothers, K. N. Kudin, 
 V. N. Staroverov, T. A. Keith, R. Kobayashi, J. Normand, 
 K. Raghavachari, A. P. Rendell, J. C. Burant, S. S. Iyengar, 
 J. Tomasi, M. Cossi, J. M. Millam, M. Klene, C. Adamo, R. Cammi, 
 J. W. Ochterski, R. L. Martin, K. Morokuma, O. Farkas, 
 J. B. Foresman, and D. J. Fox, Gaussian, Inc., Wallingford CT, 2019.
 
 ******************************************
 Gaussian 16:  ES64L-G16RevC.01  3-Jul-2019
                14-Aug-2024 
 ******************************************
 %nprocs=16
 Will use up to   16 processors via shared memory.
 %mem=16GB
 %chk=pyrd9_conf-1.chk
 ----------------------------------------------------------------------
 # B3LYP/6-31G(d,p) symmetry=loose empiricaldispersion=GD3BJ int=(grid=
 ultrafine) opt freq=noraman
 ----------------------------------------------------------------------
 1/18=20,19=15,26=4,38=1/1,3;
 2/9=110,12=2,17=4,18=3,40=1/2;
 3/5=1,6=6,7=101,11=2,25=1,30=1,71=1,74=-5,75=-5,124=41/1,2,3;
 4//1;
 5/5=2,38=5/2;
 6/7=2,8=2,9=2,10=2,28=1/1;
 7//1,2,3,16;
 1/18=20,19=15,26=4/3(2);
 2/9=110/2;
 99//99;
 2/9=110/2;
 3/5=1,6=6,7=101,11=2,25=1,30=1,71=1,74=-5,75=-5,124=41/1,2,3;
 4/5=5,16=3,69=1/1;
 5/5=2,38=5/2;
 7//1,2,3,16;
 1/18=20,19=15,26=4/3(-5);
 2/9=110/2;
 6/7=2,8=2,9=2,10=2,19=2,28=1/1;
 99/9=1/99;
 ---------
 pyrd9.xyz
 ---------
 Symbolic Z-matrix:
 Charge =  0 Multiplicity = 1
 C                     2.2381   -1.143    -0.0172 
 C                     0.7653   -0.7849    0.017 
 N                    -0.0848   -1.84      0.1101 
 C                    -1.424    -1.6235    0.1476 
 Cl                   -2.4586   -2.9974    0.2661 
 C                    -2.0094   -0.3567    0.0958 
 C                    -1.1218    0.7181    0.0002 
 C                     0.2792    0.531    -0.0413 
 C                     0.8148    1.8512   -0.1381 
 N                    -0.1362    2.7497   -0.1548 
 N                    -1.3038    2.0832   -0.0724 
 H                     2.6885   -0.7817   -0.9414 
 H                     2.4029   -2.2203    0.0394 
 H                     2.7544   -0.679     0.8229 
 H                    -3.0799   -0.2324    0.1286 
 H                     1.8537    2.1415   -0.1938 
 H                    -2.1784    2.5842   -0.0689 
 

 GradGradGradGradGradGradGradGradGradGradGradGradGradGradGradGradGradGrad
 Berny optimization.
 Initialization pass.
                           ----------------------------
                           !    Initial Parameters    !
                           ! (Angstroms and Degrees)  !
 --------------------------                            --------------------------
 ! Name  Definition              Value          Derivative Info.                !
 --------------------------------------------------------------------------------
 ! R1    R(1,2)                  1.5161         estimate D2E/DX2                !
 ! R2    R(1,12)                 1.0897         estimate D2E/DX2                !
 ! R3    R(1,13)                 1.0913         estimate D2E/DX2                !
 ! R4    R(1,14)                 1.0898         estimate D2E/DX2                !
 ! R5    R(2,3)                  1.3582         estimate D2E/DX2                !
 ! R6    R(2,8)                  1.404          estimate D2E/DX2                !
 ! R7    R(3,4)                  1.3571         estimate D2E/DX2                !
 ! R8    R(4,5)                  1.724          estimate D2E/DX2                !
 ! R9    R(4,6)                  1.3965         estimate D2E/DX2                !
 ! R10   R(6,7)                  1.3972         estimate D2E/DX2                !
 ! R11   R(6,15)                 1.0782         estimate D2E/DX2                !
 ! R12   R(7,8)                  1.414          estimate D2E/DX2                !
 ! R13   R(7,11)                 1.3791         estimate D2E/DX2                !
 ! R14   R(8,9)                  1.428          estimate D2E/DX2                !
 ! R15   R(9,10)                 1.3084         estimate D2E/DX2                !
 ! R16   R(9,16)                 1.0801         estimate D2E/DX2                !
 ! R17   R(10,11)                1.347          estimate D2E/DX2                !
 ! R18   R(11,17)                1.0079         estimate D2E/DX2                !
 ! A1    A(2,1,12)             110.0186         estimate D2E/DX2                !
 ! A2    A(2,1,13)             112.2531         estimate D2E/DX2                !
 ! A3    A(2,1,14)             110.0157         estimate D2E/DX2                !
 ! A4    A(12,1,13)            107.9907         estimate D2E/DX2                !
 ! A5    A(12,1,14)            108.4699         estimate D2E/DX2                !
 ! A6    A(13,1,14)            107.986          estimate D2E/DX2                !
 ! A7    A(1,2,3)              115.2204         estimate D2E/DX2                !
 ! A8    A(1,2,8)              123.8326         estimate D2E/DX2                !
 ! A9    A(3,2,8)              120.9469         estimate D2E/DX2                !
 ! A10   A(2,3,4)              119.7111         estimate D2E/DX2                !
 ! A11   A(3,4,5)              117.8381         estimate D2E/DX2                !
 ! A12   A(3,4,6)              123.8732         estimate D2E/DX2                !
 ! A13   A(5,4,6)              118.2887         estimate D2E/DX2                !
 ! A14   A(4,6,7)              115.725          estimate D2E/DX2                !
 ! A15   A(4,6,15)             121.3093         estimate D2E/DX2                !
 ! A16   A(7,6,15)             122.9657         estimate D2E/DX2                !
 ! A17   A(6,7,8)              121.9807         estimate D2E/DX2                !
 ! A18   A(6,7,11)             132.9385         estimate D2E/DX2                !
 ! A19   A(8,7,11)             105.0808         estimate D2E/DX2                !
 ! A20   A(2,8,7)              117.7631         estimate D2E/DX2                !
 ! A21   A(2,8,9)              137.6841         estimate D2E/DX2                !
 ! A22   A(7,8,9)              104.5529         estimate D2E/DX2                !
 ! A23   A(8,9,10)             111.2919         estimate D2E/DX2                !
 ! A24   A(8,9,16)             127.7867         estimate D2E/DX2                !
 ! A25   A(10,9,16)            120.9214         estimate D2E/DX2                !
 ! A26   A(9,10,11)            106.8262         estimate D2E/DX2                !
 ! A27   A(7,11,10)            112.2483         estimate D2E/DX2                !
 ! A28   A(7,11,17)            127.3255         estimate D2E/DX2                !
 ! A29   A(10,11,17)           120.4263         estimate D2E/DX2                !
 ! D1    D(12,1,2,3)           120.275          estimate D2E/DX2                !
 ! D2    D(12,1,2,8)           -59.7273         estimate D2E/DX2                !
 ! D3    D(13,1,2,3)            -0.007          estimate D2E/DX2                !
 ! D4    D(13,1,2,8)           179.9908         estimate D2E/DX2                !
 ! D5    D(14,1,2,3)          -120.2809         estimate D2E/DX2                !
 ! D6    D(14,1,2,8)            59.7169         estimate D2E/DX2                !
 ! D7    D(1,2,3,4)            179.9972         estimate D2E/DX2                !
 ! D8    D(8,2,3,4)             -0.0006         estimate D2E/DX2                !
 ! D9    D(1,2,8,7)           -179.9979         estimate D2E/DX2                !
 ! D10   D(1,2,8,9)              0.0055         estimate D2E/DX2                !
 ! D11   D(3,2,8,7)             -0.0003         estimate D2E/DX2                !
 ! D12   D(3,2,8,9)           -179.9969         estimate D2E/DX2                !
 ! D13   D(2,3,4,5)            179.9991         estimate D2E/DX2                !
 ! D14   D(2,3,4,6)              0.004          estimate D2E/DX2                !
 ! D15   D(3,4,6,7)             -0.0059         estimate D2E/DX2                !
 ! D16   D(3,4,6,15)           179.9992         estimate D2E/DX2                !
 ! D17   D(5,4,6,7)            179.999          estimate D2E/DX2                !
 ! D18   D(5,4,6,15)             0.0041         estimate D2E/DX2                !
 ! D19   D(4,6,7,8)              0.0048         estimate D2E/DX2                !
 ! D20   D(4,6,7,11)           179.9981         estimate D2E/DX2                !
 ! D21   D(15,6,7,8)           179.9996         estimate D2E/DX2                !
 ! D22   D(15,6,7,11)           -0.0071         estimate D2E/DX2                !
 ! D23   D(6,7,8,2)             -0.002          estimate D2E/DX2                !
 ! D24   D(6,7,8,9)            179.9957         estimate D2E/DX2                !
 ! D25   D(11,7,8,2)          -179.9969         estimate D2E/DX2                !
 ! D26   D(11,7,8,9)             0.0008         estimate D2E/DX2                !
 ! D27   D(6,7,11,10)         -179.9952         estimate D2E/DX2                !
 ! D28   D(6,7,11,17)            0.0017         estimate D2E/DX2                !
 ! D29   D(8,7,11,10)           -0.0012         estimate D2E/DX2                !
 ! D30   D(8,7,11,17)          179.9958         estimate D2E/DX2                !
 ! D31   D(2,8,9,10)           179.9967         estimate D2E/DX2                !
 ! D32   D(2,8,9,16)            -0.0047         estimate D2E/DX2                !
 ! D33   D(7,8,9,10)            -0.0002         estimate D2E/DX2                !
 ! D34   D(7,8,9,16)           179.9984         estimate D2E/DX2                !
 ! D35   D(8,9,10,11)           -0.0005         estimate D2E/DX2                !
 ! D36   D(16,9,10,11)        -179.9992         estimate D2E/DX2                !
 ! D37   D(9,10,11,7)            0.001          estimate D2E/DX2                !
 ! D38   D(9,10,11,17)        -179.9961         estimate D2E/DX2                !
 --------------------------------------------------------------------------------
 Trust Radius=3.00D-01 FncErr=1.00D-07 GrdErr=1.00D-06 EigMax=2.50D+02 EigMin=1.00D-04
 Number of steps in this run=     95 maximum allowed number of steps=    102.
 GradGradGradGradGradGradGradGradGradGradGradGradGradGradGradGradGradGrad

                          Input orientation:                          
 ---------------------------------------------------------------------
 Center     Atomic      Atomic             Coordinates (Angstroms)
 Number     Number       Type             X           Y           Z
 ---------------------------------------------------------------------
      1          6           0        2.238100   -1.143000   -0.017200
      2          6           0        0.765300   -0.784900    0.017000
      3          7           0       -0.084800   -1.840000    0.110100
      4          6           0       -1.424000   -1.623500    0.147600
      5         17           0       -2.458600   -2.997400    0.266100
      6          6           0       -2.009400   -0.356700    0.095800
      7          6           0       -1.121800    0.718100    0.000200
      8          6           0        0.279200    0.531000   -0.041300
      9          6           0        0.814800    1.851200   -0.138100
     10          7           0       -0.136200    2.749700   -0.154800
     11          7           0       -1.303800    2.083200   -0.072400
     12          1           0        2.688500   -0.781700   -0.941400
     13          1           0        2.402900   -2.220300    0.039400
     14          1           0        2.754400   -0.679000    0.822900
     15          1           0       -3.079900   -0.232400    0.128600
     16          1           0        1.853700    2.141500   -0.193800
     17          1           0       -2.178400    2.584200   -0.068900
 ---------------------------------------------------------------------
                    Distance matrix (angstroms):
                    1          2          3          4          5
     1  C    0.000000
     2  C    1.516095   0.000000
     3  N    2.428555   1.358151   0.000000
     4  C    3.697163   2.348050   1.357105   0.000000
     5  Cl   5.057475   3.918002   2.645532   1.723961   0.000000
     6  C    4.321145   2.808652   2.429911   1.396481   2.684042
     7  C    3.840954   2.412558   2.762485   2.365617   3.957610
     8  C    2.576848   1.404025   2.403551   2.752897   4.476567
     9  C    3.317474   2.641123   3.807340   4.143355   5.864081
    10  N    4.561726   3.651796   4.597625   4.568890   6.212878
    11  N    4.791291   3.537678   4.112270   3.715168   5.221172
    12  H    1.089745   2.148776   3.149102   4.336727   5.732366
    13  H    1.091301   2.177753   2.517594   3.874667   4.928434
    14  H    1.089784   2.148769   3.149137   4.336720   5.732397
    15  H    5.397367   3.886293   3.399315   2.162759   2.837278
    16  H    3.311630   3.129356   4.438748   5.003508   6.724264
    17  H    5.779288   4.474772   4.897831   4.280272   5.598660
                    6          7          8          9         10
     6  C    0.000000
     7  C    1.397200   0.000000
     8  C    2.458556   1.414047   0.000000
     9  C    3.592442   2.247991   1.427994   0.000000
    10  N    3.636124   2.263367   2.260104   1.308427   0.000000
    11  N    2.545442   1.379091   2.217246   2.132277   1.346960
    12  H    4.829769   4.201714   2.887575   3.329896   4.590039
    13  H    4.790050   4.589035   3.476531   4.373863   5.584411
    14  H    4.829735   4.201625   2.887483   3.329787   4.589929
    15  H    1.078191   2.180388   3.448942   4.425066   4.199834
    16  H    4.609600   3.304134   2.257436   1.080134   2.081137
    17  H    2.950353   2.145579   3.202529   3.082422   2.050695
                   11         12         13         14         15
    11  N    0.000000
    12  H    4.990117   0.000000
    13  H    5.680866   1.764400   0.000000
    14  H    4.990020   1.768515   1.764378   0.000000
    15  H    2.925224   5.892459   5.832735   5.892416   0.000000
    16  H    3.160371   3.130638   4.402420   3.130521   5.484501
    17  H    1.007938   5.981409   6.639522   5.981329   2.963941
                   16         17
    16  H    0.000000
    17  H    4.058253   0.000000
 Stoichiometry    C7H6ClN3
 Framework group  C1[X(C7H6ClN3)]
 Deg. of freedom    45
 Full point group                 C1      NOp   1
 Largest Abelian subgroup         C1      NOp   1
 Largest concise Abelian subgroup C1      NOp   1
                         Standard orientation:                         
 ---------------------------------------------------------------------
 Center     Atomic      Atomic             Coordinates (Angstroms)
 Number     Number       Type             X           Y           Z
 ---------------------------------------------------------------------
      1          6           0        0.636672    2.856097    0.000001
      2          6           0        0.277594    1.383138    0.000017
      3          7           0       -1.053197    1.111901    0.000021
      4          6           0       -1.476867   -0.177378   -0.000024
      5         17           0       -3.176449   -0.466276    0.000008
      6          6           0       -0.618342   -1.278783    0.000005
      7          6           0        0.747249   -0.983265   -0.000046
      8          6           0        1.225542    0.347436   -0.000019
      9          6           0        2.647620    0.217589    0.000017
     10          7           0        3.009913   -1.039680    0.000018
     11          7           0        1.878991   -1.771334   -0.000005
     12          1           0        1.226541    3.096280    0.884258
     13          1           0       -0.246730    3.496830   -0.000127
     14          1           0        1.226646    3.096196   -0.884257
     15          1           0       -1.000422   -2.287005   -0.000020
     16          1           0        3.384322    1.007500    0.000020
     17          1           0        1.922512   -2.778331    0.000050
 ---------------------------------------------------------------------
 Rotational constants (GHZ):           1.7704902           0.7112564           0.5090248
 Standard basis: 6-31G(d,p) (6D, 7F)
 There are   199 symmetry adapted cartesian basis functions of A   symmetry.
 There are   199 symmetry adapted basis functions of A   symmetry.
   199 basis functions,   374 primitive gaussians,   199 cartesian basis functions
    43 alpha electrons       43 beta electrons
       nuclear repulsion energy       646.2125698855 Hartrees.
 NAtoms=   17 NActive=   17 NUniq=   17 SFac= 1.00D+00 NAtFMM=   60 NAOKFM=F Big=F
 Integral buffers will be    131072 words long.
 Raffenetti 2 integral format.
 Two-electron integral symmetry is turned on.
 Nuclear repulsion after empirical dispersion term =      646.1773298842 Hartrees.
 One-electron integrals computed using PRISM.
 NBasis=   199 RedAO= T EigKep=  6.24D-04  NBF=   199
 NBsUse=   199 1.00D-06 EigRej= -1.00D+00 NBFU=   199
 ExpMin= 1.43D-01 ExpMax= 2.52D+04 ExpMxC= 3.78D+03 IAcc=3 IRadAn=         5 AccDes= 0.00D+00
 Harris functional with IExCor=  402 and IRadAn=       5 diagonalized for initial guess.
 HarFok:  IExCor=  402 AccDes= 0.00D+00 IRadAn=         5 IDoV= 1 UseB2=F ITyADJ=14
 ICtDFT=  3500011 ScaDFX=  1.000000  1.000000  1.000000  1.000000
 FoFCou: FMM=F IPFlag=           0 FMFlag=      100000 FMFlg1=           0
         NFxFlg=           0 DoJE=T BraDBF=F KetDBF=T FulRan=T
         wScrn=  0.000000 ICntrl=       500 IOpCl=  0 I1Cent=   200000004 NGrid=           0
         NMat0=    1 NMatS0=      1 NMatT0=    0 NMatD0=    1 NMtDS0=    0 NMtDT0=    0
 Petite list used in FoFCou.
 Requested convergence on RMS density matrix=1.00D-08 within 128 cycles.
 Requested convergence on MAX density matrix=1.00D-06.
 Requested convergence on             energy=1.00D-06.
 No special actions if energy rises.
 Integral accuracy reduced to 1.0D-05 until final iterations.
 Initial convergence to 1.0D-05 achieved.  Increase integral accuracy.
 SCF Done:  E(RB3LYP) =  -894.841644447     A.U. after   14 cycles
            NFock= 14  Conv=0.74D-08     -V/T= 2.0062

 **********************************************************************

            Population analysis using the SCF Density.

 **********************************************************************

 Orbital symmetries:
       Occupied  (A) (A) (A) (A) (A) (A) (A) (A) (A) (A) (A) (A)
                 (A) (A) (A) (A) (A) (A) (A) (A) (A) (A) (A) (A)
                 (A) (A) (A) (A) (A) (A) (A) (A) (A) (A) (A) (A)
                 (A) (A) (A) (A) (A) (A) (A)
       Virtual   (A) (A) (A) (A) (A) (A) (A) (A) (A) (A) (A) (A)
                 (A) (A) (A) (A) (A) (A) (A) (A) (A) (A) (A) (A)
                 (A) (A) (A) (A) (A) (A) (A) (A) (A) (A) (A) (A)
                 (A) (A) (A) (A) (A) (A) (A) (A) (A) (A) (A) (A)
                 (A) (A) (A) (A) (A) (A) (A) (A) (A) (A) (A) (A)
                 (A) (A) (A) (A) (A) (A) (A) (A) (A) (A) (A) (A)
                 (A) (A) (A) (A) (A) (A) (A) (A) (A) (A) (A) (A)
                 (A) (A) (A) (A) (A) (A) (A) (A) (A) (A) (A) (A)
                 (A) (A) (A) (A) (A) (A) (A) (A) (A) (A) (A) (A)
                 (A) (A) (A) (A) (A) (A) (A) (A) (A) (A) (A) (A)
                 (A) (A) (A) (A) (A) (A) (A) (A) (A) (A) (A) (A)
                 (A) (A) (A) (A) (A) (A) (A) (A) (A) (A) (A) (A)
                 (A) (A) (A) (A) (A) (A) (A) (A) (A) (A) (A) (A)
 The electronic state is 1-A.
 Alpha  occ. eigenvalues -- -101.54987 -14.42198 -14.37561 -14.33880 -10.28538
 Alpha  occ. eigenvalues --  -10.25329 -10.25292 -10.22645 -10.21582 -10.20670
 Alpha  occ. eigenvalues --  -10.19097  -9.46702  -7.23091  -7.22137  -7.22073
 Alpha  occ. eigenvalues --   -1.06419  -0.95562  -0.86525  -0.84705  -0.81404
 Alpha  occ. eigenvalues --   -0.77139  -0.71994  -0.65002  -0.62964  -0.61765
 Alpha  occ. eigenvalues --   -0.55261  -0.51014  -0.50016  -0.46754  -0.46714
 Alpha  occ. eigenvalues --   -0.44845  -0.43366  -0.43242  -0.39930  -0.39090
 Alpha  occ. eigenvalues --   -0.37514  -0.32948  -0.31920  -0.30681  -0.30488
 Alpha  occ. eigenvalues --   -0.26962  -0.26895  -0.23449
 Alpha virt. eigenvalues --   -0.04744  -0.01094   0.04238   0.04283   0.07017
 Alpha virt. eigenvalues --    0.11072   0.12874   0.13673   0.15324   0.15444
 Alpha virt. eigenvalues --    0.17988   0.18673   0.21562   0.22998   0.23859
 Alpha virt. eigenvalues --    0.25228   0.30397   0.33972   0.36233   0.37833
 Alpha virt. eigenvalues --    0.40160   0.41984   0.44022   0.44633   0.45743
 Alpha virt. eigenvalues --    0.48985   0.50533   0.51866   0.53858   0.54221
 Alpha virt. eigenvalues --    0.54589   0.56935   0.58509   0.60193   0.60584
 Alpha virt. eigenvalues --    0.61477   0.64151   0.64593   0.65577   0.66754
 Alpha virt. eigenvalues --    0.67367   0.73195   0.75104   0.76237   0.76589
 Alpha virt. eigenvalues --    0.78671   0.79425   0.79855   0.81434   0.83487
 Alpha virt. eigenvalues --    0.83562   0.84077   0.86483   0.86761   0.87966
 Alpha virt. eigenvalues --    0.88740   0.90285   0.93920   0.94728   0.95283
 Alpha virt. eigenvalues --    0.95832   0.99795   1.01354   1.08084   1.08235
 Alpha virt. eigenvalues --    1.13936   1.19581   1.19753   1.21192   1.25754
 Alpha virt. eigenvalues --    1.26040   1.28657   1.30568   1.35765   1.36814
 Alpha virt. eigenvalues --    1.38812   1.39553   1.43078   1.45194   1.45658
 Alpha virt. eigenvalues --    1.47993   1.53426   1.55056   1.59667   1.69277
 Alpha virt. eigenvalues --    1.71237   1.72233   1.76931   1.78168   1.80717
 Alpha virt. eigenvalues --    1.83821   1.85841   1.89098   1.90418   1.90915
 Alpha virt. eigenvalues --    1.96365   2.00070   2.01881   2.03615   2.07457
 Alpha virt. eigenvalues --    2.08567   2.10086   2.10567   2.13515   2.14503
 Alpha virt. eigenvalues --    2.15631   2.18505   2.19465   2.25351   2.27460
 Alpha virt. eigenvalues --    2.27899   2.29380   2.33984   2.39462   2.42756
 Alpha virt. eigenvalues --    2.46649   2.48531   2.50025   2.51496   2.52023
 Alpha virt. eigenvalues --    2.57928   2.61125   2.61949   2.63673   2.66733
 Alpha virt. eigenvalues --    2.67087   2.71339   2.74303   2.75775   2.79694
 Alpha virt. eigenvalues --    2.82880   2.84382   2.85370   2.86650   2.99626
 Alpha virt. eigenvalues --    3.05049   3.13640   3.16769   3.19190   3.28941
 Alpha virt. eigenvalues --    3.42544   3.45507   3.48693   3.52267   3.61391
 Alpha virt. eigenvalues --    3.86098   4.07749   4.09867   4.15942   4.19532
 Alpha virt. eigenvalues --    4.24567   4.30812   4.35263   4.46112   4.54333
 Alpha virt. eigenvalues --    4.79889
          Condensed to atoms (all electrons):
               1          2          3          4          5          6
     1  C    5.051484   0.370462  -0.083582   0.007300  -0.000233   0.000532
     2  C    0.370462   4.867860   0.453267  -0.042194   0.003969  -0.049808
     3  N   -0.083582   0.453267   6.872808   0.384820  -0.067719  -0.033347
     4  C    0.007300  -0.042194   0.384820   4.925604   0.259136   0.465228
     5  Cl  -0.000233   0.003969  -0.067719   0.259136  16.873233  -0.084843
     6  C    0.000532  -0.049808  -0.033347   0.465228  -0.084843   5.095642
     7  C    0.004546  -0.039911  -0.048522   0.001585   0.004042   0.438326
     8  C   -0.085739   0.352088  -0.011591  -0.041758   0.000828  -0.050304
     9  C   -0.004602  -0.074556   0.006233   0.000032   0.000017   0.013298
    10  N   -0.000080   0.010034  -0.000145  -0.000116   0.000001   0.003011
    11  N   -0.000143   0.013456   0.000277   0.004443  -0.000071  -0.079805
    12  H    0.370931  -0.029752   0.001222  -0.000200   0.000005   0.000018
    13  H    0.368125  -0.019409   0.006125   0.000188  -0.000034   0.000005
    14  H    0.370927  -0.029758   0.001222  -0.000201   0.000005   0.000018
    15  H    0.000017   0.000417   0.004173  -0.036549  -0.000424   0.361413
    16  H    0.001951  -0.002602  -0.000047  -0.000002   0.000000  -0.000194
    17  H    0.000003  -0.000035   0.000006  -0.000076   0.000002  -0.001701
               7          8          9         10         11         12
     1  C    0.004546  -0.085739  -0.004602  -0.000080  -0.000143   0.370931
     2  C   -0.039911   0.352088  -0.074556   0.010034   0.013456  -0.029752
     3  N   -0.048522  -0.011591   0.006233  -0.000145   0.000277   0.001222
     4  C    0.001585  -0.041758   0.000032  -0.000116   0.004443  -0.000200
     5  Cl   0.004042   0.000828   0.000017   0.000001  -0.000071   0.000005
     6  C    0.438326  -0.050304   0.013298   0.003011  -0.079805   0.000018
     7  C    4.867216   0.456680  -0.032581  -0.122843   0.165438  -0.000003
     8  C    0.456680   4.984680   0.425193   0.005787  -0.009548   0.000935
     9  C   -0.032581   0.425193   4.904231   0.463482  -0.168597   0.001188
    10  N   -0.122843   0.005787   0.463482   6.694204   0.288446   0.000013
    11  N    0.165438  -0.009548  -0.168597   0.288446   6.872486  -0.000001
    12  H   -0.000003   0.000935   0.001188   0.000013  -0.000001   0.583755
    13  H   -0.000114   0.004041  -0.000063   0.000000   0.000001  -0.024700
    14  H   -0.000003   0.000936   0.001188   0.000013  -0.000001  -0.030796
    15  H   -0.035527   0.005076  -0.000190  -0.000073  -0.004960  -0.000000
    16  H    0.004251  -0.038749   0.384262  -0.046235   0.006230   0.000335
    17  H   -0.040964   0.006077   0.005860  -0.035899   0.370907  -0.000000
              13         14         15         16         17
     1  C    0.368125   0.370927   0.000017   0.001951   0.000003
     2  C   -0.019409  -0.029758   0.000417  -0.002602  -0.000035
     3  N    0.006125   0.001222   0.004173  -0.000047   0.000006
     4  C    0.000188  -0.000201  -0.036549  -0.000002  -0.000076
     5  Cl  -0.000034   0.000005  -0.000424   0.000000   0.000002
     6  C    0.000005   0.000018   0.361413  -0.000194  -0.001701
     7  C   -0.000114  -0.000003  -0.035527   0.004251  -0.040964
     8  C    0.004041   0.000936   0.005076  -0.038749   0.006077
     9  C   -0.000063   0.001188  -0.000190   0.384262   0.005860
    10  N    0.000000   0.000013  -0.000073  -0.046235  -0.035899
    11  N    0.000001  -0.000001  -0.004960   0.006230   0.370907
    12  H   -0.024700  -0.030796  -0.000000   0.000335  -0.000000
    13  H    0.546547  -0.024703  -0.000001  -0.000034  -0.000000
    14  H   -0.024703   0.583778  -0.000000   0.000335  -0.000000
    15  H   -0.000001  -0.000000   0.596517   0.000002   0.001809
    16  H   -0.000034   0.000335   0.000002   0.576415  -0.000143
    17  H   -0.000000  -0.000000   0.001809  -0.000143   0.412712
 Mulliken charges:
               1
     1  C   -0.371899
     2  C    0.216470
     3  N   -0.485201
     4  C    0.072759
     5  Cl   0.012086
     6  C   -0.077488
     7  C    0.378383
     8  C   -0.004634
     9  C    0.075605
    10  N   -0.259603
    11  N   -0.458558
    12  H    0.127051
    13  H    0.144026
    14  H    0.127040
    15  H    0.108298
    16  H    0.114223
    17  H    0.281442
 Sum of Mulliken charges =  -0.00000
 Mulliken charges with hydrogens summed into heavy atoms:
               1
     1  C    0.026218
     2  C    0.216470
     3  N   -0.485201
     4  C    0.072759
     5  Cl   0.012086
     6  C    0.030810
     7  C    0.378383
     8  C   -0.004634
     9  C    0.189828
    10  N   -0.259603
    11  N   -0.177116
 Electronic spatial extent (au):  <R**2>=           2029.8456
 Charge=             -0.0000 electrons
 Dipole moment (field-independent basis, Debye):
    X=              1.8217    Y=             -1.2869    Z=             -0.0000  Tot=              2.2304
 Quadrupole moment (field-independent basis, Debye-Ang):
   XX=            -78.5311   YY=            -57.5088   ZZ=            -70.6563
   XY=              4.5276   XZ=              0.0002   YZ=             -0.0002
 Traceless Quadrupole moment (field-independent basis, Debye-Ang):
   XX=             -9.6324   YY=             11.3899   ZZ=             -1.7576
   XY=              4.5276   XZ=              0.0002   YZ=             -0.0002
 Octapole moment (field-independent basis, Debye-Ang**2):
  XXX=            -23.9692  YYY=            -25.6345  ZZZ=              0.0003  XYY=             14.4446
  XXY=              9.0615  XXZ=              0.0002  XZZ=             -3.0821  YZZ=              0.4471
  YYZ=              0.0005  XYZ=              0.0001
 Hexadecapole moment (field-independent basis, Debye-Ang**3):
 XXXX=          -1820.3307 YYYY=           -716.1752 ZZZZ=            -76.7483 XXXY=             71.5925
 XXXZ=             -0.0010 YYYX=            -36.8315 YYYZ=             -0.0027 ZZZX=              0.0002
 ZZZY=              0.0002 XXYY=           -414.6988 XXZZ=           -309.1741 YYZZ=           -154.2278
 XXYZ=             -0.0006 YYXZ=              0.0028 ZZXY=              1.1460
 N-N= 6.461773298842D+02 E-N=-3.394924610494D+03  KE= 8.893049461195D+02
 Calling FoFJK, ICntrl=      2127 FMM=F ISym2X=0 I1Cent= 0 IOpClX= 0 NMat=1 NMatS=1 NMatT=0.
 ***** Axes restored to original set *****
 -------------------------------------------------------------------
 Center     Atomic                   Forces (Hartrees/Bohr)
 Number     Number              X              Y              Z
 -------------------------------------------------------------------
      1        6          -0.006598296    0.004188863    0.000028656
      2        6          -0.005835217   -0.029758987    0.001951293
      3        7          -0.004945236    0.011686359   -0.000489976
      4        6           0.024885216    0.027781086   -0.002554789
      5       17          -0.004559891   -0.011771613    0.000855691
      6        6          -0.000314011   -0.006118231    0.000377321
      7        6          -0.002328676    0.009220097   -0.000459458
      8        6          -0.001561388   -0.005111216    0.000354795
      9        6           0.009702865   -0.007256776    0.000062231
     10        7           0.002485831    0.017276895   -0.001099331
     11        7          -0.010059547   -0.020563726    0.001574357
     12        1           0.003089263    0.002950534   -0.002180987
     13        1          -0.005760565    0.000472787    0.000183014
     14        1           0.003219194    0.003162984    0.001568025
     15        1          -0.003432965    0.000500429    0.000098014
     16        1           0.000032089    0.001757156   -0.000103947
     17        1           0.001981333    0.001583359   -0.000164908
 -------------------------------------------------------------------
 Cartesian Forces:  Max     0.029758987 RMS     0.008790151

 GradGradGradGradGradGradGradGradGradGradGradGradGradGradGradGradGradGrad
 Berny optimization.
 FormGI is forming the generalized inverse of G from B-inverse, IUseBI=4.
 Internal  Forces:  Max     0.021090657 RMS     0.004799436
 Search for a local minimum.
 Step number   1 out of a maximum of   95
 All quantities printed in internal units (Hartrees-Bohrs-Radians)
 Mixed Optimization -- RFO/linear search
 Second derivative matrix not updated -- first step.
 ITU=  0
     Eigenvalues ---    0.00553   0.01403   0.01881   0.01942   0.01977
     Eigenvalues ---    0.02009   0.02053   0.02116   0.02130   0.02176
     Eigenvalues ---    0.02212   0.02299   0.07034   0.07284   0.16000
     Eigenvalues ---    0.16000   0.16000   0.16000   0.16000   0.16000
     Eigenvalues ---    0.23211   0.23557   0.24136   0.25000   0.25000
     Eigenvalues ---    0.25000   0.25000   0.30746   0.33154   0.34663
     Eigenvalues ---    0.34838   0.34842   0.35978   0.36214   0.38334
     Eigenvalues ---    0.39302   0.42411   0.45159   0.45756   0.46320
     Eigenvalues ---    0.46961   0.51554   0.52810   0.53380   0.61951
 RFO step:  Lambda=-5.41692843D-03 EMin= 5.53036991D-03
 Linear search not attempted -- first point.
 Iteration  1 RMS(Cart)=  0.02009585 RMS(Int)=  0.00020978
 Iteration  2 RMS(Cart)=  0.00034424 RMS(Int)=  0.00005151
 Iteration  3 RMS(Cart)=  0.00000005 RMS(Int)=  0.00005151
 Variable       Old X    -DE/DX   Delta X   Delta X   Delta X     New X
                                 (Linear)    (Quad)   (Total)
    R1        2.86500  -0.00841   0.00000  -0.02689  -0.02689   2.83811
    R2        2.05932   0.00410   0.00000   0.01160   0.01160   2.07092
    R3        2.06226  -0.00133   0.00000  -0.00377  -0.00377   2.05849
    R4        2.05939   0.00408   0.00000   0.01153   0.01153   2.07093
    R5        2.56653  -0.02109   0.00000  -0.04051  -0.04052   2.52601
    R6        2.65322   0.00037   0.00000   0.00091   0.00082   2.65404
    R7        2.56456  -0.01462   0.00000  -0.02849  -0.02842   2.53614
    R8        3.25781   0.01218   0.00000   0.03614   0.03614   3.29395
    R9        2.63897  -0.00673   0.00000  -0.01465  -0.01456   2.62441
   R10        2.64033  -0.00344   0.00000  -0.00580  -0.00578   2.63455
   R11        2.03749   0.00347   0.00000   0.00944   0.00944   2.04692
   R12        2.67216   0.00155   0.00000   0.00373   0.00363   2.67579
   R13        2.60610  -0.00963   0.00000  -0.02086  -0.02087   2.58524
   R14        2.69852   0.00364   0.00000   0.00965   0.00964   2.70816
   R15        2.47257   0.00987   0.00000   0.01649   0.01652   2.48909
   R16        2.04116   0.00051   0.00000   0.00139   0.00139   2.04255
   R17        2.54539   0.01210   0.00000   0.02189   0.02192   2.56730
   R18        1.90473  -0.00093   0.00000  -0.00199  -0.00199   1.90274
    A1        1.92019   0.00247   0.00000   0.01497   0.01497   1.93516
    A2        1.95919  -0.00843   0.00000  -0.05101  -0.05090   1.90829
    A3        1.92014   0.00247   0.00000   0.01500   0.01500   1.93514
    A4        1.88479   0.00304   0.00000   0.01833   0.01844   1.90323
    A5        1.89316  -0.00248   0.00000  -0.01489  -0.01499   1.87817
    A6        1.88471   0.00305   0.00000   0.01839   0.01850   1.90321
    A7        2.01098   0.00782   0.00000   0.03172   0.03178   2.04275
    A8        2.16129  -0.00720   0.00000  -0.02709  -0.02702   2.13426
    A9        2.11092  -0.00062   0.00000  -0.00463  -0.00475   2.10617
   A10        2.08935  -0.00087   0.00000  -0.01165  -0.01159   2.07776
   A11        2.05666  -0.01115   0.00000  -0.04220  -0.04227   2.01439
   A12        2.16200   0.01109   0.00000   0.04053   0.04068   2.20267
   A13        2.06453   0.00006   0.00000   0.00166   0.00159   2.06612
   A14        2.01978  -0.00673   0.00000  -0.02634  -0.02624   1.99354
   A15        2.11725   0.00347   0.00000   0.01379   0.01374   2.13099
   A16        2.14616   0.00326   0.00000   0.01255   0.01250   2.15865
   A17        2.12896  -0.00429   0.00000  -0.00784  -0.00787   2.12109
   A18        2.32021   0.00073   0.00000   0.00216   0.00223   2.32244
   A19        1.83401   0.00356   0.00000   0.00567   0.00564   1.83965
   A20        2.05535   0.00143   0.00000   0.00993   0.00978   2.06513
   A21        2.40304  -0.00201   0.00000  -0.00935  -0.00923   2.39381
   A22        1.82479   0.00058   0.00000  -0.00058  -0.00055   1.82424
   A23        1.94241  -0.00158   0.00000  -0.00133  -0.00133   1.94108
   A24        2.23030   0.00251   0.00000   0.01106   0.01107   2.24137
   A25        2.11048  -0.00093   0.00000  -0.00974  -0.00973   2.10074
   A26        1.86447  -0.00458   0.00000  -0.01108  -0.01105   1.85342
   A27        1.95910   0.00201   0.00000   0.00731   0.00729   1.96640
   A28        2.22225   0.00124   0.00000   0.00995   0.00996   2.23221
   A29        2.10184  -0.00326   0.00000  -0.01727  -0.01726   2.08458
    D1        2.09919  -0.00001   0.00000  -0.00019  -0.00028   2.09892
    D2       -1.04244  -0.00001   0.00000  -0.00014  -0.00022  -1.04266
    D3       -0.00012   0.00000   0.00000   0.00002   0.00002  -0.00010
    D4        3.14143   0.00000   0.00000   0.00008   0.00008   3.14151
    D5       -2.09930   0.00001   0.00000   0.00014   0.00022  -2.09907
    D6        1.04226   0.00001   0.00000   0.00020   0.00028   1.04254
    D7        3.14154   0.00000   0.00000   0.00006   0.00006  -3.14158
    D8       -0.00001   0.00000   0.00000   0.00001   0.00001  -0.00000
    D9       -3.14156  -0.00000   0.00000  -0.00005  -0.00004   3.14159
   D10        0.00010  -0.00000   0.00000  -0.00006  -0.00005   0.00004
   D11       -0.00000   0.00000   0.00000   0.00002   0.00002   0.00001
   D12       -3.14154  -0.00000   0.00000   0.00001   0.00001  -3.14153
   D13        3.14158   0.00000   0.00000   0.00005   0.00005  -3.14156
   D14        0.00007  -0.00000   0.00000  -0.00008  -0.00008  -0.00001
   D15       -0.00010   0.00000   0.00000   0.00011   0.00011   0.00001
   D16        3.14158   0.00000   0.00000   0.00005   0.00005  -3.14156
   D17        3.14157  -0.00000   0.00000  -0.00001  -0.00001   3.14156
   D18        0.00007  -0.00000   0.00000  -0.00008  -0.00008  -0.00001
   D19        0.00008  -0.00000   0.00000  -0.00008  -0.00008   0.00000
   D20        3.14156  -0.00000   0.00000   0.00000   0.00000   3.14156
   D21        3.14159  -0.00000   0.00000  -0.00002  -0.00002   3.14157
   D22       -0.00012   0.00000   0.00000   0.00006   0.00007  -0.00006
   D23       -0.00003   0.00000   0.00000   0.00002   0.00002  -0.00001
   D24        3.14152   0.00000   0.00000   0.00003   0.00003   3.14155
   D25       -3.14154  -0.00000   0.00000  -0.00004  -0.00004  -3.14158
   D26        0.00001  -0.00000   0.00000  -0.00003  -0.00003  -0.00002
   D27       -3.14151  -0.00000   0.00000  -0.00002  -0.00003  -3.14153
   D28        0.00003  -0.00000   0.00000  -0.00002  -0.00002   0.00001
   D29       -0.00002   0.00000   0.00000   0.00005   0.00005   0.00003
   D30        3.14152   0.00000   0.00000   0.00005   0.00005   3.14157
   D31        3.14154   0.00000   0.00000   0.00002   0.00002   3.14155
   D32       -0.00008   0.00000   0.00000   0.00003   0.00003  -0.00005
   D33       -0.00000   0.00000   0.00000   0.00001   0.00001   0.00001
   D34        3.14156   0.00000   0.00000   0.00002   0.00002   3.14159
   D35       -0.00001   0.00000   0.00000   0.00002   0.00002   0.00001
   D36       -3.14158   0.00000   0.00000   0.00001   0.00001  -3.14157
   D37        0.00002  -0.00000   0.00000  -0.00004  -0.00004  -0.00003
   D38       -3.14153  -0.00000   0.00000  -0.00005  -0.00005  -3.14157
         Item               Value     Threshold  Converged?
 Maximum Force            0.021091     0.000450     NO 
 RMS     Force            0.004799     0.000300     NO 
 Maximum Displacement     0.082093     0.001800     NO 
 RMS     Displacement     0.020227     0.001200     NO 
 Predicted change in Energy=-2.756902D-03
 GradGradGradGradGradGradGradGradGradGradGradGradGradGradGradGradGradGrad

                          Input orientation:                          
 ---------------------------------------------------------------------
 Center     Atomic      Atomic             Coordinates (Angstroms)
 Number     Number       Type             X           Y           Z
 ---------------------------------------------------------------------
      1          6           0        2.223656   -1.125235   -0.017671
      2          6           0        0.756566   -0.805968    0.018591
      3          7           0       -0.087896   -1.838096    0.110127
      4          6           0       -1.407979   -1.598790    0.145525
      5         17           0       -2.421491   -3.011845    0.265569
      6          6           0       -2.017205   -0.351763    0.095805
      7          6           0       -1.126552    0.716541    0.000439
      8          6           0        0.273929    0.511655   -0.039973
      9          6           0        0.827302    1.830012   -0.137334
     10          7           0       -0.120384    2.744620   -0.155115
     11          7           0       -1.297760    2.071900   -0.071972
     12          1           0        2.680871   -0.756237   -0.942742
     13          1           0        2.359458   -2.204498    0.040079
     14          1           0        2.746815   -0.653540    0.821840
     15          1           0       -3.093593   -0.235315    0.129274
     16          1           0        1.867176    2.119565   -0.193025
     17          1           0       -2.162913    2.586994   -0.069616
 ---------------------------------------------------------------------
                    Distance matrix (angstroms):
                    1          2          3          4          5
     1  C    0.000000
     2  C    1.501865   0.000000
     3  N    2.422349   1.336706   0.000000
     4  C    3.666014   2.308665   1.342066   0.000000
     5  Cl   5.021644   3.876459   2.616776   1.743084   0.000000
     6  C    4.312312   2.811773   2.435492   1.388778   2.695978
     7  C    3.823135   2.421672   2.759893   2.336880   3.955758
     8  C    2.545848   1.404457   2.382179   2.705033   4.446763
     9  C    3.270720   2.641535   3.788646   4.102825   5.844704
    10  N    4.526499   3.661405   4.590500   4.540209   6.213610
    11  N    4.756573   3.537030   4.096950   3.678780   5.217391
    12  H    1.095884   2.151647   3.153573   4.314269   5.708054
    13  H    1.089306   2.127349   2.475621   3.817275   4.853878
    14  H    1.095888   2.151635   3.153616   4.314303   5.708102
    15  H    5.393207   3.893792   3.406389   2.168091   2.859967
    16  H    3.269029   3.136396   4.424623   4.966631   6.703308
    17  H    5.746766   4.476977   4.890749   4.258755   5.614820
                    6          7          8          9         10
     6  C    0.000000
     7  C    1.394141   0.000000
     8  C    2.452187   1.415966   0.000000
     9  C    3.592453   2.253075   1.433096   0.000000
    10  N    3.639846   2.269290   2.270434   1.317168   0.000000
    11  N    2.533751   1.368048   2.214858   2.139782   1.358557
    12  H    4.828467   4.189885   2.866341   3.282238   4.552295
    13  H    4.752990   4.548220   3.425395   4.319289   5.539088
    14  H    4.828465   4.189844   2.866281   3.282161   4.552226
    15  H    1.083186   2.189036   3.453522   4.439603   4.219106
    16  H    4.612949   3.311845   2.268752   1.080871   2.083873
    17  H    2.947013   2.139520   3.200954   3.085286   2.050385
                   11         12         13         14         15
    11  N    0.000000
    12  H    4.958437   0.000000
    13  H    5.628089   1.779523   0.000000
    14  H    4.958378   1.768798   1.779513   0.000000
    15  H    2.930658   5.896186   5.798396   5.896178   0.000000
    16  H    3.167609   3.081300   4.358234   3.081206   5.500779
    17  H    1.006884   5.949939   6.589557   5.949889   2.978448
                   16         17
    16  H    0.000000
    17  H    4.058982   0.000000
 Stoichiometry    C7H6ClN3
 Framework group  C1[X(C7H6ClN3)]
 Deg. of freedom    45
 Full point group                 C1      NOp   1
 Largest Abelian subgroup         C1      NOp   1
 Largest concise Abelian subgroup C1      NOp   1
                         Standard orientation:                         
 ---------------------------------------------------------------------
 Center     Atomic      Atomic             Coordinates (Angstroms)
 Number     Number       Type             X           Y           Z
 ---------------------------------------------------------------------
      1          6           0        0.628185    2.830469   -0.000002
      2          6           0        0.246555    1.377900   -0.000012
      3          7           0       -1.059365    1.092670    0.000011
      4          6           0       -1.445609   -0.192615    0.000021
      5         17           0       -3.168682   -0.455974    0.000001
      6          6           0       -0.608467   -1.300720    0.000001
      7          6           0        0.750767   -0.990699   -0.000022
      8          6           0        1.204306    0.350666   -0.000023
      9          6           0        2.633627    0.246710    0.000012
     10          7           0        3.019952   -1.012530    0.000025
     11          7           0        1.883791   -1.757389   -0.000015
     12          1           0        1.226475    3.077051    0.884423
     13          1           0       -0.274279    3.440507   -0.000077
     14          1           0        1.226574    3.077018   -0.884375
     15          1           0       -0.993701   -2.313086   -0.000021
     16          1           0        3.364974    1.042583    0.000017
     17          1           0        1.950715   -2.762047    0.000005
 ---------------------------------------------------------------------
 Rotational constants (GHZ):           1.7939224           0.7147446           0.5127417
 Standard basis: 6-31G(d,p) (6D, 7F)
 There are   199 symmetry adapted cartesian basis functions of A   symmetry.
 There are   199 symmetry adapted basis functions of A   symmetry.
   199 basis functions,   374 primitive gaussians,   199 cartesian basis functions
    43 alpha electrons       43 beta electrons
       nuclear repulsion energy       647.8607173279 Hartrees.
 NAtoms=   17 NActive=   17 NUniq=   17 SFac= 1.00D+00 NAtFMM=   60 NAOKFM=F Big=F
 Integral buffers will be    131072 words long.
 Raffenetti 2 integral format.
 Two-electron integral symmetry is turned on.
 Nuclear repulsion after empirical dispersion term =      647.8253395887 Hartrees.
 One-electron integrals computed using PRISM.
 NBasis=   199 RedAO= T EigKep=  6.27D-04  NBF=   199
 NBsUse=   199 1.00D-06 EigRej= -1.00D+00 NBFU=   199
 Initial guess from the checkpoint file:  "pyrd9_conf-1.chk"
 B after Tr=    -0.000000   -0.000000   -0.000000
         Rot=    0.999998   -0.000000   -0.000000   -0.002006 Ang=  -0.23 deg.
 ExpMin= 1.43D-01 ExpMax= 2.52D+04 ExpMxC= 3.78D+03 IAcc=3 IRadAn=         5 AccDes= 0.00D+00
 Harris functional with IExCor=  402 and IRadAn=       5 diagonalized for initial guess.
 HarFok:  IExCor=  402 AccDes= 0.00D+00 IRadAn=         5 IDoV= 1 UseB2=F ITyADJ=14
 ICtDFT=  3500011 ScaDFX=  1.000000  1.000000  1.000000  1.000000
 FoFCou: FMM=F IPFlag=           0 FMFlag=      100000 FMFlg1=           0
         NFxFlg=           0 DoJE=T BraDBF=F KetDBF=T FulRan=T
         wScrn=  0.000000 ICntrl=       500 IOpCl=  0 I1Cent=   200000004 NGrid=           0
         NMat0=    1 NMatS0=      1 NMatT0=    0 NMatD0=    1 NMtDS0=    0 NMtDT0=    0
 Petite list used in FoFCou.
 Requested convergence on RMS density matrix=1.00D-08 within 128 cycles.
 Requested convergence on MAX density matrix=1.00D-06.
 Requested convergence on             energy=1.00D-06.
 No special actions if energy rises.
 Integral accuracy reduced to 1.0D-05 until final iterations.
 Initial convergence to 1.0D-05 achieved.  Increase integral accuracy.
 SCF Done:  E(RB3LYP) =  -894.844775637     A.U. after   12 cycles
            NFock= 12  Conv=0.71D-08     -V/T= 2.0061
 Calling FoFJK, ICntrl=      2127 FMM=F ISym2X=0 I1Cent= 0 IOpClX= 0 NMat=1 NMatS=1 NMatT=0.
 ***** Axes restored to original set *****
 -------------------------------------------------------------------
 Center     Atomic                   Forces (Hartrees/Bohr)
 Number     Number              X              Y              Z
 -------------------------------------------------------------------
      1        6           0.000110655    0.000922823   -0.000051878
      2        6           0.000796376   -0.006016124    0.000317207
      3        7          -0.002069890    0.003379780   -0.000119424
      4        6           0.006389220    0.007037539   -0.000643924
      5       17          -0.004618631   -0.005858079    0.000511973
      6        6          -0.003113439   -0.004757553    0.000394654
      7        6           0.002291389    0.008496127   -0.000580641
      8        6          -0.000903237    0.002373755   -0.000106239
      9        6           0.000655684   -0.003879391    0.000202537
     10        7           0.003103475    0.005142192   -0.000412719
     11        7          -0.004160413   -0.008095134    0.000624524
     12        1           0.000246784    0.000275211    0.000412797
     13        1           0.000266866   -0.000453255    0.000014858
     14        1           0.000214163    0.000224300   -0.000461852
     15        1           0.000617025   -0.000436050    0.000001233
     16        1          -0.000298030    0.000675870   -0.000028903
     17        1           0.000472003    0.000967990   -0.000074204
 -------------------------------------------------------------------
 Cartesian Forces:  Max     0.008496127 RMS     0.002987161

 GradGradGradGradGradGradGradGradGradGradGradGradGradGradGradGradGradGrad
 Berny optimization.
 Using GEDIIS/GDIIS optimizer.
 FormGI is forming the generalized inverse of G from B-inverse, IUseBI=4.
 Internal  Forces:  Max     0.007469686 RMS     0.001356120
 Search for a local minimum.
 Step number   2 out of a maximum of   95
 All quantities printed in internal units (Hartrees-Bohrs-Radians)
 Mixed Optimization -- RFO/linear search
 Update second derivatives using D2CorX and points    1    2
 DE= -3.13D-03 DEPred=-2.76D-03 R= 1.14D+00
 TightC=F SS=  1.41D+00  RLast= 1.33D-01 DXNew= 5.0454D-01 4.0013D-01
 Trust test= 1.14D+00 RLast= 1.33D-01 DXMaxT set to 4.00D-01
 ITU=  1  0
 Use linear search instead of GDIIS.
     Eigenvalues ---    0.00553   0.01397   0.01882   0.01942   0.01976
     Eigenvalues ---    0.02009   0.02048   0.02116   0.02130   0.02174
     Eigenvalues ---    0.02212   0.02294   0.07183   0.07296   0.15426
     Eigenvalues ---    0.16000   0.16000   0.16000   0.16000   0.16418
     Eigenvalues ---    0.22033   0.23386   0.23864   0.24262   0.25000
     Eigenvalues ---    0.25000   0.25775   0.30087   0.31902   0.34675
     Eigenvalues ---    0.34840   0.35101   0.35981   0.36396   0.38455
     Eigenvalues ---    0.39396   0.42302   0.43792   0.45903   0.46329
     Eigenvalues ---    0.46555   0.51626   0.52738   0.54337   0.62003
 RFO step:  Lambda=-4.19306247D-04 EMin= 5.53036992D-03
 Quartic linear search produced a step of  0.16860.
 Iteration  1 RMS(Cart)=  0.00648709 RMS(Int)=  0.00002240
 Iteration  2 RMS(Cart)=  0.00003561 RMS(Int)=  0.00000981
 Iteration  3 RMS(Cart)=  0.00000000 RMS(Int)=  0.00000981
 Variable       Old X    -DE/DX   Delta X   Delta X   Delta X     New X
                                 (Linear)    (Quad)   (Total)
    R1        2.83811   0.00062  -0.00453   0.00497   0.00043   2.83855
    R2        2.07092  -0.00015   0.00196  -0.00164   0.00032   2.07124
    R3        2.05849   0.00048  -0.00064   0.00199   0.00136   2.05985
    R4        2.07093  -0.00016   0.00194  -0.00164   0.00031   2.07123
    R5        2.52601  -0.00193  -0.00683  -0.00068  -0.00751   2.51850
    R6        2.65404   0.00256   0.00014   0.00669   0.00681   2.66085
    R7        2.53614  -0.00179  -0.00479  -0.00159  -0.00637   2.52977
    R8        3.29395   0.00747   0.00609   0.02277   0.02887   3.32282
    R9        2.62441  -0.00157  -0.00245  -0.00273  -0.00516   2.61924
   R10        2.63455   0.00420  -0.00097   0.01152   0.01054   2.64509
   R11        2.04692  -0.00066   0.00159  -0.00304  -0.00145   2.04548
   R12        2.67579   0.00050   0.00061   0.00081   0.00140   2.67719
   R13        2.58524  -0.00388  -0.00352  -0.00741  -0.01094   2.57430
   R14        2.70816  -0.00118   0.00163  -0.00437  -0.00275   2.70541
   R15        2.48909   0.00163   0.00278   0.00177   0.00456   2.49365
   R16        2.04255  -0.00010   0.00023  -0.00047  -0.00024   2.04231
   R17        2.56730   0.00464   0.00369   0.00803   0.01173   2.57903
   R18        1.90274   0.00009  -0.00034   0.00042   0.00008   1.90282
    A1        1.93516   0.00017   0.00252  -0.00112   0.00140   1.93656
    A2        1.90829   0.00036  -0.00858   0.00945   0.00088   1.90917
    A3        1.93514   0.00017   0.00253  -0.00110   0.00143   1.93657
    A4        1.90323  -0.00007   0.00311  -0.00099   0.00213   1.90536
    A5        1.87817  -0.00058  -0.00253  -0.00552  -0.00806   1.87011
    A6        1.90321  -0.00007   0.00312  -0.00098   0.00216   1.90537
    A7        2.04275   0.00244   0.00536   0.00846   0.01383   2.05658
    A8        2.13426  -0.00129  -0.00456  -0.00307  -0.00762   2.12664
    A9        2.10617  -0.00116  -0.00080  -0.00539  -0.00621   2.09996
   A10        2.07776   0.00156  -0.00195   0.00616   0.00423   2.08198
   A11        2.01439   0.00009  -0.00713   0.00519  -0.00195   2.01244
   A12        2.20267   0.00094   0.00686  -0.00081   0.00608   2.20875
   A13        2.06612  -0.00103   0.00027  -0.00438  -0.00413   2.06199
   A14        1.99354  -0.00040  -0.00442   0.00085  -0.00356   1.98998
   A15        2.13099  -0.00018   0.00232  -0.00323  -0.00092   2.13007
   A16        2.15865   0.00058   0.00211   0.00238   0.00448   2.16313
   A17        2.12109  -0.00147  -0.00133  -0.00396  -0.00529   2.11580
   A18        2.32244   0.00035   0.00038   0.00147   0.00186   2.32430
   A19        1.83965   0.00112   0.00095   0.00249   0.00343   1.84308
   A20        2.06513   0.00053   0.00165   0.00314   0.00476   2.06989
   A21        2.39381  -0.00072  -0.00156  -0.00230  -0.00383   2.38998
   A22        1.82424   0.00019  -0.00009  -0.00084  -0.00093   1.82331
   A23        1.94108   0.00029  -0.00022   0.00249   0.00227   1.94335
   A24        2.24137   0.00060   0.00187   0.00311   0.00497   2.24634
   A25        2.10074  -0.00089  -0.00164  -0.00560  -0.00724   2.09350
   A26        1.85342  -0.00162  -0.00186  -0.00393  -0.00579   1.84763
   A27        1.96640   0.00002   0.00123  -0.00021   0.00101   1.96741
   A28        2.23221   0.00101   0.00168   0.00613   0.00782   2.24003
   A29        2.08458  -0.00103  -0.00291  -0.00592  -0.00883   2.07575
    D1        2.09892   0.00025  -0.00005   0.00421   0.00415   2.10306
    D2       -1.04266   0.00025  -0.00004   0.00415   0.00410  -1.03856
    D3       -0.00010   0.00000   0.00000   0.00004   0.00004  -0.00005
    D4        3.14151   0.00000   0.00001  -0.00001  -0.00000   3.14151
    D5       -2.09907  -0.00025   0.00004  -0.00416  -0.00411  -2.10318
    D6        1.04254  -0.00026   0.00005  -0.00422  -0.00416   1.03838
    D7       -3.14158  -0.00000   0.00001  -0.00005  -0.00004   3.14157
    D8       -0.00000  -0.00000   0.00000   0.00000   0.00000  -0.00000
    D9        3.14159   0.00000  -0.00001   0.00003   0.00002  -3.14158
   D10        0.00004  -0.00000  -0.00001  -0.00000  -0.00001   0.00003
   D11        0.00001  -0.00000   0.00000  -0.00003  -0.00003  -0.00002
   D12       -3.14153  -0.00000   0.00000  -0.00006  -0.00006  -3.14159
   D13       -3.14156  -0.00000   0.00001  -0.00008  -0.00008   3.14155
   D14       -0.00001   0.00000  -0.00001   0.00005   0.00003   0.00003
   D15        0.00001  -0.00000   0.00002  -0.00006  -0.00004  -0.00003
   D16       -3.14156  -0.00000   0.00001  -0.00008  -0.00007   3.14156
   D17        3.14156   0.00000  -0.00000   0.00008   0.00008  -3.14155
   D18       -0.00001   0.00000  -0.00001   0.00006   0.00005   0.00004
   D19        0.00000   0.00000  -0.00001   0.00002   0.00001   0.00001
   D20        3.14156   0.00000   0.00000   0.00001   0.00001   3.14157
   D21        3.14157   0.00000  -0.00000   0.00004   0.00004  -3.14158
   D22       -0.00006   0.00000   0.00001   0.00003   0.00004  -0.00002
   D23       -0.00001   0.00000   0.00000   0.00002   0.00002   0.00001
   D24        3.14155   0.00000   0.00001   0.00004   0.00004   3.14159
   D25       -3.14158   0.00000  -0.00001   0.00003   0.00002  -3.14156
   D26       -0.00002   0.00000  -0.00001   0.00005   0.00004   0.00002
   D27       -3.14153  -0.00000  -0.00000  -0.00006  -0.00006   3.14159
   D28        0.00001  -0.00000  -0.00000  -0.00001  -0.00001  -0.00000
   D29        0.00003  -0.00000   0.00001  -0.00007  -0.00006  -0.00003
   D30        3.14157  -0.00000   0.00001  -0.00002  -0.00001   3.14156
   D31        3.14155   0.00000   0.00000   0.00001   0.00002   3.14157
   D32       -0.00005   0.00000   0.00001   0.00002   0.00002  -0.00003
   D33        0.00001  -0.00000   0.00000  -0.00001  -0.00001  -0.00000
   D34        3.14159   0.00000   0.00000  -0.00001  -0.00000   3.14158
   D35        0.00001  -0.00000   0.00000  -0.00003  -0.00003  -0.00002
   D36       -3.14157  -0.00000   0.00000  -0.00004  -0.00003   3.14158
   D37       -0.00003   0.00000  -0.00001   0.00006   0.00006   0.00003
   D38       -3.14157   0.00000  -0.00001   0.00002   0.00001  -3.14156
         Item               Value     Threshold  Converged?
 Maximum Force            0.007470     0.000450     NO 
 RMS     Force            0.001356     0.000300     NO 
 Maximum Displacement     0.020389     0.001800     NO 
 RMS     Displacement     0.006483     0.001200     NO 
 Predicted change in Energy=-2.810741D-04
 GradGradGradGradGradGradGradGradGradGradGradGradGradGradGradGradGradGrad

                          Input orientation:                          
 ---------------------------------------------------------------------
 Center     Atomic      Atomic             Coordinates (Angstroms)
 Number     Number       Type             X           Y           Z
 ---------------------------------------------------------------------
      1          6           0        2.225025   -1.121769   -0.017926
      2          6           0        0.755429   -0.813210    0.019037
      3          7           0       -0.093201   -1.836770    0.110264
      4          6           0       -1.409429   -1.595084    0.145418
      5         17           0       -2.432281   -3.020200    0.266431
      6          6           0       -2.022193   -0.352826    0.096077
      7          6           0       -1.128250    0.719977    0.000299
      8          6           0        0.271927    0.507933   -0.039693
      9          6           0        0.830157    1.822662   -0.136995
     10          7           0       -0.113408    2.744966   -0.155366
     11          7           0       -1.296565    2.069869   -0.071927
     12          1           0        2.681396   -0.745993   -0.940882
     13          1           0        2.369792   -2.200612    0.039458
     14          1           0        2.747166   -0.643568    0.818745
     15          1           0       -3.098349   -0.241549    0.129810
     16          1           0        1.869658    2.113079   -0.192717
     17          1           0       -2.156875    2.593094   -0.070233
 ---------------------------------------------------------------------
                    Distance matrix (angstroms):
                    1          2          3          4          5
     1  C    0.000000
     2  C    1.502095   0.000000
     3  N    2.429368   1.332730   0.000000
     4  C    3.668782   2.305192   1.338695   0.000000
     5  Cl   5.037400   3.885036   2.626060   1.758359   0.000000
     6  C    4.317770   2.816571   2.433784   1.386044   2.704085
     7  C    3.825809   2.428839   2.760503   2.336585   3.969918
     8  C    2.543815   1.408063   2.377696   2.698870   4.455802
     9  C    3.260293   2.641543   3.782217   4.095911   5.853167
    10  N    4.520929   3.666866   4.589474   4.539402   6.228340
    11  N    4.753007   3.539929   4.091835   3.673126   5.226198
    12  H    1.096052   2.152977   3.161185   4.316926   5.725322
    13  H    1.090024   2.128725   2.490728   3.828890   4.876796
    14  H    1.096050   2.152981   3.161227   4.316947   5.725390
    15  H    5.397678   3.897521   3.402356   2.164429   2.860632
    16  H    3.259000   3.138393   4.421077   4.961574   6.713274
    17  H    5.744911   4.482454   4.890300   4.259814   5.630121
                    6          7          8          9         10
     6  C    0.000000
     7  C    1.399720   0.000000
     8  C    2.454043   1.416707   0.000000
     9  C    3.594854   2.251693   1.431643   0.000000
    10  N    3.647328   2.270399   2.272923   1.319582   0.000000
    11  N    2.534603   1.362261   2.213787   2.142030   1.364763
    12  H    4.832558   4.189068   2.861820   3.266697   4.540348
    13  H    4.765192   4.557156   3.426882   4.311420   5.537416
    14  H    4.832553   4.189028   2.861761   3.266596   4.540257
    15  H    1.082419   2.196041   3.456763   4.445819   4.232076
    16  H    4.616340   3.311411   2.269946   1.080745   2.081641
    17  H    2.953683   2.138133   3.201236   3.085512   2.050871
                   11         12         13         14         15
    11  N    0.000000
    12  H    4.950590   0.000000
    13  H    5.629528   1.781595   0.000000
    14  H    4.950535   1.763833   1.781597   0.000000
    15  H    2.937648   5.899686   5.809187   5.899685   0.000000
    16  H    3.168821   3.064794   4.348790   3.064666   5.507212
    17  H    1.006927   5.942761   6.594116   5.942717   2.993592
                   16         17
    16  H    0.000000
    17  H    4.056894   0.000000
 Stoichiometry    C7H6ClN3
 Framework group  C1[X(C7H6ClN3)]
 Deg. of freedom    45
 Full point group                 C1      NOp   1
 Largest Abelian subgroup         C1      NOp   1
 Largest concise Abelian subgroup C1      NOp   1
                         Standard orientation:                         
 ---------------------------------------------------------------------
 Center     Atomic      Atomic             Coordinates (Angstroms)
 Number     Number       Type             X           Y           Z
 ---------------------------------------------------------------------
      1          6           0        0.646165    2.828573    0.000004
      2          6           0        0.248000    1.380211    0.000007
      3          7           0       -1.053331    1.092617   -0.000008
      4          6           0       -1.440857   -0.188760   -0.000037
      5         17           0       -3.180003   -0.447985    0.000017
      6          6           0       -0.614052   -1.301196   -0.000025
      7          6           0        0.751940   -0.995774   -0.000016
      8          6           0        1.204351    0.346754   -0.000007
      9          6           0        2.632231    0.243027    0.000003
     10          7           0        3.022234   -1.017606    0.000005
     11          7           0        1.878322   -1.761945    0.000018
     12          1           0        1.250926    3.068882    0.881960
     13          1           0       -0.249355    3.450020   -0.000067
     14          1           0        1.251050    3.068851   -0.881873
     15          1           0       -1.007858   -2.309436   -0.000023
     16          1           0        3.367374    1.035223    0.000004
     17          1           0        1.950671   -2.766270    0.000047
 ---------------------------------------------------------------------
 Rotational constants (GHZ):           1.7934836           0.7122089           0.5113906
 Standard basis: 6-31G(d,p) (6D, 7F)
 There are   199 symmetry adapted cartesian basis functions of A   symmetry.
 There are   199 symmetry adapted basis functions of A   symmetry.
   199 basis functions,   374 primitive gaussians,   199 cartesian basis functions
    43 alpha electrons       43 beta electrons
       nuclear repulsion energy       647.1919958799 Hartrees.
 NAtoms=   17 NActive=   17 NUniq=   17 SFac= 1.00D+00 NAtFMM=   60 NAOKFM=F Big=F
 Integral buffers will be    131072 words long.
 Raffenetti 2 integral format.
 Two-electron integral symmetry is turned on.
 Nuclear repulsion after empirical dispersion term =      647.1566344520 Hartrees.
 One-electron integrals computed using PRISM.
 NBasis=   199 RedAO= T EigKep=  6.31D-04  NBF=   199
 NBsUse=   199 1.00D-06 EigRej= -1.00D+00 NBFU=   199
 Initial guess from the checkpoint file:  "pyrd9_conf-1.chk"
 B after Tr=     0.000000    0.000000    0.000000
         Rot=    0.999999   -0.000000    0.000000    0.001541 Ang=  -0.18 deg.
 ExpMin= 1.43D-01 ExpMax= 2.52D+04 ExpMxC= 3.78D+03 IAcc=3 IRadAn=         5 AccDes= 0.00D+00
 Harris functional with IExCor=  402 and IRadAn=       5 diagonalized for initial guess.
 HarFok:  IExCor=  402 AccDes= 0.00D+00 IRadAn=         5 IDoV= 1 UseB2=F ITyADJ=14
 ICtDFT=  3500011 ScaDFX=  1.000000  1.000000  1.000000  1.000000
 FoFCou: FMM=F IPFlag=           0 FMFlag=      100000 FMFlg1=           0
         NFxFlg=           0 DoJE=T BraDBF=F KetDBF=T FulRan=T
         wScrn=  0.000000 ICntrl=       500 IOpCl=  0 I1Cent=   200000004 NGrid=           0
         NMat0=    1 NMatS0=      1 NMatT0=    0 NMatD0=    1 NMtDS0=    0 NMtDT0=    0
 Petite list used in FoFCou.
 Requested convergence on RMS density matrix=1.00D-08 within 128 cycles.
 Requested convergence on MAX density matrix=1.00D-06.
 Requested convergence on             energy=1.00D-06.
 No special actions if energy rises.
 Integral accuracy reduced to 1.0D-05 until final iterations.
 Initial convergence to 1.0D-05 achieved.  Increase integral accuracy.
 SCF Done:  E(RB3LYP) =  -894.845101936     A.U. after   11 cycles
            NFock= 11  Conv=0.90D-08     -V/T= 2.0062
 Calling FoFJK, ICntrl=      2127 FMM=F ISym2X=0 I1Cent= 0 IOpClX= 0 NMat=1 NMatS=1 NMatT=0.
 ***** Axes restored to original set *****
 -------------------------------------------------------------------
 Center     Atomic                   Forces (Hartrees/Bohr)
 Number     Number              X              Y              Z
 -------------------------------------------------------------------
      1        6           0.000028881   -0.000064121    0.000000041
      2        6           0.000495621    0.000035586   -0.000015868
      3        7          -0.000476483   -0.000254274    0.000034164
      4        6           0.001789684    0.001613291   -0.000167284
      5       17          -0.001264295   -0.001148321    0.000115851
      6        6          -0.000822771   -0.001443219    0.000116167
      7        6           0.000814465    0.001829523   -0.000140188
      8        6          -0.000166198    0.001307519   -0.000070156
      9        6          -0.000673640   -0.001066183    0.000088097
     10        7           0.001448865    0.000756590   -0.000101324
     11        7          -0.001411242   -0.001654807    0.000152226
     12        1          -0.000277320   -0.000159485    0.000103287
     13        1           0.000431165    0.000000699   -0.000016254
     14        1          -0.000283851   -0.000168630   -0.000062329
     15        1           0.000276378    0.000035129   -0.000012207
     16        1           0.000002301    0.000158622   -0.000009076
     17        1           0.000088441    0.000222082   -0.000015147
 -------------------------------------------------------------------
 Cartesian Forces:  Max     0.001829523 RMS     0.000733787

 GradGradGradGradGradGradGradGradGradGradGradGradGradGradGradGradGradGrad
 Berny optimization.
 Using GEDIIS/GDIIS optimizer.
 FormGI is forming the generalized inverse of G from B-inverse, IUseBI=4.
 Internal  Forces:  Max     0.001674118 RMS     0.000346623
 Search for a local minimum.
 Step number   3 out of a maximum of   95
 All quantities printed in internal units (Hartrees-Bohrs-Radians)
 Mixed Optimization -- En-DIIS/RFO-DIIS
 Update second derivatives using D2CorX and points    1    2    3
 DE= -3.26D-04 DEPred=-2.81D-04 R= 1.16D+00
 TightC=F SS=  1.41D+00  RLast= 4.78D-02 DXNew= 6.7294D-01 1.4350D-01
 Trust test= 1.16D+00 RLast= 4.78D-02 DXMaxT set to 4.00D-01
 ITU=  1  1  0
 Use linear search instead of GDIIS.
     Eigenvalues ---    0.00553   0.01393   0.01883   0.01942   0.01976
     Eigenvalues ---    0.02009   0.02045   0.02116   0.02130   0.02175
     Eigenvalues ---    0.02212   0.02292   0.07168   0.07268   0.14981
     Eigenvalues ---    0.16000   0.16000   0.16000   0.16078   0.16693
     Eigenvalues ---    0.20631   0.23309   0.23795   0.24292   0.25000
     Eigenvalues ---    0.25594   0.25874   0.28382   0.31498   0.34685
     Eigenvalues ---    0.34840   0.35072   0.35984   0.36357   0.38712
     Eigenvalues ---    0.39254   0.41793   0.43238   0.45866   0.46324
     Eigenvalues ---    0.46586   0.51606   0.52780   0.54451   0.62332
 RFO step:  Lambda=-1.98005363D-05 EMin= 5.53036990D-03
 Quartic linear search produced a step of  0.22307.
 Iteration  1 RMS(Cart)=  0.00196711 RMS(Int)=  0.00000375
 Iteration  2 RMS(Cart)=  0.00000421 RMS(Int)=  0.00000068
 Iteration  3 RMS(Cart)=  0.00000000 RMS(Int)=  0.00000068
 Variable       Old X    -DE/DX   Delta X   Delta X   Delta X     New X
                                 (Linear)    (Quad)   (Total)
    R1        2.83855  -0.00002   0.00010  -0.00077  -0.00067   2.83788
    R2        2.07124  -0.00026   0.00007  -0.00068  -0.00061   2.07063
    R3        2.05985   0.00006   0.00030  -0.00013   0.00017   2.06002
    R4        2.07123  -0.00026   0.00007  -0.00067  -0.00061   2.07063
    R5        2.51850   0.00030  -0.00168   0.00106  -0.00062   2.51788
    R6        2.66085   0.00072   0.00152   0.00078   0.00230   2.66315
    R7        2.52977  -0.00038  -0.00142  -0.00043  -0.00185   2.52792
    R8        3.32282   0.00167   0.00644   0.00178   0.00822   3.33104
    R9        2.61924  -0.00039  -0.00115  -0.00050  -0.00165   2.61760
   R10        2.64509   0.00095   0.00235   0.00046   0.00281   2.64790
   R11        2.04548  -0.00027  -0.00032  -0.00043  -0.00075   2.04473
   R12        2.67719  -0.00016   0.00031  -0.00071  -0.00040   2.67679
   R13        2.57430  -0.00075  -0.00244  -0.00027  -0.00271   2.57159
   R14        2.70541  -0.00086  -0.00061  -0.00200  -0.00261   2.70280
   R15        2.49365  -0.00018   0.00102  -0.00074   0.00028   2.49393
   R16        2.04231   0.00005  -0.00005   0.00023   0.00017   2.04248
   R17        2.57903   0.00127   0.00262   0.00134   0.00396   2.58299
   R18        1.90282   0.00004   0.00002   0.00004   0.00006   1.90288
    A1        1.93656  -0.00029   0.00031  -0.00223  -0.00192   1.93464
    A2        1.90917   0.00069   0.00020   0.00413   0.00432   1.91349
    A3        1.93657  -0.00029   0.00032  -0.00225  -0.00193   1.93464
    A4        1.90536  -0.00018   0.00048  -0.00113  -0.00066   1.90471
    A5        1.87011   0.00025  -0.00180   0.00255   0.00075   1.87085
    A6        1.90537  -0.00018   0.00048  -0.00113  -0.00065   1.90472
    A7        2.05658  -0.00008   0.00308  -0.00212   0.00096   2.05754
    A8        2.12664   0.00004  -0.00170   0.00089  -0.00081   2.12584
    A9        2.09996   0.00004  -0.00138   0.00123  -0.00015   2.09980
   A10        2.08198  -0.00016   0.00094  -0.00206  -0.00112   2.08087
   A11        2.01244   0.00043  -0.00043   0.00159   0.00115   2.01360
   A12        2.20875   0.00033   0.00136   0.00115   0.00251   2.21126
   A13        2.06199  -0.00076  -0.00092  -0.00274  -0.00367   2.05833
   A14        1.98998   0.00014  -0.00079   0.00060  -0.00020   1.98979
   A15        2.13007  -0.00000  -0.00021   0.00067   0.00047   2.13053
   A16        2.16313  -0.00013   0.00100  -0.00127  -0.00027   2.16286
   A17        2.11580  -0.00035  -0.00118  -0.00079  -0.00198   2.11383
   A18        2.32430   0.00010   0.00041   0.00022   0.00063   2.32494
   A19        1.84308   0.00025   0.00077   0.00058   0.00134   1.84442
   A20        2.06989   0.00000   0.00106  -0.00013   0.00093   2.07082
   A21        2.38998  -0.00014  -0.00085   0.00003  -0.00082   2.38916
   A22        1.82331   0.00014  -0.00021   0.00010  -0.00011   1.82320
   A23        1.94335   0.00024   0.00051   0.00059   0.00110   1.94445
   A24        2.24634   0.00003   0.00111   0.00004   0.00114   2.24748
   A25        2.09350  -0.00028  -0.00162  -0.00063  -0.00225   2.09125
   A26        1.84763  -0.00031  -0.00129  -0.00009  -0.00138   1.84624
   A27        1.96741  -0.00032   0.00023  -0.00117  -0.00095   1.96646
   A28        2.24003   0.00038   0.00174   0.00112   0.00287   2.24290
   A29        2.07575  -0.00007  -0.00197   0.00005  -0.00192   2.07383
    D1        2.10306   0.00003   0.00093  -0.00017   0.00076   2.10382
    D2       -1.03856   0.00003   0.00092  -0.00009   0.00083  -1.03773
    D3       -0.00005  -0.00000   0.00001  -0.00003  -0.00002  -0.00008
    D4        3.14151   0.00000  -0.00000   0.00005   0.00005   3.14156
    D5       -2.10318  -0.00003  -0.00092   0.00011  -0.00080  -2.10399
    D6        1.03838  -0.00003  -0.00093   0.00020  -0.00073   1.03765
    D7        3.14157   0.00000  -0.00001   0.00008   0.00007  -3.14155
    D8       -0.00000   0.00000   0.00000   0.00000   0.00000   0.00000
    D9       -3.14158  -0.00000   0.00000  -0.00004  -0.00004   3.14157
   D10        0.00003  -0.00000  -0.00000  -0.00004  -0.00004  -0.00001
   D11       -0.00002   0.00000  -0.00001   0.00004   0.00004   0.00002
   D12       -3.14159   0.00000  -0.00001   0.00004   0.00003  -3.14156
   D13        3.14155   0.00000  -0.00002   0.00012   0.00011  -3.14153
   D14        0.00003  -0.00000   0.00001  -0.00007  -0.00006  -0.00004
   D15       -0.00003   0.00000  -0.00001   0.00008   0.00008   0.00004
   D16        3.14156   0.00000  -0.00001   0.00010   0.00008  -3.14154
   D17       -3.14155  -0.00000   0.00002  -0.00011  -0.00010   3.14154
   D18        0.00004  -0.00000   0.00001  -0.00010  -0.00009  -0.00005
   D19        0.00001  -0.00000   0.00000  -0.00003  -0.00003  -0.00002
   D20        3.14157   0.00000   0.00000   0.00003   0.00003  -3.14158
   D21       -3.14158  -0.00000   0.00001  -0.00005  -0.00004   3.14157
   D22       -0.00002   0.00000   0.00001   0.00002   0.00002   0.00000
   D23        0.00001  -0.00000   0.00001  -0.00003  -0.00002  -0.00001
   D24        3.14159  -0.00000   0.00001  -0.00003  -0.00002   3.14157
   D25       -3.14156  -0.00000   0.00000  -0.00007  -0.00007   3.14156
   D26        0.00002  -0.00000   0.00001  -0.00007  -0.00006  -0.00004
   D27        3.14159   0.00000  -0.00001   0.00006   0.00004  -3.14156
   D28       -0.00000  -0.00000  -0.00000   0.00000  -0.00000  -0.00000
   D29       -0.00003   0.00000  -0.00001   0.00011   0.00010   0.00006
   D30        3.14156   0.00000  -0.00000   0.00005   0.00005  -3.14157
   D31        3.14157   0.00000   0.00000   0.00001   0.00002   3.14159
   D32       -0.00003   0.00000   0.00001   0.00002   0.00002  -0.00001
   D33       -0.00000   0.00000  -0.00000   0.00002   0.00001   0.00001
   D34        3.14158   0.00000  -0.00000   0.00002   0.00002  -3.14158
   D35       -0.00002   0.00000  -0.00001   0.00005   0.00004   0.00003
   D36        3.14158   0.00000  -0.00001   0.00005   0.00004  -3.14157
   D37        0.00003  -0.00000   0.00001  -0.00010  -0.00009  -0.00006
   D38       -3.14156  -0.00000   0.00000  -0.00005  -0.00005   3.14157
         Item               Value     Threshold  Converged?
 Maximum Force            0.001674     0.000450     NO 
 RMS     Force            0.000347     0.000300     NO 
 Maximum Displacement     0.010328     0.001800     NO 
 RMS     Displacement     0.001968     0.001200     NO 
 Predicted change in Energy=-2.072045D-05
 GradGradGradGradGradGradGradGradGradGradGradGradGradGradGradGradGradGrad

                          Input orientation:                          
 ---------------------------------------------------------------------
 Center     Atomic      Atomic             Coordinates (Angstroms)
 Number     Number       Type             X           Y           Z
 ---------------------------------------------------------------------
      1          6           0        2.224930   -1.121665   -0.017916
      2          6           0        0.755431   -0.814379    0.019136
      3          7           0       -0.093138   -1.837568    0.110308
      4          6           0       -1.408106   -1.594409    0.145260
      5         17           0       -2.436938   -3.020560    0.266688
      6          6           0       -2.022038   -0.353695    0.096079
      7          6           0       -1.128280    0.721196    0.000202
      8          6           0        0.271495    0.507898   -0.039677
      9          6           0        0.830252    1.820901   -0.136913
     10          7           0       -0.111657    2.745104   -0.155470
     11          7           0       -1.296985    2.069601   -0.071864
     12          1           0        2.679091   -0.744153   -0.940874
     13          1           0        2.375258   -2.199851    0.039204
     14          1           0        2.744869   -0.641753    0.818726
     15          1           0       -3.097883   -0.243300    0.129868
     16          1           0        1.869743    2.111690   -0.192661
     17          1           0       -2.156042    2.594943   -0.070296
 ---------------------------------------------------------------------
                    Distance matrix (angstroms):
                    1          2          3          4          5
     1  C    0.000000
     2  C    1.501740   0.000000
     3  N    2.429485   1.332403   0.000000
     4  C    3.667297   2.303313   1.337718   0.000000
[...]
   Eigenvalues:   380.9894   393.6729  1019.6761
      6  C    Isotropic =    68.6122   Anisotropy =   135.0123
   XX=    46.9120   YX=   -24.1602   ZX=    -0.0016
   XY=   -48.0502   YY=     0.3041   ZY=     0.0007
   XZ=     0.0053   YZ=     0.0106   ZZ=   158.6203
   Eigenvalues:   -19.3647    66.5809   158.6203
      7  C    Isotropic =    20.0491   Anisotropy =   189.6406
   XX=   -35.7321   YX=    12.6417   ZX=    -0.0056
   XY=    24.7264   YY=   -50.5968   ZY=     0.0021
   XZ=    -0.0053   YZ=    -0.0022   ZZ=   146.4762
   Eigenvalues:   -63.2725   -23.0564   146.4762
      8  C    Isotropic =    46.9450   Anisotropy =   167.5127
   XX=   -24.1166   YX=   -14.3526   ZX=    -0.0010
   XY=    -5.7141   YY=     6.3315   ZY=    -0.0031
   XZ=    -0.0023   YZ=     0.0056   ZZ=   158.6202
   Eigenvalues:   -27.1255     9.3404   158.6202
      9  C    Isotropic =    30.8571   Anisotropy =   156.5201
   XX=   -45.4022   YX=   -38.8784   ZX=     0.0021
   XY=   -66.2442   YY=     2.7698   ZY=     0.0012
   XZ=    -0.0016   YZ=     0.0028   ZZ=   135.2039
   Eigenvalues:   -79.1334    36.5009   135.2039
     10  N    Isotropic =  -138.4145   Anisotropy =   442.2498
   XX=  -254.0131   YX=  -124.5020   ZX=     0.0115
   XY=  -173.2687   YY=  -317.6491   ZY=     0.0087
   XZ=     0.0057   YZ=    -0.0239   ZZ=   156.4188
   Eigenvalues:  -438.0783  -133.5838   156.4188
     11  N    Isotropic =    48.0937   Anisotropy =   109.0299
   XX=    80.9814   YX=    15.0960   ZX=    -0.0018
   XY=    33.8688   YY=   -57.4807   ZY=     0.0087
   XZ=    -0.0052   YZ=    -0.0043   ZZ=   120.7803
   Eigenvalues:   -61.6821    85.1828   120.7803
     12  H    Isotropic =    28.9500   Anisotropy =     7.2562
   XX=    29.3068   YX=     0.3904   ZX=     2.4678
   XY=     1.7086   YY=    29.6962   ZY=     2.1842
   XZ=     3.7433   YZ=     3.9942   ZZ=    27.8471
   Eigenvalues:    24.6108    28.4518    33.7875
     13  H    Isotropic =    28.9878   Anisotropy =     7.7710
   XX=    31.4319   YX=    -1.1900   ZX=     0.0003
   XY=    -4.0416   YY=    31.6679   ZY=    -0.0004
   XZ=     0.0004   YZ=    -0.0005   ZZ=    23.8634
   Eigenvalues:    23.8634    28.9315    34.1684
     14  H    Isotropic =    28.9500   Anisotropy =     7.2562
   XX=    29.3076   YX=     0.3903   ZX=    -2.4681
   XY=     1.7088   YY=    29.6963   ZY=    -2.1838
   XZ=    -3.7437   YZ=    -3.9939   ZZ=    27.8463
   Eigenvalues:    24.6103    28.4523    33.7875
     15  H    Isotropic =    24.1441   Anisotropy =     9.2674
   XX=    29.1974   YX=    -2.5959   ZX=     0.0000
   XY=    -2.6219   YY=    24.2727   ZY=     0.0000
   XZ=     0.0004   YZ=     0.0002   ZZ=    18.9624
   Eigenvalues:    18.9624    23.1476    30.3224
     16  H    Isotropic =    23.0123   Anisotropy =     6.3160
   XX=    25.1005   YX=    -2.8867   ZX=     0.0001
   XY=    -2.2184   YY=    24.1533   ZY=    -0.0000
   XZ=    -0.0002   YZ=    -0.0002   ZZ=    19.7832
   Eigenvalues:    19.7832    22.0308    27.2230
     17  H    Isotropic =    22.0770   Anisotropy =     5.1953
   XX=    25.3231   YX=     0.0995   ZX=     0.0001
   XY=    -0.6467   YY=    25.1964   ZY=    -0.0001
   XZ=    -0.0000   YZ=    -0.0006   ZZ=    15.7116
   Eigenvalues:    15.7116    24.9789    25.5406
 End of Minotr F.D. properties file   721 does not exist.
 End of Minotr F.D. properties file   722 does not exist.
 End of Minotr F.D. properties file   788 does not exist.

 **********************************************************************

            Population analysis using the SCF Density.

 **********************************************************************

 Orbital symmetries:
       Occupied  (A) (A) (A) (A) (A) (A) (A) (A) (A) (A) (A) (A)
                 (A) (A) (A) (A) (A) (A) (A) (A) (A) (A) (A) (A)
                 (A) (A) (A) (A) (A) (A) (A) (A) (A) (A) (A) (A)
                 (A) (A) (A) (A) (A) (A) (A)
       Virtual   (A) (A) (A) (A) (A) (A) (A) (A) (A) (A) (A) (A)
                 (A) (A) (A) (A) (A) (A) (A) (A) (A) (A) (A) (A)
                 (A) (A) (A) (A) (A) (A) (A) (A) (A) (A) (A) (A)
                 (A) (A) (A) (A) (A) (A) (A) (A) (A) (A) (A) (A)
                 (A) (A) (A) (A) (A) (A) (A) (A) (A) (A) (A) (A)
                 (A) (A) (A) (A) (A) (A) (A) (A) (A) (A) (A) (A)
                 (A) (A) (A) (A) (A) (A) (A) (A) (A) (A) (A) (A)
                 (A) (A) (A) (A) (A) (A) (A) (A) (A) (A) (A) (A)
                 (A) (A) (A) (A) (A) (A) (A) (A) (A) (A) (A) (A)
                 (A) (A) (A) (A) (A) (A) (A) (A) (A) (A) (A) (A)
                 (A) (A) (A) (A) (A) (A) (A) (A) (A) (A) (A) (A)
                 (A) (A) (A) (A) (A) (A) (A) (A) (A) (A) (A) (A)
                 (A) (A) (A) (A) (A) (A) (A) (A) (A) (A) (A) (A)
                 (A) (A) (A) (A) (A) (A) (A) (A) (A) (A) (A) (A)
                 (A) (A) (A) (A) (A) (A) (A) (A) (A) (A) (A) (A)
                 (A) (A) (A) (A) (A) (A) (A) (A) (A) (A) (A) (A)
                 (A) (A) (A) (A) (A) (A) (A) (A) (A) (A) (A) (A)
                 (A) (A) (A) (A) (A) (A) (A) (A) (A) (A) (A) (A)
                 (A) (A) (A) (A) (A) (A) (A) (A) (A) (A) (A) (A)
                 (A) (A) (A) (A) (A) (A) (A) (A) (A) (A) (A) (A)
                 (A) (A) (A) (A) (A) (A) (A) (A) (A) (A) (A) (A)
                 (A) (A) (A) (A) (A) (A) (A) (A) (A) (A) (A) (A)
                 (A) (A) (A) (A) (A) (A) (A) (A) (A) (A) (A) (A)
                 (A) (A) (A) (A) (A) (A) (A) (A) (A) (A) (A) (A)
                 (A) (A) (A) (A) (A) (A) (A) (A) (A) (A) (A) (A)
                 (A) (A) (A) (A) (A) (A) (A) (A) (A) (A) (A) (A)
                 (A) (A) (A) (A) (A) (A) (A) (A) (A) (A) (A) (A)
                 (A) (A) (A) (A) (A) (A) (A) (A) (A) (A) (A) (A)
                 (A) (A) (A) (A)
 The electronic state is 1-A.
 Alpha  occ. eigenvalues -- -102.64242 -14.83885 -14.80234 -14.76043 -10.64459
 Alpha  occ. eigenvalues --  -10.61315 -10.61174 -10.58660 -10.57190 -10.56311
 Alpha  occ. eigenvalues --  -10.54533  -9.80506  -7.52699  -7.52194  -7.52169
 Alpha  occ. eigenvalues --   -1.17809  -1.07904  -0.96138  -0.95101  -0.91706
 Alpha  occ. eigenvalues --   -0.87255  -0.81799  -0.73909  -0.71670  -0.70410
 Alpha  occ. eigenvalues --   -0.63468  -0.58575  -0.57650  -0.55296  -0.53634
 Alpha  occ. eigenvalues --   -0.51736  -0.50901  -0.50164  -0.47278  -0.46161
 Alpha  occ. eigenvalues --   -0.43766  -0.39493  -0.39333  -0.37849  -0.37400
 Alpha  occ. eigenvalues --   -0.34686  -0.32936  -0.29280
 Alpha virt. eigenvalues --   -0.02545   0.01809   0.05190   0.06553   0.06870
 Alpha virt. eigenvalues --    0.07238   0.10136   0.11811   0.12425   0.13967
 Alpha virt. eigenvalues --    0.14794   0.15762   0.16107   0.18131   0.18187
 Alpha virt. eigenvalues --    0.18724   0.21942   0.22774   0.23587   0.24731
 Alpha virt. eigenvalues --    0.25071   0.26612   0.28223   0.29160   0.29554
 Alpha virt. eigenvalues --    0.30371   0.30962   0.32209   0.32724   0.34426
 Alpha virt. eigenvalues --    0.35093   0.36288   0.36888   0.37171   0.38126
 Alpha virt. eigenvalues --    0.39565   0.41009   0.41297   0.41764   0.41951
 Alpha virt. eigenvalues --    0.42719   0.43303   0.44893   0.45448   0.45915
 Alpha virt. eigenvalues --    0.46156   0.46657   0.48088   0.49905   0.50362
 Alpha virt. eigenvalues --    0.51640   0.52153   0.53423   0.54996   0.54998
 Alpha virt. eigenvalues --    0.56053   0.58542   0.59317   0.59367   0.59445
 Alpha virt. eigenvalues --    0.61004   0.62762   0.63261   0.65139   0.66088
 Alpha virt. eigenvalues --    0.66433   0.69411   0.69759   0.71063   0.71909
 Alpha virt. eigenvalues --    0.73089   0.74807   0.75466   0.76625   0.79212
 Alpha virt. eigenvalues --    0.80866   0.81691   0.82446   0.82778   0.83681
 Alpha virt. eigenvalues --    0.87336   0.90522   0.91206   0.91759   0.92672
 Alpha virt. eigenvalues --    0.98598   0.98984   1.02075   1.02731   1.03794
 Alpha virt. eigenvalues --    1.04760   1.08107   1.09811   1.11503   1.12437
 Alpha virt. eigenvalues --    1.12709   1.16106   1.19295   1.19428   1.21541
 Alpha virt. eigenvalues --    1.22502   1.26229   1.28693   1.29800   1.32752
 Alpha virt. eigenvalues --    1.35540   1.36317   1.37161   1.38933   1.41947
 Alpha virt. eigenvalues --    1.42791   1.44893   1.47516   1.49884   1.50574
 Alpha virt. eigenvalues --    1.51229   1.52831   1.53076   1.55098   1.55761
 Alpha virt. eigenvalues --    1.56373   1.57140   1.59741   1.60491   1.61291
 Alpha virt. eigenvalues --    1.63357   1.64242   1.66364   1.67577   1.69599
 Alpha virt. eigenvalues --    1.70376   1.71931   1.74675   1.74781   1.78727
 Alpha virt. eigenvalues --    1.80631   1.81824   1.82801   1.84734   1.85842
 Alpha virt. eigenvalues --    1.86371   1.88200   1.88289   1.90200   1.92073
 Alpha virt. eigenvalues --    1.92905   1.97252   1.97865   2.00078   2.01241
 Alpha virt. eigenvalues --    2.01798   2.03492   2.05448   2.08684   2.09039
 Alpha virt. eigenvalues --    2.10011   2.12735   2.12944   2.13309   2.14839
 Alpha virt. eigenvalues --    2.15897   2.16723   2.17717   2.20319   2.22045
 Alpha virt. eigenvalues --    2.22304   2.23698   2.25683   2.27037   2.29128
 Alpha virt. eigenvalues --    2.30569   2.31809   2.31972   2.33374   2.36786
 Alpha virt. eigenvalues --    2.37931   2.38535   2.40237   2.41189   2.44278
 Alpha virt. eigenvalues --    2.44988   2.49469   2.52893   2.53938   2.54920
 Alpha virt. eigenvalues --    2.57902   2.58134   2.60390   2.63974   2.68644
 Alpha virt. eigenvalues --    2.68799   2.70192   2.71190   2.72848   2.74097
 Alpha virt. eigenvalues --    2.74413   2.76430   2.81297   2.82418   2.84249
 Alpha virt. eigenvalues --    2.85402   2.86913   2.89339   2.89844   2.91490
 Alpha virt. eigenvalues --    2.93325   2.98418   2.99110   3.00678   3.01381
 Alpha virt. eigenvalues --    3.02534   3.04898   3.07247   3.08114   3.08865
 Alpha virt. eigenvalues --    3.10098   3.10358   3.12211   3.13818   3.14596
 Alpha virt. eigenvalues --    3.16494   3.17641   3.19667   3.20387   3.20824
 Alpha virt. eigenvalues --    3.22311   3.24741   3.26965   3.27423   3.28188
 Alpha virt. eigenvalues --    3.28307   3.30598   3.31286   3.32928   3.34560
 Alpha virt. eigenvalues --    3.34981   3.35921   3.38456   3.39449   3.41409
 Alpha virt. eigenvalues --    3.44162   3.49233   3.49804   3.51659   3.51908
 Alpha virt. eigenvalues --    3.53840   3.57555   3.59113   3.60636   3.62393
 Alpha virt. eigenvalues --    3.64258   3.66527   3.73590   3.73644   3.76434
 Alpha virt. eigenvalues --    3.77605   3.80991   3.81036   3.83692   3.84935
 Alpha virt. eigenvalues --    3.89692   3.90367   3.90785   3.95554   3.95715
 Alpha virt. eigenvalues --    4.00223   4.03843   4.04077   4.04889   4.09183
 Alpha virt. eigenvalues --    4.09650   4.11467   4.13008   4.20774   4.22975
 Alpha virt. eigenvalues --    4.25391   4.28720   4.29066   4.33874   4.35172
 Alpha virt. eigenvalues --    4.42114   4.45136   4.45743   4.52046   4.56712
 Alpha virt. eigenvalues --    4.59968   4.62895   4.65173   4.67693   4.69960
 Alpha virt. eigenvalues --    4.70003   4.74627   4.75562   4.77674   4.80845
 Alpha virt. eigenvalues --    4.86731   4.88640   4.91222   4.91493   4.93743
 Alpha virt. eigenvalues --    4.98436   4.98783   5.04841   5.09838   5.14998
 Alpha virt. eigenvalues --    5.16720   5.20390   5.22303   5.22553   5.25584
 Alpha virt. eigenvalues --    5.27805   5.28494   5.34851   5.36403   5.42235
 Alpha virt. eigenvalues --    5.45085   5.51870   5.54134   5.60397   5.72232
 Alpha virt. eigenvalues --    5.79102   5.81371   5.94235   5.98957   6.25382
 Alpha virt. eigenvalues --    6.82264  10.81733  10.88152  11.40110  22.51448
 Alpha virt. eigenvalues --   22.56864  22.83034  22.90633  23.06259  23.19974
 Alpha virt. eigenvalues --   23.58911  25.86436  32.23858  32.39308  32.71166
          Condensed to atoms (all electrons):
               1          2          3          4          5          6
     1  C    5.164810   0.228803  -0.054730   0.005020  -0.000997  -0.000359
     2  C    0.228803   5.024366   0.562752  -0.083093   0.004507  -0.017013
     3  N   -0.054730   0.562752   6.445169   0.518174  -0.080347  -0.072056
     4  C    0.005020  -0.083093   0.518174   4.701644   0.336502   0.514531
     5  Cl  -0.000997   0.004507  -0.080347   0.336502  16.881660  -0.066256
     6  C   -0.000359  -0.017013  -0.072056   0.514531  -0.066256   5.174202
     7  C    0.011960  -0.090586  -0.007952  -0.075128   0.007607   0.434644
     8  C   -0.084710   0.382899  -0.104074  -0.076502  -0.000270   0.009824
     9  C   -0.006202  -0.042666   0.004588   0.006265  -0.000025  -0.002613
    10  N   -0.001838   0.004555  -0.000344  -0.001352   0.000008   0.010345
    11  N   -0.000135  -0.000948  -0.000415  -0.001287  -0.000273  -0.038538
    12  H    0.412053  -0.047406   0.000602  -0.000457   0.000013   0.000181
    13  H    0.422833  -0.058627   0.009142  -0.000074  -0.000164   0.001172
    14  H    0.412066  -0.047423   0.000600  -0.000457   0.000013   0.000181
    15  H    0.000124  -0.000357   0.005327  -0.009581   0.003995   0.372080
    16  H    0.000994  -0.000235  -0.000068  -0.000044  -0.000001  -0.000172
    17  H    0.000004  -0.000276   0.000055  -0.000002  -0.000007  -0.004875
               7          8          9         10         11         12
     1  C    0.011960  -0.084710  -0.006202  -0.001838  -0.000135   0.412053
     2  C   -0.090586   0.382899  -0.042666   0.004555  -0.000948  -0.047406
     3  N   -0.007952  -0.104074   0.004588  -0.000344  -0.000415   0.000602
     4  C   -0.075128  -0.076502   0.006265  -0.001352  -0.001287  -0.000457
     5  Cl   0.007607  -0.000270  -0.000025   0.000008  -0.000273   0.000013
     6  C    0.434644   0.009824  -0.002613   0.010345  -0.038538   0.000181
     7  C    4.962660   0.378936  -0.032431  -0.089776   0.424600   0.000410
     8  C    0.378936   5.240295   0.418493  -0.061444  -0.123386   0.002061
     9  C   -0.032431   0.418493   4.870022   0.595587  -0.124466  -0.002908
    10  N   -0.089776  -0.061444   0.595587   6.552570   0.233316   0.000111
    11  N    0.424600  -0.123386  -0.124466   0.233316   6.401992  -0.000032
    12  H    0.000410   0.002061  -0.002908   0.000111  -0.000032   0.528385
    13  H   -0.001440   0.010840  -0.000152   0.000023   0.000015  -0.017187
    14  H    0.000412   0.002069  -0.002910   0.000111  -0.000032  -0.036384
    15  H   -0.025269   0.009310  -0.000353  -0.000087  -0.001077  -0.000004
    16  H    0.009095  -0.051308   0.425743  -0.027297   0.006082  -0.000358
    17  H   -0.050732   0.018590   0.002590  -0.037349   0.389597   0.000000
              13         14         15         16         17
     1  C    0.422833   0.412066   0.000124   0.000994   0.000004
     2  C   -0.058627  -0.047423  -0.000357  -0.000235  -0.000276
     3  N    0.009142   0.000600   0.005327  -0.000068   0.000055
     4  C   -0.000074  -0.000457  -0.009581  -0.000044  -0.000002
     5  Cl  -0.000164   0.000013   0.003995  -0.000001  -0.000007
     6  C    0.001172   0.000181   0.372080  -0.000172  -0.004875
     7  C   -0.001440   0.000412  -0.025269   0.009095  -0.050732
     8  C    0.010840   0.002069   0.009310  -0.051308   0.018590
     9  C   -0.000152  -0.002910  -0.000353   0.425743   0.002590
    10  N    0.000023   0.000111  -0.000087  -0.027297  -0.037349
    11  N    0.000015  -0.000032  -0.001077   0.006082   0.389597
    12  H   -0.017187  -0.036384  -0.000004  -0.000358   0.000000
    13  H    0.483336  -0.017189  -0.000005  -0.000017  -0.000001
    14  H   -0.017189   0.528387  -0.000004  -0.000358   0.000000
    15  H   -0.000005  -0.000004   0.478234   0.000011   0.001962
    16  H   -0.000017  -0.000358   0.000011   0.482341  -0.000195
    17  H   -0.000001   0.000000   0.001962  -0.000195   0.421318
 Mulliken charges:
               1
     1  C   -0.509698
     2  C    0.180747
     3  N   -0.226424
     4  C    0.165839
     5  Cl  -0.085966
     6  C   -0.315281
     7  C    0.142991
     8  C    0.028378
     9  C   -0.108565
    10  N   -0.177140
    11  N   -0.165014
    12  H    0.160920
    13  H    0.167492
    14  H    0.160917
    15  H    0.165696
    16  H    0.155788
    17  H    0.259320
 Sum of Mulliken charges =  -0.00000
 Mulliken charges with hydrogens summed into heavy atoms:
               1
     1  C   -0.020369
     2  C    0.180747
     3  N   -0.226424
     4  C    0.165839
     5  Cl  -0.085966
     6  C   -0.149585
     7  C    0.142991
     8  C    0.028378
     9  C    0.047222
    10  N   -0.177140
    11  N    0.094306
 Electronic spatial extent (au):  <R**2>=           2024.8624
 Charge=             -0.0000 electrons
 Dipole moment (field-independent basis, Debye):
    X=              2.0114    Y=             -1.0734    Z=              0.0001  Tot=              2.2799
 Quadrupole moment (field-independent basis, Debye-Ang):
   XX=            -80.2274   YY=            -57.8053   ZZ=            -72.2100
   XY=              4.7838   XZ=              0.0002   YZ=             -0.0003
 Traceless Quadrupole moment (field-independent basis, Debye-Ang):
   XX=            -10.1465   YY=             12.2756   ZZ=             -2.1291
   XY=              4.7838   XZ=              0.0002   YZ=             -0.0003
 Octapole moment (field-independent basis, Debye-Ang**2):
  XXX=            -24.2804  YYY=            -25.8526  ZZZ=              0.0005  XYY=             15.2490
  XXY=             10.9658  XXZ=              0.0008  XZZ=             -3.8940  YZZ=              0.8235
  YYZ=              0.0012  XYZ=             -0.0006
 Hexadecapole moment (field-independent basis, Debye-Ang**3):
 XXXX=          -1861.9498 YYYY=           -719.3209 ZZZZ=            -84.2952 XXXY=             75.1369
 XXXZ=             -0.0020 YYYX=            -34.8836 YYYZ=             -0.0036 ZZZX=             -0.0001
 ZZZY=              0.0000 XXYY=           -418.3972 XXZZ=           -317.5738 YYZZ=           -157.1773
 XXYZ=             -0.0024 YYXZ=              0.0019 ZZXY=              2.1380
 N-N= 6.469886047081D+02 E-N=-3.398982809400D+03  KE= 8.920556133588D+02
 Unable to Open any file for archive entry.
 1\1\GINC-COMPUTE-0-1\SP\RM062X\def2TZVP\C7H6Cl1N3\ZTAN64\14-Aug-2024\0
 \\# M062X/def2tzvp int=(grid=ultrafine) nmr=giao guess=read geom=check
 \\pyrd9.xyz\\0,1\C,0,2.2252186057,-1.1213162523,-0.0179659999\C,0,0.75
 55121104,-0.8141919304,0.019079037\N,0,-0.0932253667,-1.837894148,0.11
 03369472\C,0,-1.4082213233,-1.5946297409,0.1453710632\Cl,0,-2.43822024
 69,-3.0205269375,0.2666712344\C,0,-2.0222076223,-0.3539967868,0.096155
 3088\C,0,-1.1284028099,0.7210508307,0.0002404929\C,0,0.2714319388,0.50
 79305551,-0.0396856042\C,0,0.8302178756,1.8207782742,-0.1368765459\N,0
 ,-0.1112921492,2.7451222236,-0.1554296439\N,0,-1.2969994259,2.06951636
 37,-0.0719075819\H,0,2.6791563401,-0.7440795782,-0.9410926554\H,0,2.37
 61909348,-2.1993485282,0.0391385919\H,0,2.7449381626,-0.6416332675,0.8
 188883164\H,0,-3.0979627042,-0.2432889568,0.1298951996\H,0,1.869775934
 1,2.1114523521,-0.1926098873\H,0,-2.1559102536,2.5950555271,-0.0704082
 728\\Version=ES64L-G16RevC.01\State=1-A\HF=-894.7880913\RMSD=4.124e-09
 \Dipole=-0.0136044,0.8953935,-0.0515869\Quadrupole=8.518501,-6.9111477
 ,-1.6073532,-4.7223502,-0.1027185,0.4859968\PG=C01 [X(C7H6Cl1N3)]\\@
 The archive entry for this job was punched.


  ON THE CHOICE OF THE CORRECT LANGUAGE -
 I SPEAK SPANISH TO GOD, ITALIAN TO WOMEN,
 FRENCH TO MEN, AND GERMAN TO MY HORSE.
          -- CHARLES V
 Job cpu time:       0 days  0 hours 22 minutes 30.7 seconds.
 Elapsed time:       0 days  0 hours  1 minutes 30.1 seconds.
 File lengths (MBytes):  RWF=     86 Int=      0 D2E=      0 Chk=     14 Scr=      1
 Normal termination of Gaussian 16 at Wed Aug 14 20:00:00 2024.
 
 
-----Kestrel cluster job statistics-----
Time info:

real	7m17.397s
user	114m0.844s
sys	0m12.259s
 
Disk space usage:
14M	/scratch/362980.kestrel.chem.wisc.edu
