 Entering Gaussian System, Link 0=/share/apps/gaussian/g16/g16
 Initial command:
 /share/apps/gaussian/g16/l1.exe "/scratch/362992.kestrel.chem.wisc.edu/Gau-20862.inp" -scrdir="/scratch/362992.kestrel.chem.wisc.edu/"
 Entering Link 1 = /share/apps/gaussian/g16/l1.exe PID=     20863.
  
 Copyright (c) 1988-2019, Gaussian, Inc.  All Rights Reserved.
  
 This is part of the Gaussian(R) 16 program.  It is based on
 the Gaussian(R) 09 system (copyright 2009, Gaussian, Inc.),
 the Gaussian(R) 03 system (copyright 2003, Gaussian, Inc.),
 the Gaussian(R) 98 system (copyright 1998, Gaussian, Inc.),
 the Gaussian(R) 94 system (copyright 1995, Gaussian, Inc.),
 the Gaussian 92(TM) system (copyright 1992, Gaussian, Inc.),
 the Gaussian 90(TM) system (copyright 1990, Gaussian, Inc.),
 the Gaussian 88(TM) system (copyright 1988, Gaussian, Inc.),
 the Gaussian 86(TM) system (copyright 1986, Carnegie Mellon
 University), and the Gaussian 82(TM) system (copyright 1983,
 Carnegie Mellon University). Gaussian is a federally registered
 trademark of Gaussian, Inc.
  
 This software contains proprietary and confidential information,
 including trade secrets, belonging to Gaussian, Inc.
  
 This software is provided under written license and may be
 used, copied, transmitted, or stored only in accord with that
 written license.
  
 The following legend is applicable only to US Government
 contracts under FAR:
  
                    RESTRICTED RIGHTS LEGEND
  
 Use, reproduction and disclosure by the US Government is
 subject to restrictions as set forth in subparagraphs (a)
 and (c) of the Commercial Computer Software - Restricted
 Rights clause in FAR 52.227-19.
  
 Gaussian, Inc.
 340 Quinnipiac St., Bldg. 40, Wallingford CT 06492
  
  
 ---------------------------------------------------------------
 Warning -- This program may not be used in any manner that
 competes with the business of Gaussian, Inc. or will provide
 assistance to any competitor of Gaussian, Inc.  The licensee
 of this program is prohibited from giving any competitor of
 Gaussian, Inc. access to this program.  By using this program,
 the user acknowledges that Gaussian, Inc. is engaged in the
 business of creating and licensing software in the field of
 computational chemistry and represents and warrants to the
 licensee that it is not a competitor of Gaussian, Inc. and that
 it will not use this program in any manner prohibited above.
 ---------------------------------------------------------------
  

 Cite this work as:
 Gaussian 16, Revision C.01,
 M. J. Frisch, G. W. Trucks, H. B. Schlegel, G. E. Scuseria, 
 M. A. Robb, J. R. Cheeseman, G. Scalmani, V. Barone, 
 G. A. Petersson, H. Nakatsuji, X. Li, M. Caricato, A. V. Marenich, 
 J. Bloino, B. G. Janesko, R. Gomperts, B. Mennucci, H. P. Hratchian, 
 J. V. Ortiz, A. F. Izmaylov, J. L. Sonnenberg, D. Williams-Young, 
 F. Ding, F. Lipparini, F. Egidi, J. Goings, B. Peng, A. Petrone, 
 T. Henderson, D. Ranasinghe, V. G. Zakrzewski, J. Gao, N. Rega, 
 G. Zheng, W. Liang, M. Hada, M. Ehara, K. Toyota, R. Fukuda, 
 J. Hasegawa, M. Ishida, T. Nakajima, Y. Honda, O. Kitao, H. Nakai, 
 T. Vreven, K. Throssell, J. A. Montgomery, Jr., J. E. Peralta, 
 F. Ogliaro, M. J. Bearpark, J. J. Heyd, E. N. Brothers, K. N. Kudin, 
 V. N. Staroverov, T. A. Keith, R. Kobayashi, J. Normand, 
 K. Raghavachari, A. P. Rendell, J. C. Burant, S. S. Iyengar, 
 J. Tomasi, M. Cossi, J. M. Millam, M. Klene, C. Adamo, R. Cammi, 
 J. W. Ochterski, R. L. Martin, K. Morokuma, O. Farkas, 
 J. B. Foresman, and D. J. Fox, Gaussian, Inc., Wallingford CT, 2019.
 
 ******************************************
 Gaussian 16:  ES64L-G16RevC.01  3-Jul-2019
                14-Aug-2024 
 ******************************************
 %nprocs=16
 Will use up to   16 processors via shared memory.
 %mem=16GB
 %chk=pyrmd3_conf-2.chk
 ----------------------------------------------------------------------
 # B3LYP/6-31G(d,p) symmetry=loose empiricaldispersion=GD3BJ int=(grid=
 ultrafine) opt freq=noraman
 ----------------------------------------------------------------------
 1/18=20,19=15,26=4,38=1/1,3;
 2/9=110,12=2,17=4,18=3,40=1/2;
 3/5=1,6=6,7=101,11=2,25=1,30=1,71=1,74=-5,75=-5,124=41/1,2,3;
 4//1;
 5/5=2,38=5/2;
 6/7=2,8=2,9=2,10=2,28=1/1;
 7//1,2,3,16;
 1/18=20,19=15,26=4/3(2);
 2/9=110/2;
 99//99;
 2/9=110/2;
 3/5=1,6=6,7=101,11=2,25=1,30=1,71=1,74=-5,75=-5,124=41/1,2,3;
 4/5=5,16=3,69=1/1;
 5/5=2,38=5/2;
 7//1,2,3,16;
 1/18=20,19=15,26=4/3(-5);
 2/9=110/2;
 6/7=2,8=2,9=2,10=2,19=2,28=1/1;
 99/9=1/99;
 ----------
 pyrmd3.xyz
 ----------
 Symbolic Z-matrix:
 Charge =  0 Multiplicity = 1
 Cl                    4.3738    0.9651   -0.6909 
 C                     2.7284    0.5969   -0.3291 
 N                     2.3351    0.6961    0.9673 
 C                     1.0365    0.4027    1.2352 
 C                     0.1276    0.015     0.2439 
 C                    -1.3197   -0.3009    0.6145 
 C                    -2.2368   -0.7172   -0.5497 
 C                     0.6338   -0.0566   -1.0621 
 N                     1.9269    0.2303   -1.3627 
 H                     0.7365    0.4854    2.27 
 H                    -1.3124   -1.0954    1.363 
 H                    -1.7438    0.5777    1.1044 
 H                    -3.2465   -0.9222   -0.1922 
 H                    -2.3126    0.0702   -1.3006 
 H                    -1.8762   -1.623    -1.0389 
 H                     0.0173   -0.3452   -1.9002 
 

 GradGradGradGradGradGradGradGradGradGradGradGradGradGradGradGradGradGrad
 Berny optimization.
 Initialization pass.
                           ----------------------------
                           !    Initial Parameters    !
                           ! (Angstroms and Degrees)  !
 --------------------------                            --------------------------
 ! Name  Definition              Value          Derivative Info.                !
 --------------------------------------------------------------------------------
 ! R1    R(1,2)                  1.7245         estimate D2E/DX2                !
 ! R2    R(2,3)                  1.3584         estimate D2E/DX2                !
 ! R3    R(2,9)                  1.3584         estimate D2E/DX2                !
 ! R4    R(3,4)                  1.358          estimate D2E/DX2                !
 ! R5    R(4,5)                  1.3997         estimate D2E/DX2                !
 ! R6    R(4,10)                 1.0806         estimate D2E/DX2                !
 ! R7    R(5,6)                  1.527          estimate D2E/DX2                !
 ! R8    R(5,8)                  1.4025         estimate D2E/DX2                !
 ! R9    R(6,7)                  1.5394         estimate D2E/DX2                !
 ! R10   R(6,11)                 1.0916         estimate D2E/DX2                !
 ! R11   R(6,12)                 1.0917         estimate D2E/DX2                !
 ! R12   R(7,13)                 1.0906         estimate D2E/DX2                !
 ! R13   R(7,14)                 1.0907         estimate D2E/DX2                !
 ! R14   R(7,15)                 1.0908         estimate D2E/DX2                !
 ! R15   R(8,9)                  1.3582         estimate D2E/DX2                !
 ! R16   R(8,16)                 1.0797         estimate D2E/DX2                !
 ! A1    A(1,2,3)              117.4452         estimate D2E/DX2                !
 ! A2    A(1,2,9)              117.4502         estimate D2E/DX2                !
 ! A3    A(3,2,9)              125.1047         estimate D2E/DX2                !
 ! A4    A(2,3,4)              116.7029         estimate D2E/DX2                !
 ! A5    A(3,4,5)              122.7573         estimate D2E/DX2                !
 ! A6    A(3,4,10)             115.9675         estimate D2E/DX2                !
 ! A7    A(5,4,10)             121.2752         estimate D2E/DX2                !
 ! A8    A(4,5,6)              120.0582         estimate D2E/DX2                !
 ! A9    A(4,5,8)              116.0576         estimate D2E/DX2                !
 ! A10   A(6,5,8)              123.8843         estimate D2E/DX2                !
 ! A11   A(5,6,7)              115.9159         estimate D2E/DX2                !
 ! A12   A(5,6,11)             108.0984         estimate D2E/DX2                !
 ! A13   A(5,6,12)             108.0962         estimate D2E/DX2                !
 ! A14   A(7,6,11)             109.0099         estimate D2E/DX2                !
 ! A15   A(7,6,12)             109.0009         estimate D2E/DX2                !
 ! A16   A(11,6,12)            106.2996         estimate D2E/DX2                !
 ! A17   A(6,7,13)             110.7628         estimate D2E/DX2                !
 ! A18   A(6,7,14)             111.5207         estimate D2E/DX2                !
 ! A19   A(6,7,15)             111.518          estimate D2E/DX2                !
 ! A20   A(13,7,14)            107.2805         estimate D2E/DX2                !
 ! A21   A(13,7,15)            107.2772         estimate D2E/DX2                !
 ! A22   A(14,7,15)            108.2828         estimate D2E/DX2                !
 ! A23   A(5,8,9)              122.6107         estimate D2E/DX2                !
 ! A24   A(5,8,16)             122.0311         estimate D2E/DX2                !
 ! A25   A(9,8,16)             115.3582         estimate D2E/DX2                !
 ! A26   A(2,9,8)              116.7669         estimate D2E/DX2                !
 ! D1    D(1,2,3,4)           -179.9966         estimate D2E/DX2                !
 ! D2    D(9,2,3,4)              0.0012         estimate D2E/DX2                !
 ! D3    D(1,2,9,8)            179.9976         estimate D2E/DX2                !
 ! D4    D(3,2,9,8)             -0.0002         estimate D2E/DX2                !
 ! D5    D(2,3,4,5)             -0.0033         estimate D2E/DX2                !
 ! D6    D(2,3,4,10)           179.9957         estimate D2E/DX2                !
 ! D7    D(3,4,5,6)            179.9982         estimate D2E/DX2                !
 ! D8    D(3,4,5,8)              0.0043         estimate D2E/DX2                !
 ! D9    D(10,4,5,6)            -0.0008         estimate D2E/DX2                !
 ! D10   D(10,4,5,8)          -179.9946         estimate D2E/DX2                !
 ! D11   D(4,5,6,7)            179.9898         estimate D2E/DX2                !
 ! D12   D(4,5,6,11)           -57.3396         estimate D2E/DX2                !
 ! D13   D(4,5,6,12)            57.3328         estimate D2E/DX2                !
 ! D14   D(8,5,6,7)             -0.0169         estimate D2E/DX2                !
 ! D15   D(8,5,6,11)           122.6537         estimate D2E/DX2                !
 ! D16   D(8,5,6,12)          -122.6739         estimate D2E/DX2                !
 ! D17   D(4,5,8,9)             -0.0033         estimate D2E/DX2                !
 ! D18   D(4,5,8,16)          -179.999          estimate D2E/DX2                !
 ! D19   D(6,5,8,9)           -179.9968         estimate D2E/DX2                !
 ! D20   D(6,5,8,16)             0.0074         estimate D2E/DX2                !
 ! D21   D(5,6,7,13)          -179.9947         estimate D2E/DX2                !
 ! D22   D(5,6,7,14)           -60.5893         estimate D2E/DX2                !
 ! D23   D(5,6,7,15)            60.6058         estimate D2E/DX2                !
 ! D24   D(11,6,7,13)           57.8163         estimate D2E/DX2                !
 ! D25   D(11,6,7,14)          177.2217         estimate D2E/DX2                !
 ! D26   D(11,6,7,15)          -61.5832         estimate D2E/DX2                !
 ! D27   D(12,6,7,13)          -57.8157         estimate D2E/DX2                !
 ! D28   D(12,6,7,14)           61.5897         estimate D2E/DX2                !
 ! D29   D(12,6,7,15)         -177.2152         estimate D2E/DX2                !
 ! D30   D(5,8,9,2)              0.0013         estimate D2E/DX2                !
 ! D31   D(16,8,9,2)           179.9973         estimate D2E/DX2                !
 --------------------------------------------------------------------------------
 Trust Radius=3.00D-01 FncErr=1.00D-07 GrdErr=1.00D-06 EigMax=2.50D+02 EigMin=1.00D-04
 Number of steps in this run=     83 maximum allowed number of steps=    100.
 GradGradGradGradGradGradGradGradGradGradGradGradGradGradGradGradGradGrad

                          Input orientation:                          
 ---------------------------------------------------------------------
 Center     Atomic      Atomic             Coordinates (Angstroms)
 Number     Number       Type             X           Y           Z
 ---------------------------------------------------------------------
      1         17           0        4.373800    0.965100   -0.690900
      2          6           0        2.728400    0.596900   -0.329100
      3          7           0        2.335100    0.696100    0.967300
      4          6           0        1.036500    0.402700    1.235200
      5          6           0        0.127600    0.015000    0.243900
      6          6           0       -1.319700   -0.300900    0.614500
      7          6           0       -2.236800   -0.717200   -0.549700
      8          6           0        0.633800   -0.056600   -1.062100
      9          7           0        1.926900    0.230300   -1.362700
     10          1           0        0.736500    0.485400    2.270000
     11          1           0       -1.312400   -1.095400    1.363000
     12          1           0       -1.743800    0.577700    1.104400
     13          1           0       -3.246500   -0.922200   -0.192200
     14          1           0       -2.312600    0.070200   -1.300600
     15          1           0       -1.876200   -1.623000   -1.038900
     16          1           0        0.017300   -0.345200   -1.900200
 ---------------------------------------------------------------------
                    Distance matrix (angstroms):
                    1          2          3          4          5
     1  Cl   0.000000
     2  C    1.724474   0.000000
     3  N    2.641645   1.358373   0.000000
     4  C    3.894063   2.312417   1.358019   0.000000
     5  C    4.450478   2.726004   2.420798   1.399674   0.000000
     6  C    5.976853   4.252475   3.804739   2.536139   1.527028
     7  C    6.822764   5.140888   5.020057   3.892883   2.599289
     8  C    3.894773   2.313374   2.753079   2.377122   1.402498
     9  N    2.641698   1.358354   2.410912   2.751657   2.421776
    10  H    4.714551   3.276495   2.072907   1.080579   2.167283
    11  H    6.387256   4.696291   4.082929   2.788901   2.135175
    12  H    6.387348   4.696367   4.082921   2.788871   2.135235
    13  H    7.866357   6.166509   5.926010   4.704989   3.528892
    14  H    6.773516   5.160708   5.209245   4.213942   2.888443
    15  H    6.773615   5.160825   5.209425   4.214121   2.888570
    16  H    4.707269   3.271998   3.831326   3.380659   2.176942
                    6          7          8          9         10
     6  C    0.000000
     7  C    1.539396   0.000000
     8  C    2.585891   2.989865   0.000000
     9  N    3.838216   4.346852   1.358227   0.000000
    10  H    2.754434   4.270535   3.377455   3.831271   0.000000
    11  H    1.091575   2.157770   3.278401   4.436213   2.742183
    12  H    1.091696   2.157745   3.278573   4.436362   2.742085
    13  H    2.179297   1.090562   4.069732   5.427927   4.889586
    14  H    2.188875   1.090686   2.958755   4.242976   4.713660
    15  H    2.188920   1.090790   2.958758   4.243010   4.713849
    16  H    2.848376   2.653903   1.079710   2.065594   4.312507
                   11         12         13         14         15
    11  H    0.000000
    12  H    1.747067   0.000000
    13  H    2.487848   2.487766   0.000000
    14  H    3.074701   2.522918   1.756581   0.000000
    15  H    2.522966   3.074792   1.756628   1.768010   0.000000
    16  H    3.602690   3.602893   3.728617   2.441416   2.441301
                   16
    16  H    0.000000
 Stoichiometry    C6H7ClN2
 Framework group  C1[X(C6H7ClN2)]
 Deg. of freedom    42
 Full point group                 C1      NOp   1
 Largest Abelian subgroup         C1      NOp   1
 Largest concise Abelian subgroup C1      NOp   1
                         Standard orientation:                         
 ---------------------------------------------------------------------
 Center     Atomic      Atomic             Coordinates (Angstroms)
 Number     Number       Type             X           Y           Z
 ---------------------------------------------------------------------
      1         17           0       -3.131956   -0.233006    0.000005
      2          6           0       -1.420438   -0.022007    0.000027
      3          7           0       -0.946567    1.251030    0.000060
      4          6           0        0.403288    1.399715    0.000005
      5          6           0        1.284948    0.312627   -0.000013
      6          6           0        2.793239    0.551108   -0.000118
      7          6           0        3.674014   -0.711419    0.000117
      8          6           0        0.694460   -0.959507   -0.000065
      9          7           0       -0.651484   -1.141755   -0.000032
     10          1           0        0.767223    2.417164   -0.000042
     11          1           0        3.040673    1.157097   -0.873668
     12          1           0        3.040755    1.157330    0.873399
     13          1           0        4.731543   -0.445041    0.000117
     14          1           0        3.494323   -1.324459    0.884135
     15          1           0        3.494416   -1.324711   -0.883874
     16          1           0        1.283610   -1.864314   -0.000067
 ---------------------------------------------------------------------
 Rotational constants (GHZ):           4.7491272           0.6862249           0.6040498
 Standard basis: 6-31G(d,p) (6D, 7F)
 There are   174 symmetry adapted cartesian basis functions of A   symmetry.
 There are   174 symmetry adapted basis functions of A   symmetry.
   174 basis functions,   325 primitive gaussians,   174 cartesian basis functions
    37 alpha electrons       37 beta electrons
       nuclear repulsion energy       478.0196111763 Hartrees.
 NAtoms=   16 NActive=   16 NUniq=   16 SFac= 1.00D+00 NAtFMM=   60 NAOKFM=F Big=F
 Integral buffers will be    131072 words long.
 Raffenetti 2 integral format.
 Two-electron integral symmetry is turned on.
 Nuclear repulsion after empirical dispersion term =      477.9904975067 Hartrees.
 One-electron integrals computed using PRISM.
 NBasis=   174 RedAO= T EigKep=  1.26D-03  NBF=   174
 NBsUse=   174 1.00D-06 EigRej= -1.00D+00 NBFU=   174
 ExpMin= 1.43D-01 ExpMax= 2.52D+04 ExpMxC= 3.78D+03 IAcc=3 IRadAn=         5 AccDes= 0.00D+00
 Harris functional with IExCor=  402 and IRadAn=       5 diagonalized for initial guess.
 HarFok:  IExCor=  402 AccDes= 0.00D+00 IRadAn=         5 IDoV= 1 UseB2=F ITyADJ=14
 ICtDFT=  3500011 ScaDFX=  1.000000  1.000000  1.000000  1.000000
 FoFCou: FMM=F IPFlag=           0 FMFlag=      100000 FMFlg1=           0
         NFxFlg=           0 DoJE=T BraDBF=F KetDBF=T FulRan=T
         wScrn=  0.000000 ICntrl=       500 IOpCl=  0 I1Cent=   200000004 NGrid=           0
         NMat0=    1 NMatS0=      1 NMatT0=    0 NMatD0=    1 NMtDS0=    0 NMtDT0=    0
 Petite list used in FoFCou.
 Requested convergence on RMS density matrix=1.00D-08 within 128 cycles.
 Requested convergence on MAX density matrix=1.00D-06.
 Requested convergence on             energy=1.00D-06.
 No special actions if energy rises.
 Integral accuracy reduced to 1.0D-05 until final iterations.
 Initial convergence to 1.0D-05 achieved.  Increase integral accuracy.
 SCF Done:  E(RB3LYP) =  -802.586364101     A.U. after   14 cycles
            NFock= 14  Conv=0.61D-08     -V/T= 2.0062

 **********************************************************************

            Population analysis using the SCF Density.

 **********************************************************************

 Orbital symmetries:
       Occupied  (A) (A) (A) (A) (A) (A) (A) (A) (A) (A) (A) (A)
                 (A) (A) (A) (A) (A) (A) (A) (A) (A) (A) (A) (A)
                 (A) (A) (A) (A) (A) (A) (A) (A) (A) (A) (A) (A)
                 (A)
       Virtual   (A) (A) (A) (A) (A) (A) (A) (A) (A) (A) (A) (A)
                 (A) (A) (A) (A) (A) (A) (A) (A) (A) (A) (A) (A)
                 (A) (A) (A) (A) (A) (A) (A) (A) (A) (A) (A) (A)
                 (A) (A) (A) (A) (A) (A) (A) (A) (A) (A) (A) (A)
                 (A) (A) (A) (A) (A) (A) (A) (A) (A) (A) (A) (A)
                 (A) (A) (A) (A) (A) (A) (A) (A) (A) (A) (A) (A)
                 (A) (A) (A) (A) (A) (A) (A) (A) (A) (A) (A) (A)
                 (A) (A) (A) (A) (A) (A) (A) (A) (A) (A) (A) (A)
                 (A) (A) (A) (A) (A) (A) (A) (A) (A) (A) (A) (A)
                 (A) (A) (A) (A) (A) (A) (A) (A) (A) (A) (A) (A)
                 (A) (A) (A) (A) (A) (A) (A) (A) (A) (A) (A) (A)
                 (A) (A) (A) (A) (A)
 The electronic state is 1-A.
 Alpha  occ. eigenvalues -- -101.55328 -14.35672 -14.35587 -10.31725 -10.25320
 Alpha  occ. eigenvalues --  -10.25239 -10.22603 -10.21478 -10.19710  -9.47045
 Alpha  occ. eigenvalues --   -7.23452  -7.22490  -7.22384  -0.99526  -0.89260
 Alpha  occ. eigenvalues --   -0.86997  -0.81872  -0.75003  -0.67825  -0.65869
 Alpha  occ. eigenvalues --   -0.61276  -0.53198  -0.52863  -0.47433  -0.46127
 Alpha  occ. eigenvalues --   -0.43747  -0.43328  -0.42708  -0.39500  -0.38000
 Alpha  occ. eigenvalues --   -0.37893  -0.34111  -0.32140  -0.31900  -0.31614
 Alpha  occ. eigenvalues --   -0.26658  -0.25833
 Alpha virt. eigenvalues --   -0.05474  -0.03675   0.04358   0.08454   0.09889
 Alpha virt. eigenvalues --    0.11528   0.12313   0.14977   0.14981   0.18123
 Alpha virt. eigenvalues --    0.18219   0.18340   0.22200   0.23746   0.25384
 Alpha virt. eigenvalues --    0.31932   0.32612   0.34675   0.38146   0.40409
 Alpha virt. eigenvalues --    0.43072   0.45122   0.45598   0.49124   0.51656
 Alpha virt. eigenvalues --    0.52510   0.53249   0.55883   0.57613   0.58285
 Alpha virt. eigenvalues --    0.59531   0.59540   0.61970   0.63722   0.65977
 Alpha virt. eigenvalues --    0.66027   0.74103   0.74586   0.77963   0.78116
 Alpha virt. eigenvalues --    0.80538   0.81190   0.82389   0.82565   0.83952
 Alpha virt. eigenvalues --    0.84269   0.86805   0.87287   0.88999   0.89306
 Alpha virt. eigenvalues --    0.89930   0.90276   0.94636   0.96825   0.97966
 Alpha virt. eigenvalues --    0.99830   1.07221   1.09318   1.11198   1.15247
 Alpha virt. eigenvalues --    1.16542   1.20446   1.22469   1.25327   1.27129
 Alpha virt. eigenvalues --    1.39076   1.40186   1.43545   1.48100   1.48165
 Alpha virt. eigenvalues --    1.55981   1.58090   1.59588   1.62612   1.63381
 Alpha virt. eigenvalues --    1.70013   1.75748   1.77750   1.79354   1.81411
 Alpha virt. eigenvalues --    1.83306   1.87517   1.94032   1.97662   1.99657
 Alpha virt. eigenvalues --    2.02939   2.04607   2.06208   2.08314   2.12222
 Alpha virt. eigenvalues --    2.12335   2.13891   2.17361   2.19318   2.22802
 Alpha virt. eigenvalues --    2.23027   2.30019   2.32339   2.36746   2.37396
 Alpha virt. eigenvalues --    2.39119   2.42177   2.46375   2.49105   2.51013
 Alpha virt. eigenvalues --    2.54582   2.55131   2.62965   2.64893   2.67028
 Alpha virt. eigenvalues --    2.70824   2.71295   2.73354   2.76658   2.84978
 Alpha virt. eigenvalues --    2.87429   2.88734   2.93656   2.96423   3.15991
 Alpha virt. eigenvalues --    3.16850   3.17774   3.31365   3.36704   3.37463
 Alpha virt. eigenvalues --    3.46195   3.51643   3.59356   3.95538   4.01369
 Alpha virt. eigenvalues --    4.14012   4.20223   4.26707   4.34357   4.38506
 Alpha virt. eigenvalues --    4.50322   4.70375
          Condensed to atoms (all electrons):
               1          2          3          4          5          6
     1  Cl  16.810693   0.291159  -0.079037   0.004274   0.000388   0.000013
     2  C    0.291159   4.828818   0.391796  -0.059905  -0.035598   0.000557
     3  N   -0.079037   0.391796   6.801915   0.439999  -0.018005   0.004601
     4  C    0.004274  -0.059905   0.439999   4.807520   0.456546  -0.047697
     5  C    0.000388  -0.035598  -0.018005   0.456546   4.958201   0.335151
     6  C    0.000013   0.000557   0.004601  -0.047697   0.335151   4.979610
     7  C   -0.000000  -0.000005  -0.000107   0.002897  -0.033012   0.357993
     8  C    0.004170  -0.060925  -0.038448  -0.038121   0.473756  -0.047544
     9  N   -0.079427   0.393853  -0.052849  -0.040665  -0.019999   0.005620
    10  H   -0.000183   0.005529  -0.049678   0.395935  -0.071921  -0.002818
    11  H   -0.000000   0.000021   0.000003  -0.003887  -0.033981   0.378947
    12  H   -0.000000   0.000021   0.000003  -0.003888  -0.033984   0.378931
    13  H   -0.000000   0.000000   0.000001  -0.000089   0.003388  -0.025246
    14  H    0.000000  -0.000007  -0.000000   0.000066  -0.004085  -0.033267
    15  H    0.000000  -0.000007  -0.000000   0.000066  -0.004088  -0.033265
    16  H   -0.000182   0.005605  -0.000337   0.004156  -0.065973  -0.006449
               7          8          9         10         11         12
     1  Cl  -0.000000   0.004170  -0.079427  -0.000183  -0.000000  -0.000000
     2  C   -0.000005  -0.060925   0.393853   0.005529   0.000021   0.000021
     3  N   -0.000107  -0.038448  -0.052849  -0.049678   0.000003   0.000003
     4  C    0.002897  -0.038121  -0.040665   0.395935  -0.003887  -0.003888
     5  C   -0.033012   0.473756  -0.019999  -0.071921  -0.033981  -0.033984
     6  C    0.357993  -0.047544   0.005620  -0.002818   0.378947   0.378931
     7  C    4.918048  -0.005243  -0.000076  -0.000004  -0.035355  -0.035364
     8  C   -0.005243   4.789326   0.436344   0.004071   0.001105   0.001107
     9  N   -0.000076   0.436344   6.814357  -0.000378  -0.000111  -0.000111
    10  H   -0.000004   0.004071  -0.000378   0.597868   0.002171   0.002172
    11  H   -0.035355   0.001105  -0.000111   0.002171   0.603884  -0.035705
    12  H   -0.035364   0.001107  -0.000111   0.002172  -0.035705   0.603941
    13  H    0.382788   0.000231  -0.000002  -0.000003  -0.003308  -0.003311
    14  H    0.388662   0.000953  -0.000003   0.000004   0.005172  -0.005226
    15  H    0.388643   0.000954  -0.000003   0.000004  -0.005226   0.005173
    16  H    0.004480   0.395426  -0.050825  -0.000164   0.000078   0.000078
              13         14         15         16
     1  Cl  -0.000000   0.000000   0.000000  -0.000182
     2  C    0.000000  -0.000007  -0.000007   0.005605
     3  N    0.000001  -0.000000  -0.000000  -0.000337
     4  C   -0.000089   0.000066   0.000066   0.004156
     5  C    0.003388  -0.004085  -0.004088  -0.065973
     6  C   -0.025246  -0.033267  -0.033265  -0.006449
     7  C    0.382788   0.388662   0.388643   0.004480
     8  C    0.000231   0.000953   0.000954   0.395426
     9  N   -0.000002  -0.000003  -0.000003  -0.050825
    10  H   -0.000003   0.000004   0.000004  -0.000164
    11  H   -0.003308   0.005172  -0.005226   0.000078
    12  H   -0.003311  -0.005226   0.005173   0.000078
    13  H    0.591799  -0.030270  -0.030269  -0.000162
    14  H   -0.030270   0.593069  -0.034716   0.001401
    15  H   -0.030269  -0.034716   0.593113   0.001402
    16  H   -0.000162   0.001401   0.001402   0.593139
 Mulliken charges:
               1
     1  Cl   0.048132
     2  C    0.239087
     3  N   -0.399855
     4  C    0.082793
     5  C    0.093215
     6  C   -0.245137
     7  C   -0.334344
     8  C    0.082839
     9  N   -0.405726
    10  H    0.117396
    11  H    0.126194
    12  H    0.126164
    13  H    0.114453
    14  H    0.118245
    15  H    0.118219
    16  H    0.118326
 Sum of Mulliken charges =  -0.00000
 Mulliken charges with hydrogens summed into heavy atoms:
               1
     1  Cl   0.048132
     2  C    0.239087
     3  N   -0.399855
     4  C    0.200189
     5  C    0.093215
     6  C    0.007220
     7  C    0.016573
     8  C    0.201165
     9  N   -0.405726
 Electronic spatial extent (au):  <R**2>=           1773.0019
 Charge=             -0.0000 electrons
 Dipole moment (field-independent basis, Debye):
    X=              4.3969    Y=              0.5238    Z=             -0.0001  Tot=              4.4280
 Quadrupole moment (field-independent basis, Debye-Ang):
   XX=            -56.5388   YY=            -60.6096   ZZ=            -59.3522
   XY=              1.0250   XZ=             -0.0000   YZ=             -0.0005
 Traceless Quadrupole moment (field-independent basis, Debye-Ang):
   XX=              2.2947   YY=             -1.7761   ZZ=             -0.5186
   XY=              1.0250   XZ=             -0.0000   YZ=             -0.0005
 Octapole moment (field-independent basis, Debye-Ang**2):
  XXX=              4.5476  YYY=              3.5025  ZZZ=             -0.0001  XYY=              9.7152
  XXY=             -2.0962  XXZ=             -0.0001  XZZ=             -3.2910  YZZ=             -0.3171
  YYZ=             -0.0005  XYZ=             -0.0004
 Hexadecapole moment (field-independent basis, Debye-Ang**3):
 XXXX=          -1820.6691 YYYY=           -338.3205 ZZZZ=            -72.5486 XXXY=             16.2854
 XXXZ=              0.0027 YYYX=              7.5373 YYYZ=             -0.0014 ZZZX=             -0.0004
 ZZZY=             -0.0014 XXYY=           -383.0252 XXZZ=           -331.6888 YYZZ=            -69.2294
 XXYZ=             -0.0024 YYXZ=             -0.0003 ZZXY=              1.2393
 N-N= 4.779904975067D+02 E-N=-2.843337491297D+03  KE= 7.976593669869D+02
 Calling FoFJK, ICntrl=      2127 FMM=F ISym2X=0 I1Cent= 0 IOpClX= 0 NMat=1 NMatS=1 NMatT=0.
 ***** Axes restored to original set *****
 -------------------------------------------------------------------
 Center     Atomic                   Forces (Hartrees/Bohr)
 Number     Number              X              Y              Z
 -------------------------------------------------------------------
      1       17           0.004208936    0.000954855   -0.000852593
      2        6          -0.049539630   -0.011336357    0.009294207
      3        7          -0.002760887   -0.002730701   -0.013022205
      4        6           0.023866998    0.002856251   -0.021327909
      5        6          -0.008784880   -0.002557086   -0.001809011
      6        6           0.003391360   -0.000419358   -0.008891744
      7        6           0.004280857    0.001648406    0.003969232
      8        6           0.023695349    0.007891340    0.011449077
      9        7           0.005449769    0.003745873    0.015135265
     10        1          -0.000838915    0.000533348    0.004828002
     11        1          -0.000186583   -0.002010755    0.002986559
     12        1          -0.001297643    0.002375039    0.002272960
     13        1          -0.001051840    0.000054964    0.002101888
     14        1           0.000522883    0.001714891   -0.001967284
     15        1           0.001390191   -0.001686339   -0.001407238
     16        1          -0.002345965   -0.001034371   -0.002759207
 -------------------------------------------------------------------
 Cartesian Forces:  Max     0.049539630 RMS     0.010439558

 GradGradGradGradGradGradGradGradGradGradGradGradGradGradGradGradGradGrad
 Berny optimization.
 FormGI is forming the generalized inverse of G from B-inverse, IUseBI=4.
 Internal  Forces:  Max     0.028185490 RMS     0.006850563
 Search for a local minimum.
 Step number   1 out of a maximum of   83
 All quantities printed in internal units (Hartrees-Bohrs-Radians)
 Mixed Optimization -- RFO/linear search
 Second derivative matrix not updated -- first step.
 ITU=  0
     Eigenvalues ---    0.00245   0.00408   0.01353   0.02086   0.02114
     Eigenvalues ---    0.02141   0.02205   0.02243   0.02244   0.03639
     Eigenvalues ---    0.05234   0.05322   0.05462   0.09830   0.13151
     Eigenvalues ---    0.16000   0.16000   0.16000   0.16000   0.16000
     Eigenvalues ---    0.21998   0.23167   0.23428   0.25000   0.25000
     Eigenvalues ---    0.25000   0.28573   0.29700   0.33099   0.34617
     Eigenvalues ---    0.34631   0.34722   0.34734   0.34748   0.35924
     Eigenvalues ---    0.36029   0.43055   0.44469   0.50170   0.51258
     Eigenvalues ---    0.53286   0.53331
 RFO step:  Lambda=-7.79708522D-03 EMin= 2.44815283D-03
 Linear search not attempted -- first point.
 Iteration  1 RMS(Cart)=  0.02750613 RMS(Int)=  0.00028135
 Iteration  2 RMS(Cart)=  0.00028827 RMS(Int)=  0.00007802
 Iteration  3 RMS(Cart)=  0.00000011 RMS(Int)=  0.00007802
 Variable       Old X    -DE/DX   Delta X   Delta X   Delta X     New X
                                 (Linear)    (Quad)   (Total)
    R1        3.25878   0.00440   0.00000   0.01298   0.01298   3.27177
    R2        2.56695  -0.02670   0.00000  -0.05136  -0.05122   2.51574
    R3        2.56692  -0.02819   0.00000  -0.05406  -0.05392   2.51300
    R4        2.56628  -0.02390   0.00000  -0.04418  -0.04418   2.52211
    R5        2.64500  -0.00484   0.00000  -0.00827  -0.00841   2.63659
    R6        2.04200   0.00490   0.00000   0.01334   0.01334   2.05534
    R7        2.88566  -0.00725   0.00000  -0.02380  -0.02380   2.86186
    R8        2.65034  -0.00914   0.00000  -0.01766  -0.01780   2.63254
    R9        2.90904  -0.00557   0.00000  -0.01898  -0.01898   2.89005
   R10        2.06278   0.00351   0.00000   0.00991   0.00991   2.07269
   R11        2.06301   0.00344   0.00000   0.00971   0.00971   2.07271
   R12        2.06086   0.00165   0.00000   0.00465   0.00465   2.06552
   R13        2.06110   0.00256   0.00000   0.00720   0.00720   2.06829
   R14        2.06129   0.00249   0.00000   0.00702   0.00702   2.06831
   R15        2.56668  -0.02090   0.00000  -0.03857  -0.03857   2.52810
   R16        2.04036   0.00376   0.00000   0.01021   0.01021   2.05057
    A1        2.04980  -0.00839   0.00000  -0.02876  -0.02888   2.02093
    A2        2.04989  -0.00815   0.00000  -0.02784  -0.02796   2.02193
    A3        2.18349   0.01654   0.00000   0.05660   0.05684   2.24032
    A4        2.03685  -0.00737   0.00000  -0.03474  -0.03455   2.00230
    A5        2.14252   0.00261   0.00000   0.01577   0.01562   2.15814
    A6        2.02402  -0.00188   0.00000  -0.01130  -0.01123   2.01279
    A7        2.11665  -0.00073   0.00000  -0.00447  -0.00439   2.11226
    A8        2.09541   0.00453   0.00000   0.01344   0.01359   2.10901
    A9        2.02559  -0.00698   0.00000  -0.01883  -0.01913   2.00645
   A10        2.16219   0.00245   0.00000   0.00539   0.00554   2.16773
   A11        2.02311  -0.00343   0.00000  -0.01478  -0.01476   2.00836
   A12        1.88667   0.00106   0.00000   0.00423   0.00425   1.89092
   A13        1.88663   0.00105   0.00000   0.00425   0.00427   1.89090
   A14        1.90258   0.00120   0.00000   0.00598   0.00598   1.90856
   A15        1.90243   0.00121   0.00000   0.00610   0.00611   1.90853
   A16        1.85528  -0.00094   0.00000  -0.00530  -0.00532   1.84996
   A17        1.93317  -0.00218   0.00000  -0.01239  -0.01239   1.92078
   A18        1.94640   0.00003   0.00000  -0.00011  -0.00011   1.94629
   A19        1.94636   0.00004   0.00000  -0.00005  -0.00006   1.94630
   A20        1.87240   0.00120   0.00000   0.00770   0.00770   1.88010
   A21        1.87234   0.00120   0.00000   0.00772   0.00771   1.88005
   A22        1.88989  -0.00017   0.00000  -0.00211  -0.00211   1.88778
   A23        2.13996   0.00167   0.00000   0.01196   0.01181   2.15177
   A24        2.12985  -0.00110   0.00000  -0.00754  -0.00746   2.12238
   A25        2.01338  -0.00057   0.00000  -0.00442  -0.00434   2.00904
   A26        2.03797  -0.00647   0.00000  -0.03076  -0.03058   2.00739
    D1       -3.14153  -0.00000   0.00000  -0.00008  -0.00008   3.14157
    D2        0.00002   0.00000   0.00000   0.00001   0.00001   0.00003
    D3        3.14155   0.00000   0.00000   0.00008   0.00008  -3.14155
    D4       -0.00000  -0.00000   0.00000  -0.00002  -0.00002  -0.00002
    D5       -0.00006   0.00000   0.00000   0.00003   0.00003  -0.00002
    D6        3.14152   0.00000   0.00000   0.00006   0.00006   3.14158
    D7        3.14156   0.00000   0.00000   0.00001   0.00001   3.14157
    D8        0.00008  -0.00000   0.00000  -0.00007  -0.00007   0.00001
    D9       -0.00001  -0.00000   0.00000  -0.00002  -0.00002  -0.00003
   D10       -3.14150  -0.00000   0.00000  -0.00009  -0.00009   3.14159
   D11        3.14142   0.00000   0.00000   0.00003   0.00003   3.14144
   D12       -1.00077   0.00001   0.00000   0.00087   0.00087  -0.99990
   D13        1.00065  -0.00001   0.00000  -0.00100  -0.00100   0.99965
   D14       -0.00029   0.00000   0.00000   0.00011   0.00011  -0.00018
   D15        2.14071   0.00001   0.00000   0.00095   0.00095   2.14166
   D16       -2.14106  -0.00001   0.00000  -0.00092  -0.00091  -2.14198
   D17       -0.00006   0.00000   0.00000   0.00007   0.00007   0.00001
   D18       -3.14158  -0.00000   0.00000  -0.00001  -0.00001  -3.14159
   D19       -3.14154  -0.00000   0.00000  -0.00002  -0.00002  -3.14155
   D20        0.00013  -0.00000   0.00000  -0.00010  -0.00010   0.00003
   D21       -3.14150  -0.00000   0.00000  -0.00004  -0.00004  -3.14154
   D22       -1.05748   0.00008   0.00000   0.00135   0.00135  -1.05613
   D23        1.05777  -0.00009   0.00000  -0.00147  -0.00148   1.05630
   D24        1.00909   0.00010   0.00000   0.00018   0.00019   1.00927
   D25        3.09310   0.00019   0.00000   0.00156   0.00157   3.09468
   D26       -1.07483   0.00001   0.00000  -0.00126  -0.00125  -1.07608
   D27       -1.00907  -0.00010   0.00000  -0.00012  -0.00013  -1.00921
   D28        1.07494  -0.00001   0.00000   0.00126   0.00125   1.07619
   D29       -3.09299  -0.00019   0.00000  -0.00156  -0.00157  -3.09456
   D30        0.00002  -0.00000   0.00000  -0.00003  -0.00003  -0.00000
   D31        3.14155   0.00000   0.00000   0.00005   0.00005  -3.14159
         Item               Value     Threshold  Converged?
 Maximum Force            0.028185     0.000450     NO 
 RMS     Force            0.006851     0.000300     NO 
 Maximum Displacement     0.121105     0.001800     NO 
 RMS     Displacement     0.027477     0.001200     NO 
 Predicted change in Energy=-3.979200D-03
 GradGradGradGradGradGradGradGradGradGradGradGradGradGradGradGradGradGrad

                          Input orientation:                          
 ---------------------------------------------------------------------
 Center     Atomic      Atomic             Coordinates (Angstroms)
 Number     Number       Type             X           Y           Z
 ---------------------------------------------------------------------
      1         17           0        4.314908    0.949596   -0.693297
      2          6           0        2.664314    0.581355   -0.322496
      3          7           0        2.320174    0.690903    0.958850
      4          6           0        1.043678    0.402289    1.220629
      5          6           0        0.123260    0.014265    0.246507
      6          6           0       -1.311851   -0.298721    0.615291
      7          6           0       -2.206621   -0.710220   -0.554738
      8          6           0        0.631905   -0.054968   -1.048545
      9          7           0        1.903822    0.225721   -1.353808
     10          1           0        0.751881    0.488619    2.264832
     11          1           0       -1.308648   -1.096134    1.368376
     12          1           0       -1.741166    0.581578    1.109055
     13          1           0       -3.219071   -0.916037   -0.197968
     14          1           0       -2.273105    0.081868   -1.307131
     15          1           0       -1.835539   -1.615865   -1.044679
     16          1           0        0.009959   -0.345351   -1.888979
 ---------------------------------------------------------------------
                    Distance matrix (angstroms):
                    1          2          3          4          5
     1  Cl   0.000000
     2  C    1.731345   0.000000
     3  N    2.602975   1.331270   0.000000
     4  C    3.829309   2.244941   1.334641   0.000000
     5  C    4.396361   2.665016   2.406596   1.395223   0.000000
     6  C    5.910255   4.178979   3.780078   2.531080   1.514432
     7  C    6.730864   5.044612   4.974532   3.867047   2.568116
     8  C    3.834040   2.250054   2.726941   2.351125   1.393079
     9  N    2.602616   1.329823   2.395439   2.720064   2.403356
    10  H    4.653836   3.218737   2.050866   1.087639   2.166522
    11  H    6.329289   4.632219   4.065657   2.792945   2.131183
    12  H    6.329292   4.632234   4.065586   2.792839   2.131177
    13  H    7.777325   6.072225   5.882492   4.682033   3.497742
    14  H    6.673205   5.059358   5.157887   4.182499   2.856733
    15  H    6.673309   5.059446   5.158028   4.182637   2.856812
    16  H    4.651788   3.218424   3.810649   3.361131   2.168515
                    6          7          8          9         10
     6  C    0.000000
     7  C    1.529351   0.000000
     8  C    2.570204   2.954730   0.000000
     9  N    3.806960   4.290716   1.337814   0.000000
    10  H    2.756788   4.259100   3.359814   3.806657   0.000000
    11  H    1.096821   2.157234   3.269752   4.413338   2.749702
    12  H    1.096832   2.157220   3.269845   4.413419   2.749499
    13  H    2.163321   1.093024   4.036698   5.374347   4.879232
    14  H    2.182789   1.094494   2.919704   4.179664   4.698395
    15  H    2.182800   1.094503   2.919707   4.179691   4.698559
    16  H    2.832088   2.612767   1.085112   2.049207   4.301175
                   11         12         13         14         15
    11  H    0.000000
    12  H    1.751867   0.000000
    13  H    2.477011   2.476967   0.000000
    14  H    3.078345   2.524010   1.766609   0.000000
    15  H    2.523998   3.078349   1.766590   1.772750   0.000000
    16  H    3.593433   3.593583   3.689422   2.394461   2.394349
                   16
    16  H    0.000000
 Stoichiometry    C6H7ClN2
 Framework group  C1[X(C6H7ClN2)]
 Deg. of freedom    42
 Full point group                 C1      NOp   1
 Largest Abelian subgroup         C1      NOp   1
 Largest concise Abelian subgroup C1      NOp   1
                         Standard orientation:                         
 ---------------------------------------------------------------------
 Center     Atomic      Atomic             Coordinates (Angstroms)
 Number     Number       Type             X           Y           Z
 ---------------------------------------------------------------------
      1         17           0       -3.089714   -0.236663    0.000030
      2          6           0       -1.372179   -0.018422   -0.000027
      3          7           0       -0.948679    1.243690    0.000024
      4          6           0        0.378221    1.387231    0.000009
      5          6           0        1.271808    0.315713   -0.000025
      6          6           0        2.767639    0.552339   -0.000071
      7          6           0        3.624156   -0.714663    0.000103
      8          6           0        0.678391   -0.944654   -0.000053
      9          7           0       -0.646160   -1.132570   -0.000056
     10          1           0        0.735016    2.414682    0.000034
     11          1           0        3.020621    1.161962   -0.876071
     12          1           0        3.020624    1.162172    0.875796
     13          1           0        4.684681   -0.450113    0.000116
     14          1           0        3.433725   -1.327779    0.886525
     15          1           0        3.433833   -1.327962   -0.886225
     16          1           0        1.272307   -1.852802   -0.000080
 ---------------------------------------------------------------------
 Rotational constants (GHZ):           4.8008295           0.7047224           0.6192301
 Standard basis: 6-31G(d,p) (6D, 7F)
 There are   174 symmetry adapted cartesian basis functions of A   symmetry.
 There are   174 symmetry adapted basis functions of A   symmetry.
   174 basis functions,   325 primitive gaussians,   174 cartesian basis functions
    37 alpha electrons       37 beta electrons
       nuclear repulsion energy       483.0507808424 Hartrees.
 NAtoms=   16 NActive=   16 NUniq=   16 SFac= 1.00D+00 NAtFMM=   60 NAOKFM=F Big=F
 Integral buffers will be    131072 words long.
 Raffenetti 2 integral format.
 Two-electron integral symmetry is turned on.
 Nuclear repulsion after empirical dispersion term =      483.0215193508 Hartrees.
 One-electron integrals computed using PRISM.
 NBasis=   174 RedAO= T EigKep=  1.19D-03  NBF=   174
 NBsUse=   174 1.00D-06 EigRej= -1.00D+00 NBFU=   174
 Initial guess from the checkpoint file:  "pyrmd3_conf-2.chk"
 B after Tr=    -0.000000   -0.000000   -0.000000
         Rot=    1.000000   -0.000002    0.000000   -0.000379 Ang=  -0.04 deg.
 ExpMin= 1.43D-01 ExpMax= 2.52D+04 ExpMxC= 3.78D+03 IAcc=3 IRadAn=         5 AccDes= 0.00D+00
 Harris functional with IExCor=  402 and IRadAn=       5 diagonalized for initial guess.
 HarFok:  IExCor=  402 AccDes= 0.00D+00 IRadAn=         5 IDoV= 1 UseB2=F ITyADJ=14
 ICtDFT=  3500011 ScaDFX=  1.000000  1.000000  1.000000  1.000000
 FoFCou: FMM=F IPFlag=           0 FMFlag=      100000 FMFlg1=           0
         NFxFlg=           0 DoJE=T BraDBF=F KetDBF=T FulRan=T
         wScrn=  0.000000 ICntrl=       500 IOpCl=  0 I1Cent=   200000004 NGrid=           0
         NMat0=    1 NMatS0=      1 NMatT0=    0 NMatD0=    1 NMtDS0=    0 NMtDT0=    0
 Petite list used in FoFCou.
 Requested convergence on RMS density matrix=1.00D-08 within 128 cycles.
 Requested convergence on MAX density matrix=1.00D-06.
 Requested convergence on             energy=1.00D-06.
 No special actions if energy rises.
 Integral accuracy reduced to 1.0D-05 until final iterations.
 Initial convergence to 1.0D-05 achieved.  Increase integral accuracy.
 SCF Done:  E(RB3LYP) =  -802.590079677     A.U. after   12 cycles
            NFock= 12  Conv=0.49D-08     -V/T= 2.0058
 Calling FoFJK, ICntrl=      2127 FMM=F ISym2X=0 I1Cent= 0 IOpClX= 0 NMat=1 NMatS=1 NMatT=0.
 ***** Axes restored to original set *****
 -------------------------------------------------------------------
 Center     Atomic                   Forces (Hartrees/Bohr)
 Number     Number              X              Y              Z
 -------------------------------------------------------------------
      1       17           0.009391585    0.002105367   -0.002033049
      2        6          -0.005135933   -0.001452433   -0.000868297
      3        7          -0.000457975   -0.000619094   -0.003220422
      4        6           0.002258166    0.000985150    0.002599437
      5        6          -0.005696625   -0.001304746    0.001082703
      6        6           0.001518018    0.000093596   -0.001997046
      7        6          -0.000579894   -0.000014636    0.000925407
      8        6          -0.000699668   -0.000548753   -0.002373990
      9        7           0.003089936    0.001474313    0.004385944
     10        1          -0.001657699   -0.000302003    0.000808787
     11        1          -0.000301360    0.000106361    0.000607497
     12        1          -0.000255511   -0.000065345    0.000631605
     13        1          -0.000093599   -0.000066635   -0.000286877
     14        1          -0.000019288   -0.000167417   -0.000129914
     15        1          -0.000086246    0.000098757   -0.000168886
     16        1          -0.001273906   -0.000322482    0.000037099
 -------------------------------------------------------------------
 Cartesian Forces:  Max     0.009391585 RMS     0.002219011

 GradGradGradGradGradGradGradGradGradGradGradGradGradGradGradGradGradGrad
 Berny optimization.
 Using GEDIIS/GDIIS optimizer.
 FormGI is forming the generalized inverse of G from B-inverse, IUseBI=4.
 Internal  Forces:  Max     0.009836781 RMS     0.001649259
 Search for a local minimum.
 Step number   2 out of a maximum of   83
 All quantities printed in internal units (Hartrees-Bohrs-Radians)
 Mixed Optimization -- RFO/linear search
 Update second derivatives using D2CorX and points    1    2
 DE= -3.72D-03 DEPred=-3.98D-03 R= 9.34D-01
 TightC=F SS=  1.41D+00  RLast= 1.41D-01 DXNew= 5.0454D-01 4.2275D-01
 Trust test= 9.34D-01 RLast= 1.41D-01 DXMaxT set to 4.23D-01
 ITU=  1  0
 Use linear search instead of GDIIS.
     Eigenvalues ---    0.00245   0.00408   0.01343   0.02087   0.02114
     Eigenvalues ---    0.02141   0.02203   0.02243   0.02243   0.03705
     Eigenvalues ---    0.05228   0.05339   0.05531   0.09717   0.13076
     Eigenvalues ---    0.15912   0.16000   0.16000   0.16000   0.16073
     Eigenvalues ---    0.22024   0.23000   0.23164   0.24999   0.25000
     Eigenvalues ---    0.27000   0.28389   0.29330   0.32080   0.34623
     Eigenvalues ---    0.34663   0.34727   0.34745   0.34863   0.35885
     Eigenvalues ---    0.36020   0.42379   0.44382   0.50076   0.50474
     Eigenvalues ---    0.53218   0.59459
 RFO step:  Lambda=-5.17801876D-04 EMin= 2.44815283D-03
 Quartic linear search produced a step of -0.06189.
 Iteration  1 RMS(Cart)=  0.00830760 RMS(Int)=  0.00001541
 Iteration  2 RMS(Cart)=  0.00002021 RMS(Int)=  0.00000714
 Iteration  3 RMS(Cart)=  0.00000000 RMS(Int)=  0.00000714
 Variable       Old X    -DE/DX   Delta X   Delta X   Delta X     New X
                                 (Linear)    (Quad)   (Total)
    R1        3.27177   0.00984  -0.00080   0.02959   0.02878   3.30055
    R2        2.51574  -0.00005   0.00317  -0.00720  -0.00404   2.51170
    R3        2.51300  -0.00215   0.00334  -0.01125  -0.00793   2.50507
    R4        2.52211   0.00292   0.00273  -0.00072   0.00201   2.52412
    R5        2.63659   0.00296   0.00052   0.00532   0.00585   2.64244
    R6        2.05534   0.00120  -0.00083   0.00491   0.00409   2.05943
    R7        2.86186  -0.00027   0.00147  -0.00408  -0.00260   2.85926
    R8        2.63254   0.00237   0.00110   0.00292   0.00403   2.63657
    R9        2.89005   0.00024   0.00117  -0.00180  -0.00063   2.88943
   R10        2.07269   0.00034  -0.00061   0.00225   0.00164   2.07433
   R11        2.07271   0.00033  -0.00060   0.00220   0.00160   2.07431
   R12        2.06552   0.00001  -0.00029   0.00064   0.00035   2.06587
   R13        2.06829  -0.00003  -0.00045   0.00088   0.00044   2.06873
   R14        2.06831  -0.00004  -0.00043   0.00085   0.00041   2.06872
   R15        2.52810   0.00428   0.00239   0.00244   0.00482   2.53293
   R16        2.05057   0.00079  -0.00063   0.00342   0.00279   2.05335
    A1        2.02093   0.00155   0.00179   0.00241   0.00421   2.02513
    A2        2.02193   0.00180   0.00173   0.00346   0.00520   2.02714
    A3        2.24032  -0.00334  -0.00352  -0.00587  -0.00941   2.23091
    A4        2.00230   0.00308   0.00214   0.00591   0.00803   2.01033
    A5        2.15814  -0.00023  -0.00097   0.00195   0.00099   2.15913
    A6        2.01279   0.00159   0.00069   0.00716   0.00785   2.02064
    A7        2.11226  -0.00136   0.00027  -0.00911  -0.00884   2.10342
    A8        2.10901   0.00077  -0.00084   0.00402   0.00317   2.11217
    A9        2.00645  -0.00231   0.00118  -0.00981  -0.00860   1.99785
   A10        2.16773   0.00154  -0.00034   0.00579   0.00543   2.17316
   A11        2.00836   0.00121   0.00091   0.00482   0.00572   2.01408
   A12        1.89092  -0.00029  -0.00026   0.00076   0.00049   1.89141
   A13        1.89090  -0.00029  -0.00026   0.00079   0.00052   1.89142
   A14        1.90856  -0.00027  -0.00037   0.00013  -0.00025   1.90831
   A15        1.90853  -0.00027  -0.00038   0.00018  -0.00021   1.90832
   A16        1.84996  -0.00021   0.00033  -0.00776  -0.00743   1.84253
   A17        1.92078   0.00040   0.00077   0.00115   0.00191   1.92269
   A18        1.94629   0.00013   0.00001   0.00044   0.00045   1.94674
   A19        1.94630   0.00012   0.00000   0.00045   0.00045   1.94675
   A20        1.88010  -0.00022  -0.00048   0.00028  -0.00019   1.87990
   A21        1.88005  -0.00022  -0.00048   0.00031  -0.00017   1.87989
   A22        1.88778  -0.00024   0.00013  -0.00269  -0.00256   1.88522
   A23        2.15177  -0.00023  -0.00073   0.00148   0.00077   2.15253
   A24        2.12238  -0.00096   0.00046  -0.00727  -0.00682   2.11557
   A25        2.00904   0.00119   0.00027   0.00579   0.00605   2.01509
   A26        2.00739   0.00303   0.00189   0.00635   0.00823   2.01562
    D1        3.14157   0.00000   0.00001   0.00007   0.00008  -3.14154
    D2        0.00003  -0.00000  -0.00000  -0.00007  -0.00007  -0.00004
    D3       -3.14155  -0.00000  -0.00001  -0.00009  -0.00009   3.14154
    D4       -0.00002   0.00000   0.00000   0.00005   0.00005   0.00003
    D5       -0.00002   0.00000  -0.00000   0.00005   0.00005   0.00002
    D6        3.14158   0.00000  -0.00000   0.00005   0.00005  -3.14156
    D7        3.14157   0.00000  -0.00000   0.00002   0.00002   3.14159
    D8        0.00001  -0.00000   0.00000  -0.00002  -0.00002  -0.00001
    D9       -0.00003   0.00000   0.00000   0.00002   0.00002  -0.00001
   D10        3.14159   0.00000   0.00001  -0.00002  -0.00002   3.14157
   D11        3.14144   0.00000  -0.00000  -0.00000  -0.00000   3.14144
   D12       -0.99990   0.00027  -0.00005   0.00410   0.00405  -0.99584
   D13        0.99965  -0.00027   0.00006  -0.00419  -0.00413   0.99552
   D14       -0.00018   0.00000  -0.00001   0.00005   0.00004  -0.00014
   D15        2.14166   0.00027  -0.00006   0.00415   0.00410   2.14576
   D16       -2.14198  -0.00027   0.00006  -0.00414  -0.00409  -2.14607
   D17        0.00001  -0.00000  -0.00000   0.00000  -0.00000   0.00001
   D18       -3.14159   0.00000   0.00000   0.00001   0.00001  -3.14158
   D19       -3.14155  -0.00000   0.00000  -0.00005  -0.00004   3.14159
   D20        0.00003  -0.00000   0.00001  -0.00004  -0.00004  -0.00000
   D21       -3.14154   0.00000   0.00000  -0.00004  -0.00004  -3.14158
   D22       -1.05613   0.00007  -0.00008   0.00135   0.00126  -1.05487
   D23        1.05630  -0.00007   0.00009  -0.00148  -0.00139   1.05491
   D24        1.00927  -0.00027  -0.00001  -0.00457  -0.00458   1.00469
   D25        3.09468  -0.00021  -0.00010  -0.00318  -0.00327   3.09140
   D26       -1.07608  -0.00034   0.00008  -0.00600  -0.00593  -1.08201
   D27       -1.00921   0.00027   0.00001   0.00455   0.00456  -1.00465
   D28        1.07619   0.00034  -0.00008   0.00594   0.00586   1.08206
   D29       -3.09456   0.00021   0.00010   0.00311   0.00321  -3.09135
   D30       -0.00000  -0.00000   0.00000  -0.00001  -0.00001  -0.00002
   D31       -3.14159  -0.00000  -0.00000  -0.00002  -0.00002   3.14157
         Item               Value     Threshold  Converged?
 Maximum Force            0.009837     0.000450     NO 
 RMS     Force            0.001649     0.000300     NO 
 Maximum Displacement     0.046258     0.001800     NO 
 RMS     Displacement     0.008299     0.001200     NO 
 Predicted change in Energy=-2.758794D-04
 GradGradGradGradGradGradGradGradGradGradGradGradGradGradGradGradGradGrad

                          Input orientation:                          
 ---------------------------------------------------------------------
 Center     Atomic      Atomic             Coordinates (Angstroms)
 Number     Number       Type             X           Y           Z
 ---------------------------------------------------------------------
      1         17           0        4.339387    0.955845   -0.693283
      2          6           0        2.673580    0.583726   -0.322956
      3          7           0        2.322052    0.690701    0.954376
      4          6           0        1.044877    0.402263    1.218457
      5          6           0        0.119836    0.013092    0.244732
      6          6           0       -1.314148   -0.299755    0.612362
      7          6           0       -2.214804   -0.711981   -0.552451
      8          6           0        0.636754   -0.053865   -1.049458
      9          7           0        1.912387    0.228762   -1.348564
     10          1           0        0.746173    0.486893    2.263101
     11          1           0       -1.311686   -1.094965    1.369032
     12          1           0       -1.743313    0.579353    1.110246
     13          1           0       -3.226405   -0.917081   -0.192302
     14          1           0       -2.283682    0.078576   -1.306574
     15          1           0       -1.846376   -1.617921   -1.044334
     16          1           0        0.013268   -0.344743   -1.890484
 ---------------------------------------------------------------------
                    Distance matrix (angstroms):
                    1          2          3          4          5
     1  Cl   0.000000
     2  C    1.746576   0.000000
     3  N    2.618153   1.329133   0.000000
     4  C    3.849026   2.249791   1.335706   0.000000
     5  C    4.424168   2.677593   2.410914   1.398319   0.000000
     6  C    5.936640   4.190147   3.784167   2.534793   1.513054
     7  C    6.764533   5.062393   4.982079   3.873393   2.571337
     8  C    3.854331   2.254548   2.722124   2.349054   1.395211
     9  N    2.616939   1.325626   2.384271   2.715193   2.407975
    10  H    4.676677   3.226758   2.058565   1.089801   2.165779
    11  H    6.355595   4.643616   4.069962   2.796024   2.130984
    12  H    6.355604   4.643601   4.069875   2.795903   2.130983
    13  H    7.810252   6.089278   5.889414   4.687723   3.500506
    14  H    6.709007   5.079087   5.167144   4.190448   2.861422
    15  H    6.709036   5.079137   5.167239   4.190549   2.861447
    16  H    4.673342   3.224355   3.807343   3.359725   2.167614
                    6          7          8          9         10
     6  C    0.000000
     7  C    1.529020   0.000000
     8  C    2.574515   2.968420   0.000000
     9  N    3.812491   4.307262   1.340367   0.000000
    10  H    2.754755   4.258171   3.358190   3.804052   0.000000
    11  H    1.097686   2.157404   3.275576   4.419528   2.745254
    12  H    1.097680   2.157408   3.275668   4.419593   2.745025
    13  H    2.164555   1.093210   4.050167   5.390462   4.876629
    14  H    2.182990   1.094726   2.934723   4.198966   4.699928
    15  H    2.182995   1.094721   2.934660   4.198940   4.700072
    16  H    2.833425   2.624786   1.086587   2.056512   4.298958
                   11         12         13         14         15
    11  H    0.000000
    12  H    1.748317   0.000000
    13  H    2.477005   2.476995   0.000000
    14  H    3.079097   2.526617   1.766822   0.000000
    15  H    2.526600   3.079098   1.766809   1.771470   0.000000
    16  H    3.597607   3.597764   3.702279   2.407515   2.407327
                   16
    16  H    0.000000
 Stoichiometry    C6H7ClN2
 Framework group  C1[X(C6H7ClN2)]
 Deg. of freedom    42
 Full point group                 C1      NOp   1
 Largest Abelian subgroup         C1      NOp   1
 Largest concise Abelian subgroup C1      NOp   1
                         Standard orientation:                         
 ---------------------------------------------------------------------
 Center     Atomic      Atomic             Coordinates (Angstroms)
 Number     Number       Type             X           Y           Z
 ---------------------------------------------------------------------
      1         17           0       -3.108438   -0.234660   -0.000001
      2          6           0       -1.375317   -0.018280    0.000043
      3          7           0       -0.944456    1.239079    0.000039
      4          6           0        0.383266    1.384910    0.000011
      5          6           0        1.281656    0.313374   -0.000042
      6          6           0        2.776254    0.548979   -0.000072
      7          6           0        3.639140   -0.713292    0.000085
      8          6           0        0.679805   -0.945351   -0.000051
      9          7           0       -0.648235   -1.126719   -0.000018
     10          1           0        0.747160    2.412163    0.000040
     11          1           0        3.029739    1.162460   -0.874315
     12          1           0        3.029740    1.162690    0.874002
     13          1           0        4.698975   -0.445227    0.000067
     14          1           0        3.451250   -1.328491    0.885892
     15          1           0        3.451287   -1.328700   -0.885578
     16          1           0        1.275296   -1.854231   -0.000083
 ---------------------------------------------------------------------
 Rotational constants (GHZ):           4.8255039           0.6980920           0.6144942
 Standard basis: 6-31G(d,p) (6D, 7F)
 There are   174 symmetry adapted cartesian basis functions of A   symmetry.
 There are   174 symmetry adapted basis functions of A   symmetry.
   174 basis functions,   325 primitive gaussians,   174 cartesian basis functions
    37 alpha electrons       37 beta electrons
       nuclear repulsion energy       481.9036231842 Hartrees.
 NAtoms=   16 NActive=   16 NUniq=   16 SFac= 1.00D+00 NAtFMM=   60 NAOKFM=F Big=F
 Integral buffers will be    131072 words long.
 Raffenetti 2 integral format.
 Two-electron integral symmetry is turned on.
 Nuclear repulsion after empirical dispersion term =      481.8744209975 Hartrees.
 One-electron integrals computed using PRISM.
 NBasis=   174 RedAO= T EigKep=  1.20D-03  NBF=   174
 NBsUse=   174 1.00D-06 EigRej= -1.00D+00 NBFU=   174
 Initial guess from the checkpoint file:  "pyrmd3_conf-2.chk"
 B after Tr=     0.000000   -0.000000    0.000000
         Rot=    1.000000    0.000001   -0.000000    0.000307 Ang=   0.04 deg.
 ExpMin= 1.43D-01 ExpMax= 2.52D+04 ExpMxC= 3.78D+03 IAcc=3 IRadAn=         5 AccDes= 0.00D+00
 Harris functional with IExCor=  402 and IRadAn=       5 diagonalized for initial guess.
 HarFok:  IExCor=  402 AccDes= 0.00D+00 IRadAn=         5 IDoV= 1 UseB2=F ITyADJ=14
 ICtDFT=  3500011 ScaDFX=  1.000000  1.000000  1.000000  1.000000
 FoFCou: FMM=F IPFlag=           0 FMFlag=      100000 FMFlg1=           0
         NFxFlg=           0 DoJE=T BraDBF=F KetDBF=T FulRan=T
         wScrn=  0.000000 ICntrl=       500 IOpCl=  0 I1Cent=   200000004 NGrid=           0
         NMat0=    1 NMatS0=      1 NMatT0=    0 NMatD0=    1 NMtDS0=    0 NMtDT0=    0
 Petite list used in FoFCou.
 Requested convergence on RMS density matrix=1.00D-08 within 128 cycles.
 Requested convergence on MAX density matrix=1.00D-06.
 Requested convergence on             energy=1.00D-06.
 No special actions if energy rises.
 Integral accuracy reduced to 1.0D-05 until final iterations.
 Initial convergence to 1.0D-05 achieved.  Increase integral accuracy.
 SCF Done:  E(RB3LYP) =  -802.590391328     A.U. after   11 cycles
            NFock= 11  Conv=0.30D-08     -V/T= 2.0058
 Calling FoFJK, ICntrl=      2127 FMM=F ISym2X=0 I1Cent= 0 IOpClX= 0 NMat=1 NMatS=1 NMatT=0.
 ***** Axes restored to original set *****
 -------------------------------------------------------------------
 Center     Atomic                   Forces (Hartrees/Bohr)
 Number     Number              X              Y              Z
 -------------------------------------------------------------------
      1       17           0.002369547    0.000546438   -0.000432995
      2        6          -0.002693068   -0.000762950   -0.000376451
      3        7          -0.000216053    0.000015973    0.000438632
      4        6           0.000952541    0.000516059    0.001742546
      5        6          -0.000925065   -0.000252465   -0.000102443
      6        6           0.000626266    0.000122449   -0.000221932
      7        6          -0.000117020   -0.000023344    0.000024789
      8        6          -0.000743610   -0.000384822   -0.001250430
      9        7           0.000722148    0.000236244    0.000302181
     10        1          -0.000104269   -0.000070416   -0.000275589
     11        1          -0.000009860    0.000127229    0.000033056
     12        1           0.000048093   -0.000098937    0.000069170
     13        1           0.000139112    0.000012829   -0.000152660
     14        1          -0.000027894   -0.000125753    0.000038540
     15        1          -0.000084888    0.000100271    0.000002333
     16        1           0.000064021    0.000041197    0.000161253
 -------------------------------------------------------------------
 Cartesian Forces:  Max     0.002693068 RMS     0.000693680

 GradGradGradGradGradGradGradGradGradGradGradGradGradGradGradGradGradGrad
 Berny optimization.
 Using GEDIIS/GDIIS optimizer.
 FormGI is forming the generalized inverse of G from B-inverse, IUseBI=4.
 Internal  Forces:  Max     0.002468206 RMS     0.000387589
 Search for a local minimum.
 Step number   3 out of a maximum of   83
 All quantities printed in internal units (Hartrees-Bohrs-Radians)
 Mixed Optimization -- En-DIIS/RFO-DIIS
 Update second derivatives using D2CorX and points    1    2    3
 DE= -3.12D-04 DEPred=-2.76D-04 R= 1.13D+00
 TightC=F SS=  1.41D+00  RLast= 4.39D-02 DXNew= 7.1098D-01 1.3174D-01
 Trust test= 1.13D+00 RLast= 4.39D-02 DXMaxT set to 4.23D-01
 ITU=  1  1  0
 Use linear search instead of GDIIS.
     Eigenvalues ---    0.00245   0.00408   0.01338   0.02087   0.02115
     Eigenvalues ---    0.02142   0.02204   0.02243   0.02243   0.03657
     Eigenvalues ---    0.05189   0.05336   0.05513   0.09771   0.13119
     Eigenvalues ---    0.15627   0.16000   0.16000   0.16012   0.16018
     Eigenvalues ---    0.22023   0.23036   0.23371   0.23936   0.25000
     Eigenvalues ---    0.25078   0.28490   0.28857   0.31746   0.34622
     Eigenvalues ---    0.34645   0.34726   0.34746   0.34773   0.35986
     Eigenvalues ---    0.36194   0.41901   0.44366   0.50103   0.51321
     Eigenvalues ---    0.53284   0.58764
 RFO step:  Lambda=-2.99535810D-05 EMin= 2.44815305D-03
 Quartic linear search produced a step of  0.16418.
 Iteration  1 RMS(Cart)=  0.00144336 RMS(Int)=  0.00000089
 Iteration  2 RMS(Cart)=  0.00000126 RMS(Int)=  0.00000050
 Iteration  3 RMS(Cart)=  0.00000000 RMS(Int)=  0.00000050
 Variable       Old X    -DE/DX   Delta X   Delta X   Delta X     New X
                                 (Linear)    (Quad)   (Total)
    R1        3.30055   0.00247   0.00473   0.00587   0.01059   3.31114
    R2        2.51170   0.00070  -0.00066   0.00110   0.00044   2.51214
    R3        2.50507  -0.00021  -0.00130  -0.00052  -0.00182   2.50325
    R4        2.52412  -0.00025   0.00033  -0.00145  -0.00112   2.52299
    R5        2.64244   0.00126   0.00096   0.00258   0.00354   2.64598
    R6        2.05943  -0.00024   0.00067  -0.00102  -0.00035   2.05908
    R7        2.85926  -0.00062  -0.00043  -0.00254  -0.00296   2.85630
    R8        2.63657   0.00073   0.00066   0.00128   0.00195   2.63851
    R9        2.88943   0.00013  -0.00010   0.00030   0.00019   2.88962
   R10        2.07433  -0.00007   0.00027  -0.00026   0.00001   2.07434
   R11        2.07431  -0.00007   0.00026  -0.00025   0.00002   2.07433
   R12        2.06587  -0.00018   0.00006  -0.00058  -0.00052   2.06535
   R13        2.06873  -0.00012   0.00007  -0.00032  -0.00025   2.06848
   R14        2.06872  -0.00011   0.00007  -0.00031  -0.00025   2.06848
   R15        2.53293   0.00044   0.00079  -0.00014   0.00066   2.53358
   R16        2.05335  -0.00017   0.00046  -0.00070  -0.00024   2.05311
    A1        2.02513  -0.00036   0.00069  -0.00249  -0.00180   2.02334
    A2        2.02714  -0.00005   0.00085  -0.00113  -0.00027   2.02687
    A3        2.23091   0.00041  -0.00155   0.00361   0.00207   2.23298
    A4        2.01033   0.00004   0.00132  -0.00133  -0.00002   2.01031
    A5        2.15913  -0.00046   0.00016  -0.00200  -0.00184   2.15729
    A6        2.02064   0.00042   0.00129   0.00146   0.00275   2.02339
    A7        2.10342   0.00004  -0.00145   0.00054  -0.00091   2.10251
    A8        2.11217  -0.00016   0.00052  -0.00109  -0.00057   2.11160
    A9        1.99785   0.00042  -0.00141   0.00303   0.00161   1.99947
   A10        2.17316  -0.00026   0.00089  -0.00193  -0.00104   2.17212
   A11        2.01408  -0.00000   0.00094  -0.00057   0.00037   2.01445
   A12        1.89141  -0.00001   0.00008  -0.00003   0.00005   1.89146
   A13        1.89142  -0.00001   0.00008  -0.00004   0.00004   1.89146
   A14        1.90831   0.00005  -0.00004   0.00067   0.00063   1.90894
   A15        1.90832   0.00005  -0.00003   0.00066   0.00063   1.90895
   A16        1.84253  -0.00007  -0.00122  -0.00073  -0.00195   1.84058
   A17        1.92269   0.00012   0.00031   0.00054   0.00085   1.92355
   A18        1.94674   0.00006   0.00007   0.00032   0.00040   1.94714
   A19        1.94675   0.00006   0.00007   0.00031   0.00039   1.94714
   A20        1.87990  -0.00008  -0.00003  -0.00039  -0.00042   1.87948
   A21        1.87989  -0.00008  -0.00003  -0.00038  -0.00041   1.87948
   A22        1.88522  -0.00007  -0.00042  -0.00048  -0.00090   1.88432
   A23        2.15253  -0.00050   0.00013  -0.00222  -0.00210   2.15044
   A24        2.11557   0.00020  -0.00112   0.00142   0.00030   2.11586
   A25        2.01509   0.00030   0.00099   0.00080   0.00180   2.01688
   A26        2.01562   0.00008   0.00135  -0.00108   0.00027   2.01589
    D1       -3.14154  -0.00000   0.00001  -0.00020  -0.00019   3.14146
    D2       -0.00004   0.00000  -0.00001   0.00015   0.00014   0.00010
    D3        3.14154   0.00000  -0.00002   0.00021   0.00019  -3.14146
    D4        0.00003  -0.00000   0.00001  -0.00014  -0.00014  -0.00010
    D5        0.00002  -0.00000   0.00001  -0.00006  -0.00005  -0.00003
    D6       -3.14156  -0.00000   0.00001  -0.00008  -0.00007   3.14155
    D7        3.14159  -0.00000   0.00000  -0.00003  -0.00002   3.14157
    D8       -0.00001  -0.00000  -0.00000  -0.00002  -0.00002  -0.00003
    D9       -0.00001  -0.00000   0.00000  -0.00000  -0.00000  -0.00001
   D10        3.14157   0.00000  -0.00000   0.00000   0.00000   3.14158
   D11        3.14144  -0.00000  -0.00000   0.00001   0.00001   3.14145
   D12       -0.99584   0.00005   0.00067   0.00047   0.00114  -0.99471
   D13        0.99552  -0.00005  -0.00068  -0.00042  -0.00110   0.99441
   D14       -0.00014  -0.00000   0.00001   0.00000   0.00001  -0.00014
   D15        2.14576   0.00005   0.00067   0.00046   0.00113   2.14689
   D16       -2.14607  -0.00005  -0.00067  -0.00043  -0.00111  -2.14717
   D17        0.00001   0.00000  -0.00000   0.00002   0.00002   0.00003
   D18       -3.14158   0.00000   0.00000   0.00001   0.00001  -3.14157
   D19        3.14159   0.00000  -0.00001   0.00003   0.00003  -3.14157
   D20       -0.00000   0.00000  -0.00001   0.00002   0.00001   0.00001
   D21       -3.14158   0.00000  -0.00001   0.00003   0.00002  -3.14156
   D22       -1.05487   0.00001   0.00021   0.00011   0.00032  -1.05455
   D23        1.05491  -0.00001  -0.00023  -0.00006  -0.00028   1.05462
   D24        1.00469  -0.00002  -0.00075  -0.00005  -0.00080   1.00389
   D25        3.09140  -0.00001  -0.00054   0.00003  -0.00051   3.09090
   D26       -1.08201  -0.00002  -0.00097  -0.00014  -0.00111  -1.08312
   D27       -1.00465   0.00002   0.00075   0.00008   0.00083  -1.00382
   D28        1.08206   0.00002   0.00096   0.00017   0.00113   1.08319
   D29       -3.09135   0.00001   0.00053   0.00000   0.00053  -3.09082
   D30       -0.00002   0.00000  -0.00000   0.00005   0.00005   0.00003
   D31        3.14157   0.00000  -0.00000   0.00006   0.00006  -3.14155
         Item               Value     Threshold  Converged?
 Maximum Force            0.002468     0.000450     NO 
 RMS     Force            0.000388     0.000300     NO 
 Maximum Displacement     0.006284     0.001800     NO 
 RMS     Displacement     0.001443     0.001200     NO 
 Predicted change in Energy=-2.099986D-05
 GradGradGradGradGradGradGradGradGradGradGradGradGradGradGradGradGradGrad

                          Input orientation:                          
 ---------------------------------------------------------------------
 Center     Atomic      Atomic             Coordinates (Angstroms)
 Number     Number       Type             X           Y           Z
 ---------------------------------------------------------------------
      1         17           0        4.342713    0.956768   -0.693771
      2          6           0        2.671463    0.583033   -0.323112
      3          7           0        2.321422    0.690571    0.954824
      4          6           0        1.045072    0.402607    1.220400
      5          6           0        0.119377    0.012985    0.244790
      6          6           0       -1.313128   -0.299539    0.612012
      7          6           0       -2.214258   -0.711852   -0.552538
      8          6           0        0.635396   -0.054427   -1.050844
      9          7           0        1.911629    0.228523   -1.348639
     10          1           0        0.744904    0.486767    2.264470
     11          1           0       -1.310692   -1.093944    1.369537
     12          1           0       -1.741992    0.579145    1.110921
     13          1           0       -3.225768   -0.916995   -0.192995
     14          1           0       -2.283345    0.078167   -1.307012
     15          1           0       -1.846255   -1.617571   -1.044855
     16          1           0        0.011363   -0.345338   -1.891288
 ---------------------------------------------------------------------
                    Distance matrix (angstroms):
                    1          2          3          4          5
     1  Cl   0.000000
     2  C    1.752182   0.000000
     3  N    2.621897   1.329366   0.000000
     4  C    3.852995   2.249473   1.335111   0.000000
     5  C    4.428114   2.675932   2.410866   1.400190   0.000000
     6  C    5.939015   4.186926   3.782564   2.534611   1.511486
     7  C    6.767430   5.059608   4.981097   3.874089   2.570403
     8  C    3.859303   2.254222   2.724043   2.352714   1.396241
     9  N    2.620946   1.324662   2.384818   2.716833   2.407829
    10  H    4.681487   3.227458   2.059641   1.089618   2.166763
    11  H    6.357959   4.640568   4.068013   2.794912   2.129658
    12  H    6.357920   4.640588   4.067938   2.794796   2.129652
    13  H    7.813045   6.086407   5.888385   4.688189   3.499502
    14  H    6.712126   5.076718   5.166703   4.191829   2.861015
    15  H    6.712213   5.076746   5.166795   4.191929   2.861049
    16  H    4.678687   3.224465   3.809177   3.363120   2.168615
                    6          7          8          9         10
     6  C    0.000000
     7  C    1.529123   0.000000
     8  C    2.573308   2.966655   0.000000
     9  N    3.810782   4.305929   1.340714   0.000000
    10  H    2.753977   4.257801   3.360981   3.805587   0.000000
    11  H    1.097693   2.157962   3.275072   4.418229   2.743178
    12  H    1.097689   2.157964   3.275152   4.418294   2.742966
    13  H    2.165059   1.092935   4.048273   5.388931   4.876056
    14  H    2.183262   1.094593   2.932959   4.197874   4.700290
    15  H    2.183264   1.094591   2.932924   4.197862   4.700423
    16  H    2.832470   2.622971   1.086458   2.057861   4.301256
                   11         12         13         14         15
    11  H    0.000000
    12  H    1.747035   0.000000
    13  H    2.477970   2.477948   0.000000
    14  H    3.079579   2.527932   1.766222   0.000000
    15  H    2.527904   3.079579   1.766219   1.770678   0.000000
    16  H    3.597391   3.597525   3.700002   2.405498   2.405364
                   16
    16  H    0.000000
 Stoichiometry    C6H7ClN2
 Framework group  C1[X(C6H7ClN2)]
 Deg. of freedom    42
 Full point group                 C1      NOp   1
 Largest Abelian subgroup         C1      NOp   1
 Largest concise Abelian subgroup C1      NOp   1
                         Standard orientation:                         
 ---------------------------------------------------------------------
 Center     Atomic      Atomic             Coordinates (Angstroms)
 Number     Number       Type             X           Y           Z
 ---------------------------------------------------------------------
      1         17           0       -3.111439   -0.234753    0.000071
      2          6           0       -1.372639   -0.018617   -0.000112
      3          7           0       -0.943281    1.239504   -0.000011
      4          6           0        0.383667    1.386915    0.000010
      5          6           0        1.282615    0.313404   -0.000034
      6          6           0        2.775671    0.548722   -0.000035
      7          6           0        3.639047   -0.713339    0.000114
      8          6           0        0.681597   -0.946859   -0.000067
      9          7           0       -0.646982   -1.126837   -0.000088
     10          1           0        0.749049    2.413445    0.000055
     11          1           0        3.029088    1.163186   -0.873616
     12          1           0        3.029054    1.163375    0.873419
     13          1           0        4.698752   -0.445885    0.000140
     14          1           0        3.451434   -1.328992    0.885498
     15          1           0        3.451521   -1.329146   -0.885180
     16          1           0        1.277666   -1.855205   -0.000084
 ---------------------------------------------------------------------
 Rotational constants (GHZ):           4.8194634           0.6975888           0.6140008
 Standard basis: 6-31G(d,p) (6D, 7F)
 There are   174 symmetry adapted cartesian basis functions of A   symmetry.
 There are   174 symmetry adapted basis functions of A   symmetry.
   174 basis functions,   325 primitive gaussians,   174 cartesian basis functions
    37 alpha electrons       37 beta electrons
       nuclear repulsion energy       481.6827739173 Hartrees.
 NAtoms=   16 NActive=   16 NUniq=   16 SFac= 1.00D+00 NAtFMM=   60 NAOKFM=F Big=F
 Integral buffers will be    131072 words long.
 Raffenetti 2 integral format.
 Two-electron integral symmetry is turned on.
 Nuclear repulsion after empirical dispersion term =      481.6535749492 Hartrees.
 One-electron integrals computed using PRISM.
 NBasis=   174 RedAO= T EigKep=  1.20D-03  NBF=   174
 NBsUse=   174 1.00D-06 EigRej= -1.00D+00 NBFU=   174
 Initial guess from the checkpoint file:  "pyrmd3_conf-2.chk"
 B after Tr=    -0.000000    0.000000   -0.000000
         Rot=    1.000000   -0.000001    0.000000    0.000008 Ang=  -0.00 deg.
 Requested convergence on RMS density matrix=1.00D-08 within 128 cycles.
 Requested convergence on MAX density matrix=1.00D-06.
 Requested convergence on             energy=1.00D-06.
 No special actions if energy rises.
 SCF Done:  E(RB3LYP) =  -802.590413356     A.U. after    9 cycles
            NFock=  9  Conv=0.94D-08     -V/T= 2.0059
 Calling FoFJK, ICntrl=      2127 FMM=F ISym2X=0 I1Cent= 0 IOpClX= 0 NMat=1 NMatS=1 NMatT=0.
 ***** Axes restored to original set *****
 -------------------------------------------------------------------
 Center     Atomic                   Forces (Hartrees/Bohr)
 Number     Number              X              Y              Z
 -------------------------------------------------------------------
      1       17           0.000213261    0.000047077   -0.000007451
      2        6          -0.000529460   -0.000155553   -0.000286809
      3        7           0.000201455    0.000077440    0.000215035
      4        6          -0.000162205   -0.000034246    0.000071924
      5        6           0.000398258    0.000055368   -0.000309068
      6        6          -0.000074558   -0.000003204    0.000108438
      7        6          -0.000056397   -0.000012415    0.000005504
      8        6          -0.000602411   -0.000113298    0.000293056
      9        7           0.000538545    0.000131439    0.000002144
[...]
      3 vectors produced by pass  3 Test12= 3.58D-13 3.33D-08 XBig12= 3.22D-05 2.00D-03.
      3 vectors produced by pass  4 Test12= 3.58D-13 3.33D-08 XBig12= 5.17D-07 1.86D-04.
      3 vectors produced by pass  5 Test12= 3.58D-13 3.33D-08 XBig12= 6.14D-09 2.42D-05.
      3 vectors produced by pass  6 Test12= 3.58D-13 3.33D-08 XBig12= 9.13D-11 3.39D-06.
      3 vectors produced by pass  7 Test12= 3.58D-13 3.33D-08 XBig12= 1.09D-12 2.53D-07.
      1 vectors produced by pass  8 Test12= 3.58D-13 3.33D-08 XBig12= 9.86D-15 3.37D-08.
 InvSVY:  IOpt=1 It=  1 EMax= 8.88D-16
 Solved reduced A of dimension    25 with     3 vectors.
 Calculating GIAO nuclear magnetic shielding tensors.
 SCF GIAO Magnetic shielding tensor (ppm):
      1  Cl   Isotropic =   552.4794   Anisotropy =   692.2814
   XX=  1003.3007   YX=    85.9883   ZX=    -0.1010
   XY=    84.9999   YY=   330.8659   ZY=    -0.0125
   XZ=    -0.0594   YZ=    -0.0063   ZZ=   323.2715
   Eigenvalues:   320.1664   323.2715  1014.0003
      2  C    Isotropic =    -4.8730   Anisotropy =   102.7539
   XX=  -105.6587   YX=   -21.4496   ZX=     0.0068
   XY=   -16.1587   YY=    27.4101   ZY=    -0.0003
   XZ=    -0.0017   YZ=    -0.0010   ZZ=    63.6295
   Eigenvalues:  -108.2649    30.0163    63.6295
      3  N    Isotropic =  -112.6529   Anisotropy =   530.6094
   XX=  -294.1847   YX=   -96.2365   ZX=    -0.0059
   XY=   -73.8717   YY=  -284.8607   ZY=    -0.0337
   XZ=     0.0154   YZ=    -0.0428   ZZ=   241.0867
   Eigenvalues:  -374.7045  -204.3409   241.0867
      4  C    Isotropic =    -0.8494   Anisotropy =   203.4808
   XX=   -43.3346   YX=   -59.6805   ZX=    -0.0047
   XY=   -47.5729   YY=   -94.0181   ZY=    -0.0124
   XZ=    -0.0007   YZ=    -0.0160   ZZ=   134.8044
   Eigenvalues:  -127.9893    -9.3634   134.8044
      5  C    Isotropic =    30.7613   Anisotropy =   224.1358
   XX=   -93.1995   YX=   -14.6865   ZX=    -0.0012
   XY=   -12.1016   YY=     5.2982   ZY=    -0.0062
   XZ=    -0.0073   YZ=    -0.0094   ZZ=   180.1851
   Eigenvalues:   -94.9883     7.0871   180.1851
      6  C    Isotropic =   161.6617   Anisotropy =    19.7090
   XX=   174.4238   YX=    -4.9349   ZX=     0.0018
   XY=     0.1687   YY=   159.7442   ZY=    -0.0011
   XZ=    -0.0010   YZ=    -0.0009   ZZ=   150.8170
   Eigenvalues:   150.8170   159.3670   174.8010
      7  C    Isotropic =   175.7495   Anisotropy =     9.5628
   XX=   176.1176   YX=    -5.1663   ZX=     0.0009
   XY=    -4.5622   YY=   178.1860   ZY=    -0.0025
   XZ=    -0.0012   YZ=    -0.0033   ZZ=   172.9451
   Eigenvalues:   172.1788   172.9451   182.1247
      8  C    Isotropic =     5.1366   Anisotropy =   212.5563
   XX=   -67.3633   YX=    67.8335   ZX=    -0.0022
   XY=    44.8373   YY=   -64.0678   ZY=    -0.0026
   XZ=     0.0008   YZ=     0.0009   ZZ=   146.8407
   Eigenvalues:  -122.0750    -9.3560   146.8407
      9  N    Isotropic =  -112.0340   Anisotropy =   537.4665
   XX=  -339.0622   YX=    83.4408   ZX=    -0.0039
   XY=    60.9999   YY=  -243.3167   ZY=    -0.0008
   XZ=     0.0147   YZ=     0.0134   ZZ=   246.2770
   Eigenvalues:  -377.8357  -204.5432   246.2770
     10  H    Isotropic =    22.5843   Anisotropy =     9.6855
   XX=    26.8666   YX=    -4.2880   ZX=    -0.0000
   XY=    -3.6891   YY=    21.7258   ZY=     0.0001
   XZ=    -0.0001   YZ=     0.0002   ZZ=    19.1605
   Eigenvalues:    19.1605    19.5511    29.0413
     11  H    Isotropic =    29.0929   Anisotropy =     8.2343
   XX=    28.6346   YX=    -0.0820   ZX=    -1.1994
   XY=    -0.5855   YY=    30.7651   ZY=    -4.3256
   XZ=    -3.2466   YZ=    -5.3701   ZZ=    27.8791
   Eigenvalues:    23.4858    29.2105    34.5825
     12  H    Isotropic =    29.0929   Anisotropy =     8.2345
   XX=    28.6347   YX=    -0.0819   ZX=     1.1994
   XY=    -0.5858   YY=    30.7669   ZY=     4.3255
   XZ=     3.2459   YZ=     5.3700   ZZ=    27.8771
   Eigenvalues:    23.4854    29.2108    34.5826
     13  H    Isotropic =    30.4817   Anisotropy =    10.2031
   XX=    37.2828   YX=     0.1038   ZX=     0.0005
   XY=    -0.2938   YY=    28.4639   ZY=    -0.0001
   XZ=     0.0004   YZ=    -0.0001   ZZ=    25.6984
   Eigenvalues:    25.6984    28.4629    37.2838
     14  H    Isotropic =    30.5612   Anisotropy =     8.7529
   XX=    28.6108   YX=    -1.1186   ZX=     0.1302
   XY=    -0.2209   YY=    31.9146   ZY=    -4.5479
   XZ=     1.1154   YZ=    -4.9272   ZZ=    31.1584
   Eigenvalues:    26.7839    28.5033    36.3965
     15  H    Isotropic =    30.5610   Anisotropy =     8.7531
   XX=    28.6109   YX=    -1.1189   ZX=    -0.1303
   XY=    -0.2212   YY=    31.9160   ZY=     4.5480
   XZ=    -1.1152   YZ=     4.9272   ZZ=    31.1563
   Eigenvalues:    26.7833    28.5034    36.3964
     16  H    Isotropic =    22.6597   Anisotropy =    11.2591
   XX=    26.6006   YX=     5.3388   ZX=     0.0005
   XY=     4.9047   YY=    22.8077   ZY=     0.0003
   XZ=     0.0004   YZ=     0.0001   ZZ=    18.5708
   Eigenvalues:    18.5708    19.2425    30.1657
 End of Minotr F.D. properties file   721 does not exist.
 End of Minotr F.D. properties file   722 does not exist.
 End of Minotr F.D. properties file   788 does not exist.

 **********************************************************************

            Population analysis using the SCF Density.

 **********************************************************************

 Orbital symmetries:
       Occupied  (A) (A) (A) (A) (A) (A) (A) (A) (A) (A) (A) (A)
                 (A) (A) (A) (A) (A) (A) (A) (A) (A) (A) (A) (A)
                 (A) (A) (A) (A) (A) (A) (A) (A) (A) (A) (A) (A)
                 (A)
       Virtual   (A) (A) (A) (A) (A) (A) (A) (A) (A) (A) (A) (A)
                 (A) (A) (A) (A) (A) (A) (A) (A) (A) (A) (A) (A)
                 (A) (A) (A) (A) (A) (A) (A) (A) (A) (A) (A) (A)
                 (A) (A) (A) (A) (A) (A) (A) (A) (A) (A) (A) (A)
                 (A) (A) (A) (A) (A) (A) (A) (A) (A) (A) (A) (A)
                 (A) (A) (A) (A) (A) (A) (A) (A) (A) (A) (A) (A)
                 (A) (A) (A) (A) (A) (A) (A) (A) (A) (A) (A) (A)
                 (A) (A) (A) (A) (A) (A) (A) (A) (A) (A) (A) (A)
                 (A) (A) (A) (A) (A) (A) (A) (A) (A) (A) (A) (A)
                 (A) (A) (A) (A) (A) (A) (A) (A) (A) (A) (A) (A)
                 (A) (A) (A) (A) (A) (A) (A) (A) (A) (A) (A) (A)
                 (A) (A) (A) (A) (A) (A) (A) (A) (A) (A) (A) (A)
                 (A) (A) (A) (A) (A) (A) (A) (A) (A) (A) (A) (A)
                 (A) (A) (A) (A) (A) (A) (A) (A) (A) (A) (A) (A)
                 (A) (A) (A) (A) (A) (A) (A) (A) (A) (A) (A) (A)
                 (A) (A) (A) (A) (A) (A) (A) (A) (A) (A) (A) (A)
                 (A) (A) (A) (A) (A) (A) (A) (A) (A) (A) (A) (A)
                 (A) (A) (A) (A) (A) (A) (A) (A) (A) (A) (A) (A)
                 (A) (A) (A) (A) (A) (A) (A) (A) (A) (A) (A) (A)
                 (A) (A) (A) (A) (A) (A) (A) (A) (A) (A) (A) (A)
                 (A) (A) (A) (A) (A) (A) (A) (A) (A) (A) (A) (A)
                 (A) (A) (A) (A) (A) (A) (A) (A) (A) (A) (A) (A)
                 (A) (A) (A) (A) (A) (A) (A) (A) (A) (A) (A) (A)
                 (A) (A) (A) (A) (A) (A) (A) (A) (A) (A) (A) (A)
                 (A) (A)
 The electronic state is 1-A.
 Alpha  occ. eigenvalues -- -102.64268 -14.77567 -14.77451 -10.67162 -10.60968
 Alpha  occ. eigenvalues --  -10.60802 -10.57906 -10.56768 -10.54936  -9.80553
 Alpha  occ. eigenvalues --   -7.52747  -7.52246  -7.52198  -1.12634  -1.01581
 Alpha  occ. eigenvalues --   -0.96520  -0.91989  -0.84810  -0.77273  -0.75095
 Alpha  occ. eigenvalues --   -0.70091  -0.61448  -0.60680  -0.55229  -0.53149
 Alpha  occ. eigenvalues --   -0.52390  -0.50333  -0.48941  -0.46369  -0.44648
 Alpha  occ. eigenvalues --   -0.44426  -0.40345  -0.39377  -0.39182  -0.38118
 Alpha  occ. eigenvalues --   -0.33601  -0.32445
 Alpha virt. eigenvalues --   -0.02639  -0.00648   0.05281   0.07752   0.08364
 Alpha virt. eigenvalues --    0.10203   0.10596   0.11720   0.13344   0.14249
 Alpha virt. eigenvalues --    0.14426   0.17164   0.18479   0.18889   0.19543
 Alpha virt. eigenvalues --    0.21517   0.21726   0.23013   0.25367   0.25909
 Alpha virt. eigenvalues --    0.28456   0.28824   0.29514   0.29971   0.30786
 Alpha virt. eigenvalues --    0.32054   0.33076   0.33425   0.36379   0.37300
 Alpha virt. eigenvalues --    0.37667   0.39229   0.40189   0.41215   0.41457
 Alpha virt. eigenvalues --    0.42174   0.43305   0.43381   0.44253   0.44905
 Alpha virt. eigenvalues --    0.45955   0.46804   0.46827   0.48407   0.49657
 Alpha virt. eigenvalues --    0.50688   0.50812   0.51428   0.52592   0.54735
 Alpha virt. eigenvalues --    0.56261   0.58362   0.59121   0.59441   0.62873
 Alpha virt. eigenvalues --    0.63782   0.64038   0.65001   0.67140   0.67680
 Alpha virt. eigenvalues --    0.69687   0.69876   0.71191   0.73212   0.75994
 Alpha virt. eigenvalues --    0.76685   0.79184   0.80489   0.81326   0.82294
 Alpha virt. eigenvalues --    0.84937   0.85874   0.87401   0.92179   0.93069
 Alpha virt. eigenvalues --    0.97321   1.00270   1.01600   1.02429   1.03062
 Alpha virt. eigenvalues --    1.09583   1.10555   1.11101   1.11367   1.15418
 Alpha virt. eigenvalues --    1.16001   1.18551   1.20387   1.25575   1.25814
 Alpha virt. eigenvalues --    1.30541   1.32212   1.34135   1.35838   1.36519
 Alpha virt. eigenvalues --    1.39567   1.40523   1.43422   1.44194   1.48540
 Alpha virt. eigenvalues --    1.49222   1.50812   1.52886   1.54176   1.56601
 Alpha virt. eigenvalues --    1.57058   1.59242   1.59577   1.60253   1.60968
 Alpha virt. eigenvalues --    1.61530   1.66124   1.66909   1.67507   1.69688
 Alpha virt. eigenvalues --    1.71188   1.75510   1.77629   1.79691   1.81410
 Alpha virt. eigenvalues --    1.83249   1.84607   1.86714   1.87096   1.88235
 Alpha virt. eigenvalues --    1.88749   1.89016   1.92098   1.92653   1.94766
 Alpha virt. eigenvalues --    1.96257   1.96660   1.97433   1.98322   2.01108
 Alpha virt. eigenvalues --    2.03764   2.07019   2.11542   2.13250   2.14016
 Alpha virt. eigenvalues --    2.14475   2.15878   2.20597   2.21510   2.23369
 Alpha virt. eigenvalues --    2.25297   2.26155   2.29844   2.30817   2.30850
 Alpha virt. eigenvalues --    2.32674   2.32696   2.34568   2.35077   2.35410
 Alpha virt. eigenvalues --    2.40420   2.42209   2.43219   2.45710   2.46502
 Alpha virt. eigenvalues --    2.48451   2.50730   2.51336   2.53894   2.56300
 Alpha virt. eigenvalues --    2.59079   2.61984   2.65783   2.66840   2.67624
 Alpha virt. eigenvalues --    2.69735   2.70614   2.72453   2.74454   2.77028
 Alpha virt. eigenvalues --    2.84390   2.87198   2.88452   2.88692   2.91312
 Alpha virt. eigenvalues --    2.91907   2.92413   2.95248   2.96194   2.98118
 Alpha virt. eigenvalues --    3.00033   3.00283   3.01813   3.06543   3.06947
 Alpha virt. eigenvalues --    3.08245   3.10370   3.11090   3.11128   3.13295
 Alpha virt. eigenvalues --    3.15698   3.16199   3.18404   3.19447   3.21983
 Alpha virt. eigenvalues --    3.23709   3.26269   3.26554   3.28995   3.30474
 Alpha virt. eigenvalues --    3.31470   3.33771   3.36589   3.36654   3.38570
 Alpha virt. eigenvalues --    3.39771   3.40349   3.40599   3.43106   3.44684
 Alpha virt. eigenvalues --    3.48087   3.50221   3.52995   3.57025   3.59029
 Alpha virt. eigenvalues --    3.64369   3.67763   3.72374   3.75229   3.75610
 Alpha virt. eigenvalues --    3.76862   3.79492   3.83415   3.83988   3.85796
 Alpha virt. eigenvalues --    3.89345   3.90467   3.93560   3.97638   4.00644
 Alpha virt. eigenvalues --    4.02547   4.07808   4.13137   4.13592   4.17977
 Alpha virt. eigenvalues --    4.19262   4.22066   4.31157   4.33057   4.36979
 Alpha virt. eigenvalues --    4.40667   4.45052   4.49600   4.54884   4.55072
 Alpha virt. eigenvalues --    4.57923   4.59848   4.62875   4.70153   4.71496
 Alpha virt. eigenvalues --    4.77349   4.82108   4.86614   4.90892   4.96348
 Alpha virt. eigenvalues --    4.97972   5.00689   5.01057   5.05688   5.12043
 Alpha virt. eigenvalues --    5.17271   5.24206   5.28613   5.31926   5.35654
 Alpha virt. eigenvalues --    5.38455   5.39475   5.53623   5.56304   5.67685
 Alpha virt. eigenvalues --    5.68703   5.93960   6.16915  10.81588  10.87960
 Alpha virt. eigenvalues --   11.38471  22.44274  22.63200  22.71404  22.84529
 Alpha virt. eigenvalues --   22.91591  23.15225  25.81722  32.41918  32.62267
          Condensed to atoms (all electrons):
               1          2          3          4          5          6
     1  Cl  16.831046   0.402738  -0.092023   0.000639   0.003165   0.000041
     2  C    0.402738   4.627132   0.491220  -0.090405  -0.043470   0.003206
     3  N   -0.092023   0.491220   6.475792   0.512243  -0.053060   0.002740
     4  C    0.000639  -0.090405   0.512243   4.842369   0.462664  -0.048765
     5  C    0.003165  -0.043470  -0.053060   0.462664   5.302274   0.201191
     6  C    0.000041   0.003206   0.002740  -0.048765   0.201191   5.199703
     7  C   -0.000012  -0.000164  -0.000446   0.007271  -0.028558   0.230112
     8  C    0.000238  -0.088951  -0.022214  -0.051350   0.445777  -0.041315
     9  N   -0.092572   0.504767  -0.066867  -0.025401  -0.060169   0.008506
    10  H   -0.000352   0.006258  -0.031377   0.443614  -0.082656   0.004392
    11  H   -0.000002   0.000028   0.000204  -0.005030  -0.048928   0.419819
    12  H   -0.000002   0.000028   0.000204  -0.005029  -0.048958   0.419859
    13  H   -0.000000   0.000006   0.000012  -0.000369   0.010969  -0.042890
    14  H    0.000001  -0.000085  -0.000005  -0.000266   0.000237  -0.046216
    15  H    0.000001  -0.000085  -0.000005  -0.000267   0.000220  -0.046195
    16  H   -0.000335   0.006972  -0.001820   0.000965  -0.084827   0.000490
               7          8          9         10         11         12
     1  Cl  -0.000012   0.000238  -0.092572  -0.000352  -0.000002  -0.000002
     2  C   -0.000164  -0.088951   0.504767   0.006258   0.000028   0.000028
     3  N   -0.000446  -0.022214  -0.066867  -0.031377   0.000204   0.000204
     4  C    0.007271  -0.051350  -0.025401   0.443614  -0.005030  -0.005029
     5  C   -0.028558   0.445777  -0.060169  -0.082656  -0.048928  -0.048958
     6  C    0.230112  -0.041315   0.008506   0.004392   0.419819   0.419859
     7  C    5.101809  -0.006962  -0.001504  -0.000107  -0.031971  -0.031980
     8  C   -0.006962   4.848208   0.513494   0.003519   0.000211   0.000218
     9  N   -0.001504   0.513494   6.462687  -0.002050  -0.000364  -0.000364
    10  H   -0.000107   0.003519  -0.002050   0.497345   0.000351   0.000351
    11  H   -0.031971   0.000211  -0.000364   0.000351   0.551172  -0.038390
    12  H   -0.031980   0.000218  -0.000364   0.000351  -0.038390   0.551164
    13  H    0.413091   0.000763   0.000013   0.000004  -0.004329  -0.004331
    14  H    0.422167  -0.002540  -0.000059   0.000003   0.007656  -0.007728
    15  H    0.422154  -0.002533  -0.000059   0.000003  -0.007731   0.007656
    16  H   -0.001577   0.450750  -0.026834  -0.000156  -0.000226  -0.000226
              13         14         15         16
     1  Cl  -0.000000   0.000001   0.000001  -0.000335
     2  C    0.000006  -0.000085  -0.000085   0.006972
     3  N    0.000012  -0.000005  -0.000005  -0.001820
     4  C   -0.000369  -0.000266  -0.000267   0.000965
     5  C    0.010969   0.000237   0.000220  -0.084827
     6  C   -0.042890  -0.046216  -0.046195   0.000490
     7  C    0.413091   0.422167   0.422154  -0.001577
     8  C    0.000763  -0.002540  -0.002533   0.450750
     9  N    0.000013  -0.000059  -0.000059  -0.026834
    10  H    0.000004   0.000003   0.000003  -0.000156
    11  H   -0.004329   0.007656  -0.007731  -0.000226
    12  H   -0.004331  -0.007728   0.007656  -0.000226
    13  H    0.507080  -0.018411  -0.018413   0.000599
    14  H   -0.018411   0.526460  -0.037845  -0.003437
    15  H   -0.018413  -0.037845   0.526474  -0.003438
    16  H    0.000599  -0.003437  -0.003438   0.491695
 Mulliken charges:
               1
     1  Cl  -0.052571
     2  C    0.180805
     3  N   -0.214597
     4  C   -0.042882
     5  C    0.024128
     6  C   -0.264678
     7  C   -0.493324
     8  C   -0.047313
     9  N   -0.213225
    10  H    0.160858
    11  H    0.157530
    12  H    0.157527
    13  H    0.156206
    14  H    0.160069
    15  H    0.160061
    16  H    0.171405
 Sum of Mulliken charges =   0.00000
 Mulliken charges with hydrogens summed into heavy atoms:
               1
     1  Cl  -0.052571
     2  C    0.180805
     3  N   -0.214597
     4  C    0.117976
     5  C    0.024128
     6  C    0.050378
     7  C   -0.016988
     8  C    0.124092
     9  N   -0.213225
 Electronic spatial extent (au):  <R**2>=           1749.0531
 Charge=             -0.0000 electrons
 Dipole moment (field-independent basis, Debye):
    X=              4.7513    Y=              0.5874    Z=             -0.0001  Tot=              4.7874
 Quadrupole moment (field-independent basis, Debye-Ang):
   XX=            -57.9134   YY=            -61.0661   ZZ=            -60.2893
   XY=              1.0200   XZ=             -0.0001   YZ=             -0.0000
 Traceless Quadrupole moment (field-independent basis, Debye-Ang):
   XX=              1.8429   YY=             -1.3099   ZZ=             -0.5330
   XY=              1.0200   XZ=             -0.0001   YZ=             -0.0000
 Octapole moment (field-independent basis, Debye-Ang**2):
  XXX=              8.4791  YYY=              3.9434  ZZZ=              0.0003  XYY=              9.6336
  XXY=             -1.3434  XXZ=              0.0008  XZZ=             -3.4756  YZZ=             -0.2754
  YYZ=              0.0005  XYZ=              0.0006
 Hexadecapole moment (field-independent basis, Debye-Ang**3):
 XXXX=          -1823.1474 YYYY=           -341.6775 ZZZZ=            -77.7483 XXXY=             19.6177
 XXXZ=             -0.0064 YYYX=              7.8231 YYYZ=              0.0012 ZZZX=             -0.0014
 ZZZY=             -0.0007 XXYY=           -385.4955 XXZZ=           -332.3059 YYZZ=            -70.9808
 XXYZ=             -0.0002 YYXZ=             -0.0010 ZZXY=              1.6325
 N-N= 4.816827739173D+02 E-N=-2.853121469941D+03  KE= 8.002677335095D+02
 Unable to Open any file for archive entry.
 1\1\GINC-COMPUTE-0-28\SP\RM062X\def2TZVP\C6H7Cl1N2\ZTAN64\14-Aug-2024\
 0\\# M062X/def2tzvp int=(grid=ultrafine) nmr=giao guess=read geom=chec
 k\\pyrmd3.xyz\\0,1\Cl,0,4.3427125361,0.9567684087,-0.6937708984\C,0,2.
 6714629268,0.583032783,-0.323112409\N,0,2.3214220522,0.690570762,0.954
 8239867\C,0,1.0450724893,0.4026067738,1.2203995783\C,0,0.1193765638,0.
 012984635,0.2447900178\C,0,-1.313127552,-0.2995388635,0.6120118418\C,0
 ,-2.2142583038,-0.7118522165,-0.552538253\C,0,0.6353956699,-0.05442710
 77,-1.0508442383\N,0,1.9116290466,0.2285232986,-1.3486388534\H,0,0.744
 9035866,0.4867674804,2.2644702635\H,0,-1.3106918018,-1.0939442365,1.36
 95368022\H,0,-1.7419924027,0.5791452811,1.110921366\H,0,-3.2257683313,
 -0.9169947249,-0.1929950134\H,0,-2.2833448545,0.0781666817,-1.30701168
 23\H,0,-1.8462551243,-1.6175711822,-1.0448546209\H,0,0.0113634991,-0.3
 45337773,-1.8912878876\\Version=ES64L-G16RevC.01\State=1-A\HF=-802.531
 8457\RMSD=1.911e-09\Dipole=-1.7967826,-0.4018244,0.3971964\Quadrupole=
 1.179737,-0.3733791,-0.8063579,0.2666122,-0.9037527,-0.2964624\PG=C01 
 [X(C6H7Cl1N2)]\\@
 The archive entry for this job was punched.


 HO!  SUCH BUGS AND GOBLINS IN MY LIFE!

                            -- HAMLET, ACT 5, SCENE 2
 Job cpu time:       0 days  0 hours 13 minutes 54.8 seconds.
 Elapsed time:       0 days  0 hours  0 minutes 55.7 seconds.
 File lengths (MBytes):  RWF=     65 Int=      0 D2E=      0 Chk=     11 Scr=      1
 Normal termination of Gaussian 16 at Wed Aug 14 20:28:55 2024.
 
 
-----Kestrel cluster job statistics-----
Time info:

real	4m57.224s
user	77m21.598s
sys	0m11.131s
 
Disk space usage:
11M	/scratch/362992.kestrel.chem.wisc.edu
