 Entering Gaussian System, Link 0=/share/apps/gaussian/g16/g16
 Initial command:
 /share/apps/gaussian/g16/l1.exe "/scratch/362987.kestrel.chem.wisc.edu/Gau-109332.inp" -scrdir="/scratch/362987.kestrel.chem.wisc.edu/"
 Entering Link 1 = /share/apps/gaussian/g16/l1.exe PID=    109333.
  
 Copyright (c) 1988-2019, Gaussian, Inc.  All Rights Reserved.
  
 This is part of the Gaussian(R) 16 program.  It is based on
 the Gaussian(R) 09 system (copyright 2009, Gaussian, Inc.),
 the Gaussian(R) 03 system (copyright 2003, Gaussian, Inc.),
 the Gaussian(R) 98 system (copyright 1998, Gaussian, Inc.),
 the Gaussian(R) 94 system (copyright 1995, Gaussian, Inc.),
 the Gaussian 92(TM) system (copyright 1992, Gaussian, Inc.),
 the Gaussian 90(TM) system (copyright 1990, Gaussian, Inc.),
 the Gaussian 88(TM) system (copyright 1988, Gaussian, Inc.),
 the Gaussian 86(TM) system (copyright 1986, Carnegie Mellon
 University), and the Gaussian 82(TM) system (copyright 1983,
 Carnegie Mellon University). Gaussian is a federally registered
 trademark of Gaussian, Inc.
  
 This software contains proprietary and confidential information,
 including trade secrets, belonging to Gaussian, Inc.
  
 This software is provided under written license and may be
 used, copied, transmitted, or stored only in accord with that
 written license.
  
 The following legend is applicable only to US Government
 contracts under FAR:
  
                    RESTRICTED RIGHTS LEGEND
  
 Use, reproduction and disclosure by the US Government is
 subject to restrictions as set forth in subparagraphs (a)
 and (c) of the Commercial Computer Software - Restricted
 Rights clause in FAR 52.227-19.
  
 Gaussian, Inc.
 340 Quinnipiac St., Bldg. 40, Wallingford CT 06492
  
  
 ---------------------------------------------------------------
 Warning -- This program may not be used in any manner that
 competes with the business of Gaussian, Inc. or will provide
 assistance to any competitor of Gaussian, Inc.  The licensee
 of this program is prohibited from giving any competitor of
 Gaussian, Inc. access to this program.  By using this program,
 the user acknowledges that Gaussian, Inc. is engaged in the
 business of creating and licensing software in the field of
 computational chemistry and represents and warrants to the
 licensee that it is not a competitor of Gaussian, Inc. and that
 it will not use this program in any manner prohibited above.
 ---------------------------------------------------------------
  

 Cite this work as:
 Gaussian 16, Revision C.01,
 M. J. Frisch, G. W. Trucks, H. B. Schlegel, G. E. Scuseria, 
 M. A. Robb, J. R. Cheeseman, G. Scalmani, V. Barone, 
 G. A. Petersson, H. Nakatsuji, X. Li, M. Caricato, A. V. Marenich, 
 J. Bloino, B. G. Janesko, R. Gomperts, B. Mennucci, H. P. Hratchian, 
 J. V. Ortiz, A. F. Izmaylov, J. L. Sonnenberg, D. Williams-Young, 
 F. Ding, F. Lipparini, F. Egidi, J. Goings, B. Peng, A. Petrone, 
 T. Henderson, D. Ranasinghe, V. G. Zakrzewski, J. Gao, N. Rega, 
 G. Zheng, W. Liang, M. Hada, M. Ehara, K. Toyota, R. Fukuda, 
 J. Hasegawa, M. Ishida, T. Nakajima, Y. Honda, O. Kitao, H. Nakai, 
 T. Vreven, K. Throssell, J. A. Montgomery, Jr., J. E. Peralta, 
 F. Ogliaro, M. J. Bearpark, J. J. Heyd, E. N. Brothers, K. N. Kudin, 
 V. N. Staroverov, T. A. Keith, R. Kobayashi, J. Normand, 
 K. Raghavachari, A. P. Rendell, J. C. Burant, S. S. Iyengar, 
 J. Tomasi, M. Cossi, J. M. Millam, M. Klene, C. Adamo, R. Cammi, 
 J. W. Ochterski, R. L. Martin, K. Morokuma, O. Farkas, 
 J. B. Foresman, and D. J. Fox, Gaussian, Inc., Wallingford CT, 2019.
 
 ******************************************
 Gaussian 16:  ES64L-G16RevC.01  3-Jul-2019
                14-Aug-2024 
 ******************************************
 %nprocs=16
 Will use up to   16 processors via shared memory.
 %mem=16GB
 %chk=pyrmd1_conf-3.chk
 ----------------------------------------------------------------------
 # B3LYP/6-31G(d,p) symmetry=loose empiricaldispersion=GD3BJ int=(grid=
 ultrafine) opt freq=noraman
 ----------------------------------------------------------------------
 1/18=20,19=15,26=4,38=1/1,3;
 2/9=110,12=2,17=4,18=3,40=1/2;
 3/5=1,6=6,7=101,11=2,25=1,30=1,71=1,74=-5,75=-5,124=41/1,2,3;
 4//1;
 5/5=2,38=5/2;
 6/7=2,8=2,9=2,10=2,28=1/1;
 7//1,2,3,16;
 1/18=20,19=15,26=4/3(2);
 2/9=110/2;
 99//99;
 2/9=110/2;
 3/5=1,6=6,7=101,11=2,25=1,30=1,71=1,74=-5,75=-5,124=41/1,2,3;
 4/5=5,16=3,69=1/1;
 5/5=2,38=5/2;
 7//1,2,3,16;
 1/18=20,19=15,26=4/3(-5);
 2/9=110/2;
 6/7=2,8=2,9=2,10=2,19=2,28=1/1;
 99/9=1/99;
 ----------
 pyrmd1.xyz
 ----------
 Symbolic Z-matrix:
 Charge =  0 Multiplicity = 1
 N                    -4.3368    1.4669   -0.2407 
 C                    -3.0183    1.115    -0.0788 
 N                    -2.6037    0.0113   -0.7276 
 C                    -1.2988   -0.3349   -0.5665 
 C                    -0.9256   -1.6066   -1.3132 
 C                    -0.4103    0.4233    0.2336 
 C                     1.0425    0.1475    0.4834 
 O                     1.5693   -0.813    -0.3008 
 C                     2.9407   -1.1638   -0.191 
 C                     3.2357   -2.282    -1.1932 
 O                     1.7092    0.7803    1.3055 
 C                    -0.9762    1.5465    0.8594 
 N                    -2.276     1.9087    0.7137 
 H                    -4.9124    0.8888   -0.8273 
 H                    -4.6675    2.2872    0.2366 
 H                    -0.4893   -2.3329   -0.6286 
 H                    -1.7892   -2.0786   -1.7834 
 H                    -0.2035   -1.3822   -2.0974 
 H                     3.1644   -1.4967    0.8246 
 H                     3.5688   -0.2948   -0.3971 
 H                     2.6248   -3.1617   -0.9895 
 H                     3.0296   -1.9574   -2.2133 
 H                     4.2821   -2.5819   -1.1423 
 H                    -0.3845    2.1904    1.4985 
 

 GradGradGradGradGradGradGradGradGradGradGradGradGradGradGradGradGradGrad
 Berny optimization.
 Initialization pass.
                           ----------------------------
                           !    Initial Parameters    !
                           ! (Angstroms and Degrees)  !
 --------------------------                            --------------------------
 ! Name  Definition              Value          Derivative Info.                !
 --------------------------------------------------------------------------------
 ! R1    R(1,2)                  1.3742         estimate D2E/DX2                !
 ! R2    R(1,14)                 1.0048         estimate D2E/DX2                !
 ! R3    R(1,15)                 1.005          estimate D2E/DX2                !
 ! R4    R(2,3)                  1.3457         estimate D2E/DX2                !
 ! R5    R(2,13)                 1.345          estimate D2E/DX2                !
 ! R6    R(3,4)                  1.3596         estimate D2E/DX2                !
 ! R7    R(4,5)                  1.5212         estimate D2E/DX2                !
 ! R8    R(4,6)                  1.4158         estimate D2E/DX2                !
 ! R9    R(5,16)                 1.0893         estimate D2E/DX2                !
 ! R10   R(5,17)                 1.0907         estimate D2E/DX2                !
 ! R11   R(5,18)                 1.0894         estimate D2E/DX2                !
 ! R12   R(6,7)                  1.4997         estimate D2E/DX2                !
 ! R13   R(6,12)                 1.4048         estimate D2E/DX2                !
 ! R14   R(7,8)                  1.3472         estimate D2E/DX2                !
 ! R15   R(7,11)                 1.2332         estimate D2E/DX2                !
 ! R16   R(8,9)                  1.4198         estimate D2E/DX2                !
 ! R17   R(9,10)                 1.5303         estimate D2E/DX2                !
 ! R18   R(9,19)                 1.0919         estimate D2E/DX2                !
 ! R19   R(9,20)                 1.0919         estimate D2E/DX2                !
 ! R20   R(10,21)                1.0902         estimate D2E/DX2                !
 ! R21   R(10,22)                1.0902         estimate D2E/DX2                !
 ! R22   R(10,23)                1.0897         estimate D2E/DX2                !
 ! R23   R(12,13)                1.3572         estimate D2E/DX2                !
 ! R24   R(12,24)                1.0831         estimate D2E/DX2                !
 ! A1    A(2,1,14)             118.1041         estimate D2E/DX2                !
 ! A2    A(2,1,15)             117.9539         estimate D2E/DX2                !
 ! A3    A(14,1,15)            123.942          estimate D2E/DX2                !
 ! A4    A(1,2,3)              116.6675         estimate D2E/DX2                !
 ! A5    A(1,2,13)             116.6041         estimate D2E/DX2                !
 ! A6    A(3,2,13)             126.7283         estimate D2E/DX2                !
 ! A7    A(2,3,4)              116.5767         estimate D2E/DX2                !
 ! A8    A(3,4,5)              112.9646         estimate D2E/DX2                !
 ! A9    A(3,4,6)              122.202          estimate D2E/DX2                !
 ! A10   A(5,4,6)              124.8292         estimate D2E/DX2                !
 ! A11   A(4,5,16)             110.3144         estimate D2E/DX2                !
 ! A12   A(4,5,17)             112.2794         estimate D2E/DX2                !
 ! A13   A(4,5,18)             110.1065         estimate D2E/DX2                !
 ! A14   A(16,5,17)            107.4293         estimate D2E/DX2                !
 ! A15   A(16,5,18)            108.9212         estimate D2E/DX2                !
 ! A16   A(17,5,18)            107.6765         estimate D2E/DX2                !
 ! A17   A(4,6,7)              127.1271         estimate D2E/DX2                !
 ! A18   A(4,6,12)             115.2854         estimate D2E/DX2                !
 ! A19   A(7,6,12)             117.5858         estimate D2E/DX2                !
 ! A20   A(6,7,8)              114.3904         estimate D2E/DX2                !
 ! A21   A(6,7,11)             122.7105         estimate D2E/DX2                !
 ! A22   A(8,7,11)             122.8525         estimate D2E/DX2                !
 ! A23   A(7,8,9)              120.5857         estimate D2E/DX2                !
 ! A24   A(8,9,10)             108.4269         estimate D2E/DX2                !
 ! A25   A(8,9,19)             110.1902         estimate D2E/DX2                !
 ! A26   A(8,9,20)             110.1453         estimate D2E/DX2                !
 ! A27   A(10,9,19)            110.2954         estimate D2E/DX2                !
 ! A28   A(10,9,20)            110.307          estimate D2E/DX2                !
 ! A29   A(19,9,20)            107.4793         estimate D2E/DX2                !
 ! A30   A(9,10,21)            111.0528         estimate D2E/DX2                !
 ! A31   A(9,10,22)            111.0267         estimate D2E/DX2                !
 ! A32   A(9,10,23)            110.8313         estimate D2E/DX2                !
 ! A33   A(21,10,22)           108.0086         estimate D2E/DX2                !
 ! A34   A(21,10,23)           107.8954         estimate D2E/DX2                !
 ! A35   A(22,10,23)           107.8901         estimate D2E/DX2                !
 ! A36   A(6,12,13)            123.4608         estimate D2E/DX2                !
 ! A37   A(6,12,24)            121.2053         estimate D2E/DX2                !
 ! A38   A(13,12,24)           115.3336         estimate D2E/DX2                !
 ! A39   A(2,13,12)            115.743          estimate D2E/DX2                !
 ! D1    D(14,1,2,3)            -0.0175         estimate D2E/DX2                !
 ! D2    D(14,1,2,13)         -179.9228         estimate D2E/DX2                !
 ! D3    D(15,1,2,3)           179.8923         estimate D2E/DX2                !
 ! D4    D(15,1,2,13)           -0.013          estimate D2E/DX2                !
 ! D5    D(1,2,3,4)            179.978          estimate D2E/DX2                !
 ! D6    D(13,2,3,4)            -0.1277         estimate D2E/DX2                !
 ! D7    D(1,2,13,12)         -179.8854         estimate D2E/DX2                !
 ! D8    D(3,2,13,12)            0.2203         estimate D2E/DX2                !
 ! D9    D(2,3,4,5)            178.9208         estimate D2E/DX2                !
 ! D10   D(2,3,4,6)             -0.3689         estimate D2E/DX2                !
 ! D11   D(3,4,5,16)          -124.8333         estimate D2E/DX2                !
 ! D12   D(3,4,5,17)            -5.0424         estimate D2E/DX2                !
 ! D13   D(3,4,5,18)           114.9192         estimate D2E/DX2                !
 ! D14   D(6,4,5,16)            54.4345         estimate D2E/DX2                !
 ! D15   D(6,4,5,17)           174.2254         estimate D2E/DX2                !
 ! D16   D(6,4,5,18)           -65.813          estimate D2E/DX2                !
 ! D17   D(3,4,6,7)           -179.7818         estimate D2E/DX2                !
 ! D18   D(3,4,6,12)             0.7094         estimate D2E/DX2                !
 ! D19   D(5,4,6,7)              1.0149         estimate D2E/DX2                !
 ! D20   D(5,4,6,12)          -178.4939         estimate D2E/DX2                !
 ! D21   D(4,6,7,8)             10.2245         estimate D2E/DX2                !
 ! D22   D(4,6,7,11)          -172.1962         estimate D2E/DX2                !
 ! D23   D(12,6,7,8)          -170.2766         estimate D2E/DX2                !
 ! D24   D(12,6,7,11)            7.3027         estimate D2E/DX2                !
 ! D25   D(4,6,12,13)           -0.6175         estimate D2E/DX2                !
 ! D26   D(4,6,12,24)          179.6061         estimate D2E/DX2                !
 ! D27   D(7,6,12,13)          179.8244         estimate D2E/DX2                !
 ! D28   D(7,6,12,24)            0.0479         estimate D2E/DX2                !
 ! D29   D(6,7,8,9)            178.9156         estimate D2E/DX2                !
 ! D30   D(11,7,8,9)             1.3402         estimate D2E/DX2                !
 ! D31   D(7,8,9,10)           179.5191         estimate D2E/DX2                !
 ! D32   D(7,8,9,19)            58.7178         estimate D2E/DX2                !
 ! D33   D(7,8,9,20)           -59.6925         estimate D2E/DX2                !
 ! D34   D(8,9,10,21)          -60.1286         estimate D2E/DX2                !
 ! D35   D(8,9,10,22)           60.0613         estimate D2E/DX2                !
 ! D36   D(8,9,10,23)          179.9544         estimate D2E/DX2                !
 ! D37   D(19,9,10,21)          60.6076         estimate D2E/DX2                !
 ! D38   D(19,9,10,22)        -179.2025         estimate D2E/DX2                !
 ! D39   D(19,9,10,23)         -59.3094         estimate D2E/DX2                !
 ! D40   D(20,9,10,21)         179.1832         estimate D2E/DX2                !
 ! D41   D(20,9,10,22)         -60.6269         estimate D2E/DX2                !
 ! D42   D(20,9,10,23)          59.2662         estimate D2E/DX2                !
 ! D43   D(6,12,13,2)            0.1849         estimate D2E/DX2                !
 ! D44   D(24,12,13,2)         179.9734         estimate D2E/DX2                !
 --------------------------------------------------------------------------------
 Trust Radius=3.00D-01 FncErr=1.00D-07 GrdErr=1.00D-06 EigMax=2.50D+02 EigMin=1.00D-04
 Number of steps in this run=    117 maximum allowed number of steps=    144.
 GradGradGradGradGradGradGradGradGradGradGradGradGradGradGradGradGradGrad

                          Input orientation:                          
 ---------------------------------------------------------------------
 Center     Atomic      Atomic             Coordinates (Angstroms)
 Number     Number       Type             X           Y           Z
 ---------------------------------------------------------------------
      1          7           0       -4.336800    1.466900   -0.240700
      2          6           0       -3.018300    1.115000   -0.078800
      3          7           0       -2.603700    0.011300   -0.727600
      4          6           0       -1.298800   -0.334900   -0.566500
      5          6           0       -0.925600   -1.606600   -1.313200
      6          6           0       -0.410300    0.423300    0.233600
      7          6           0        1.042500    0.147500    0.483400
      8          8           0        1.569300   -0.813000   -0.300800
      9          6           0        2.940700   -1.163800   -0.191000
     10          6           0        3.235700   -2.282000   -1.193200
     11          8           0        1.709200    0.780300    1.305500
     12          6           0       -0.976200    1.546500    0.859400
     13          7           0       -2.276000    1.908700    0.713700
     14          1           0       -4.912400    0.888800   -0.827300
     15          1           0       -4.667500    2.287200    0.236600
     16          1           0       -0.489300   -2.332900   -0.628600
     17          1           0       -1.789200   -2.078600   -1.783400
     18          1           0       -0.203500   -1.382200   -2.097400
     19          1           0        3.164400   -1.496700    0.824600
     20          1           0        3.568800   -0.294800   -0.397100
     21          1           0        2.624800   -3.161700   -0.989500
     22          1           0        3.029600   -1.957400   -2.213300
     23          1           0        4.282100   -2.581900   -1.142300
     24          1           0       -0.384500    2.190400    1.498500
 ---------------------------------------------------------------------
                    Distance matrix (angstroms):
                    1          2          3          4          5
     1  N    0.000000
     2  C    1.374222   0.000000
     3  N    2.315055   1.345730   0.000000
     4  C    3.547122   2.301465   1.359622   0.000000
     5  C    4.715182   3.648321   2.403445   1.521203   0.000000
     6  C    4.090411   2.716193   2.429949   1.415789   2.603578
     7  C    5.585876   4.212152   3.844457   2.610878   3.190307
     8  O    6.331159   4.981219   4.274992   2.919790   2.807006
     9  C    7.738544   6.380846   5.692905   4.336062   4.050146
    10  C    8.503191   7.203750   6.290835   4.974499   4.217462
    11  O    6.278238   4.937364   4.829696   3.714313   4.415547
    12  C    3.536974   2.288358   2.743021   2.382630   3.829464
    13  N    2.313647   1.345000   2.405174   2.761806   4.276592
    14  H    1.004796   2.049154   2.471850   3.824077   4.728392
    15  H    1.005022   2.047777   3.220042   4.343791   5.618307
    16  H    5.421458   4.311164   3.158443   2.156653   1.089287
    17  H    4.630417   3.823013   2.479074   2.182161   1.090723
    18  H    5.352464   4.270112   3.095021   2.154106   1.089382
    19  H    8.135465   6.772214   6.160712   4.817166   4.616315
    20  H    8.101022   6.743793   6.188916   4.870712   4.770712
    21  H    8.393361   7.138916   6.121579   4.854314   3.889532
    22  H    8.359475   7.111457   6.149565   4.907087   4.071468
    23  H    9.565098   8.251905   7.369593   6.043757   5.300996
    24  H    4.378235   3.252885   3.824768   3.387818   4.755592
                    6          7          8          9         10
     6  C    0.000000
     7  C    1.499698   0.000000
     8  O    2.394334   1.347237   0.000000
     9  C    3.732073   2.403640   1.419808   0.000000
    10  C    4.758962   3.677443   2.393998   1.530294   0.000000
    11  O    2.401812   1.233196   2.266799   2.745110   4.236908
    12  C    1.404794   2.484699   3.659628   4.877619   6.050676
    13  N    2.432642   3.763948   4.819045   6.121495   7.181718
    14  H    4.648774   6.142336   6.722035   8.141819   8.750965
    15  H    4.647352   6.102731   6.985536   8.365223   9.240264
    16  H    2.888991   3.120151   2.579803   3.650094   3.767889
    17  H    3.497021   4.255870   3.883216   5.073909   5.063529
    18  H    2.955699   3.248542   2.587389   3.683484   3.668149
    19  H    4.100507   2.705969   2.068409   1.091928   2.166402
    20  H    4.092272   2.711660   2.067802   1.091855   2.166494
    21  H    4.853868   3.952709   2.665479   2.174626   1.090213
    22  H    4.846438   3.956180   2.664542   2.174259   1.090159
    23  H    5.739595   4.537349   3.346104   2.171482   1.089717
    24  H    2.173311   2.690761   4.009392   5.016176   6.352437
                   11         12         13         14         15
    11  O    0.000000
    12  C    2.827975   0.000000
    13  N    4.183937   1.357165   0.000000
    14  H    6.957456   4.332574   3.219547   0.000000
    15  H    6.638946   3.816047   2.467825   1.774086   0.000000
    16  H    4.273893   4.183415   4.794292   5.475641   6.288978
    17  H    5.472971   4.559245   4.729804   4.412932   5.605820
    18  H    4.462573   4.232850   4.798704   5.379994   6.232122
    19  H    2.744741   5.138759   6.419268   8.582196   8.717930
    20  H    2.740949   5.062233   6.344366   8.574190   8.654764
    21  H    4.652388   6.209088   7.254494   8.558168   9.185394
    22  H    4.649775   6.145342   7.187729   8.549691   9.124910
    23  H    4.890391   6.978553   8.162040   9.832793  10.281286
    24  H    2.531642   1.083127   2.067133   5.254083   4.466078
                   16         17         18         19         20
    16  H    0.000000
    17  H    1.757263   0.000000
    18  H    1.772819   1.760117   0.000000
    19  H    4.020018   5.628359   4.460263   0.000000
    20  H    4.547045   5.814803   4.278283   1.760867   0.000000
    21  H    3.242650   4.613760   3.520418   2.520784   3.075905
    22  H    3.877490   4.839456   3.285913   3.075590   2.520626
    23  H    4.805429   6.125766   4.740475   2.509105   2.508973
    24  H    4.999578   5.564927   5.072152   5.161738   5.039653
                   21         22         23         24
    21  H    0.000000
    22  H    1.764054   0.000000
    23  H    1.762430   1.762327   0.000000
    24  H    6.625029   6.529761   7.178149   0.000000
 Stoichiometry    C8H11N3O2
 Framework group  C1[X(C8H11N3O2)]
 Deg. of freedom    66
 Full point group                 C1      NOp   1
 Largest Abelian subgroup         C1      NOp   1
 Largest concise Abelian subgroup C1      NOp   1
                         Standard orientation:                         
 ---------------------------------------------------------------------
 Center     Atomic      Atomic             Coordinates (Angstroms)
 Number     Number       Type             X           Y           Z
 ---------------------------------------------------------------------
      1          7           0       -4.252875    0.447028    0.107051
      2          6           0       -2.915860    0.133727    0.054878
      3          7           0       -2.056513    1.165882   -0.029781
      4          6           0       -0.734169    0.853833   -0.080824
      5          6           0        0.160363    2.078282   -0.201639
      6          6           0       -0.272520   -0.483944   -0.039681
      7          6           0        1.151644   -0.951821   -0.083766
      8          8           0        2.064285    0.030631    0.046325
      9          6           0        3.452318   -0.268065    0.046092
     10          6           0        4.229013    1.041823    0.196888
     11          8           0        1.459359   -2.141829   -0.183594
     12          6           0       -1.276671   -1.462979    0.041664
     13          7           0       -2.601667   -1.173540    0.091756
     14          1           0       -4.513115    1.417155    0.079797
     15          1           0       -4.911903   -0.309234    0.168841
     16          1           0        0.809570    1.987976   -1.071652
     17          1           0       -0.412606    2.999348   -0.315752
     18          1           0        0.777285    2.180850    0.690348
     19          1           0        3.730041   -0.768142   -0.884016
     20          1           0        3.691033   -0.946841    0.867326
     21          1           0        4.010451    1.723601   -0.625289
     22          1           0        3.970973    1.544467    1.129203
     23          1           0        5.302953    0.857142    0.202266
     24          1           0       -1.031154   -2.517470    0.072234
 ---------------------------------------------------------------------
 Rotational constants (GHZ):           1.8776428           0.4377806           0.3585957
 Standard basis: 6-31G(d,p) (6D, 7F)
 There are   250 symmetry adapted cartesian basis functions of A   symmetry.
 There are   250 symmetry adapted basis functions of A   symmetry.
   250 basis functions,   441 primitive gaussians,   250 cartesian basis functions
    48 alpha electrons       48 beta electrons
       nuclear repulsion energy       782.0373642713 Hartrees.
 NAtoms=   24 NActive=   24 NUniq=   24 SFac= 1.00D+00 NAtFMM=   60 NAOKFM=F Big=F
 Integral buffers will be    131072 words long.
 Raffenetti 2 integral format.
 Two-electron integral symmetry is turned on.
 Nuclear repulsion after empirical dispersion term =      781.9962248900 Hartrees.
 One-electron integrals computed using PRISM.
 NBasis=   250 RedAO= T EigKep=  9.72D-04  NBF=   250
 NBsUse=   250 1.00D-06 EigRej= -1.00D+00 NBFU=   250
 ExpMin= 1.61D-01 ExpMax= 5.48D+03 ExpMxC= 8.25D+02 IAcc=3 IRadAn=         5 AccDes= 0.00D+00
 Harris functional with IExCor=  402 and IRadAn=       5 diagonalized for initial guess.
 HarFok:  IExCor=  402 AccDes= 0.00D+00 IRadAn=         5 IDoV= 1 UseB2=F ITyADJ=14
 ICtDFT=  3500011 ScaDFX=  1.000000  1.000000  1.000000  1.000000
 FoFCou: FMM=F IPFlag=           0 FMFlag=      100000 FMFlg1=           0
         NFxFlg=           0 DoJE=T BraDBF=F KetDBF=T FulRan=T
         wScrn=  0.000000 ICntrl=       500 IOpCl=  0 I1Cent=   200000004 NGrid=           0
         NMat0=    1 NMatS0=      1 NMatT0=    0 NMatD0=    1 NMtDS0=    0 NMtDT0=    0
 Petite list used in FoFCou.
 Requested convergence on RMS density matrix=1.00D-08 within 128 cycles.
 Requested convergence on MAX density matrix=1.00D-06.
 Requested convergence on             energy=1.00D-06.
 No special actions if energy rises.
 Integral accuracy reduced to 1.0D-05 until final iterations.
 Initial convergence to 1.0D-05 achieved.  Increase integral accuracy.
 SCF Done:  E(RB3LYP) =  -626.268895682     A.U. after   15 cycles
            NFock= 15  Conv=0.37D-08     -V/T= 2.0097

 **********************************************************************

            Population analysis using the SCF Density.

 **********************************************************************

 Orbital symmetries:
       Occupied  (A) (A) (A) (A) (A) (A) (A) (A) (A) (A) (A) (A)
                 (A) (A) (A) (A) (A) (A) (A) (A) (A) (A) (A) (A)
                 (A) (A) (A) (A) (A) (A) (A) (A) (A) (A) (A) (A)
                 (A) (A) (A) (A) (A) (A) (A) (A) (A) (A) (A) (A)
       Virtual   (A) (A) (A) (A) (A) (A) (A) (A) (A) (A) (A) (A)
                 (A) (A) (A) (A) (A) (A) (A) (A) (A) (A) (A) (A)
                 (A) (A) (A) (A) (A) (A) (A) (A) (A) (A) (A) (A)
                 (A) (A) (A) (A) (A) (A) (A) (A) (A) (A) (A) (A)
                 (A) (A) (A) (A) (A) (A) (A) (A) (A) (A) (A) (A)
                 (A) (A) (A) (A) (A) (A) (A) (A) (A) (A) (A) (A)
                 (A) (A) (A) (A) (A) (A) (A) (A) (A) (A) (A) (A)
                 (A) (A) (A) (A) (A) (A) (A) (A) (A) (A) (A) (A)
                 (A) (A) (A) (A) (A) (A) (A) (A) (A) (A) (A) (A)
                 (A) (A) (A) (A) (A) (A) (A) (A) (A) (A) (A) (A)
                 (A) (A) (A) (A) (A) (A) (A) (A) (A) (A) (A) (A)
                 (A) (A) (A) (A) (A) (A) (A) (A) (A) (A) (A) (A)
                 (A) (A) (A) (A) (A) (A) (A) (A) (A) (A) (A) (A)
                 (A) (A) (A) (A) (A) (A) (A) (A) (A) (A) (A) (A)
                 (A) (A) (A) (A) (A) (A) (A) (A) (A) (A) (A) (A)
                 (A) (A) (A) (A) (A) (A) (A) (A) (A) (A) (A) (A)
                 (A) (A) (A) (A) (A) (A) (A) (A) (A) (A)
 The electronic state is 1-A.
 Alpha  occ. eigenvalues --  -19.19329 -19.12898 -14.35650 -14.33019 -14.32990
 Alpha  occ. eigenvalues --  -10.32025 -10.29288 -10.25542 -10.24789 -10.24093
 Alpha  occ. eigenvalues --  -10.20677 -10.18925 -10.18259  -1.10123  -1.00488
 Alpha  occ. eigenvalues --   -0.99515  -0.90209  -0.88250  -0.80054  -0.77058
 Alpha  occ. eigenvalues --   -0.72740  -0.67461  -0.63771  -0.62651  -0.57608
 Alpha  occ. eigenvalues --   -0.55239  -0.52415  -0.51440  -0.49548  -0.49007
 Alpha  occ. eigenvalues --   -0.45790  -0.44646  -0.42821  -0.41741  -0.40936
 Alpha  occ. eigenvalues --   -0.40655  -0.40198  -0.38959  -0.38079  -0.36690
 Alpha  occ. eigenvalues --   -0.34254  -0.32100  -0.31781  -0.29938  -0.29636
 Alpha  occ. eigenvalues --   -0.26832  -0.24794  -0.23285
 Alpha virt. eigenvalues --   -0.03708  -0.03419   0.05373   0.08719   0.09117
 Alpha virt. eigenvalues --    0.12501   0.13177   0.13677   0.13756   0.14830
 Alpha virt. eigenvalues --    0.15029   0.15793   0.16976   0.17546   0.19022
 Alpha virt. eigenvalues --    0.20702   0.21559   0.22789   0.23778   0.25215
 Alpha virt. eigenvalues --    0.26849   0.30011   0.32894   0.34391   0.36359
 Alpha virt. eigenvalues --    0.40612   0.42773   0.47191   0.49913   0.51532
 Alpha virt. eigenvalues --    0.52736   0.53125   0.54567   0.54593   0.55100
 Alpha virt. eigenvalues --    0.55960   0.56998   0.59276   0.60147   0.61470
 Alpha virt. eigenvalues --    0.61814   0.63720   0.64532   0.64950   0.65411
 Alpha virt. eigenvalues --    0.67306   0.67520   0.69215   0.73084   0.75251
 Alpha virt. eigenvalues --    0.75623   0.77336   0.79003   0.79396   0.79455
 Alpha virt. eigenvalues --    0.82350   0.83636   0.84411   0.85357   0.85585
 Alpha virt. eigenvalues --    0.86038   0.88135   0.89585   0.90202   0.90787
 Alpha virt. eigenvalues --    0.92442   0.93727   0.95524   0.96104   0.97798
 Alpha virt. eigenvalues --    0.98450   1.00721   1.02704   1.03891   1.09503
 Alpha virt. eigenvalues --    1.10254   1.11277   1.15890   1.21868   1.23460
 Alpha virt. eigenvalues --    1.24031   1.27618   1.28435   1.29475   1.32692
 Alpha virt. eigenvalues --    1.32902   1.34284   1.36776   1.40489   1.40959
 Alpha virt. eigenvalues --    1.43201   1.43368   1.46693   1.47793   1.50263
 Alpha virt. eigenvalues --    1.50678   1.56256   1.61970   1.64309   1.64679
 Alpha virt. eigenvalues --    1.65973   1.66973   1.70620   1.73737   1.75378
 Alpha virt. eigenvalues --    1.77495   1.79155   1.81736   1.84237   1.85521
 Alpha virt. eigenvalues --    1.87197   1.87908   1.90321   1.92341   1.94641
 Alpha virt. eigenvalues --    1.98405   1.98878   2.01346   2.02224   2.03175
 Alpha virt. eigenvalues --    2.03889   2.04149   2.04871   2.05473   2.06351
 Alpha virt. eigenvalues --    2.06646   2.07153   2.09090   2.09378   2.09849
 Alpha virt. eigenvalues --    2.14564   2.16948   2.18000   2.20223   2.22441
 Alpha virt. eigenvalues --    2.25324   2.28683   2.29006   2.30633   2.32609
 Alpha virt. eigenvalues --    2.34078   2.39186   2.40858   2.41763   2.43663
 Alpha virt. eigenvalues --    2.46357   2.48667   2.49840   2.52984   2.53427
 Alpha virt. eigenvalues --    2.57541   2.58520   2.61008   2.62107   2.63385
 Alpha virt. eigenvalues --    2.63461   2.64659   2.70664   2.70884   2.71638
 Alpha virt. eigenvalues --    2.73998   2.74202   2.75736   2.78260   2.79340
 Alpha virt. eigenvalues --    2.83251   2.86570   2.87428   2.87884   2.88831
 Alpha virt. eigenvalues --    2.91105   2.94223   2.99395   3.02136   3.07776
 Alpha virt. eigenvalues --    3.16108   3.18084   3.21639   3.24130   3.28969
 Alpha virt. eigenvalues --    3.30024   3.37866   3.43280   3.44202   3.46385
 Alpha virt. eigenvalues --    3.47957   3.52147   3.56419   3.60566   4.00775
 Alpha virt. eigenvalues --    4.02920   4.07183   4.14474   4.18767   4.26984
 Alpha virt. eigenvalues --    4.31357   4.38103   4.42318   4.47307   4.54122
 Alpha virt. eigenvalues --    4.63766   4.70646
          Condensed to atoms (all electrons):
               1          2          3          4          5          6
     1  N    6.829574   0.318808  -0.100009   0.001646  -0.000223   0.001833
     2  C    0.318808   4.340947   0.432393  -0.054797   0.005439  -0.026315
     3  N   -0.100009   0.432393   6.923062   0.469002  -0.085661  -0.024672
     4  C    0.001646  -0.054797   0.469002   4.724049   0.382597   0.405692
     5  C   -0.000223   0.005439  -0.085661   0.382597   5.033722  -0.080774
     6  C    0.001833  -0.026315  -0.024672   0.405692  -0.080774   5.226717
     7  C    0.000012   0.001303   0.004038  -0.027066  -0.008969   0.312690
     8  O   -0.000000  -0.000010  -0.000004  -0.004446  -0.004693  -0.075209
     9  C    0.000000   0.000000   0.000002  -0.000108   0.000030   0.006269
    10  C    0.000000   0.000000   0.000000  -0.000003  -0.000173  -0.000129
    11  O   -0.000000  -0.000010  -0.000030   0.002568   0.000041  -0.082107
    12  C    0.001848  -0.062885  -0.039442  -0.048512   0.005750   0.432607
    13  N   -0.101897   0.441042  -0.078545  -0.036188  -0.000165  -0.025903
    14  H    0.337649  -0.017846   0.007134   0.000304  -0.000060   0.000015
    15  H    0.336066  -0.015870   0.005025  -0.000097   0.000006  -0.000020
    16  H    0.000003  -0.000198   0.002121  -0.024725   0.370803  -0.001069
    17  H   -0.000041   0.000641   0.004766  -0.022198   0.358957   0.004869
    18  H    0.000003  -0.000179   0.001228  -0.023339   0.370566  -0.000547
    19  H    0.000000   0.000000   0.000000  -0.000015   0.000015   0.000058
    20  H    0.000000  -0.000000   0.000000  -0.000014   0.000012  -0.000150
    21  H    0.000000  -0.000000  -0.000000  -0.000009   0.000055  -0.000012
    22  H   -0.000000   0.000000  -0.000000  -0.000005  -0.000039  -0.000016
    23  H    0.000000   0.000000   0.000000  -0.000000   0.000005   0.000005
    24  H   -0.000146   0.004141  -0.000254   0.004030  -0.000116  -0.057800
               7          8          9         10         11         12
     1  N    0.000012  -0.000000   0.000000   0.000000  -0.000000   0.001848
     2  C    0.001303  -0.000010   0.000000   0.000000  -0.000010  -0.062885
     3  N    0.004038  -0.000004   0.000002   0.000000  -0.000030  -0.039442
     4  C   -0.027066  -0.004446  -0.000108  -0.000003   0.002568  -0.048512
     5  C   -0.008969  -0.004693   0.000030  -0.000173   0.000041   0.005750
     6  C    0.312690  -0.075209   0.006269  -0.000129  -0.082107   0.432607
     7  C    4.409393   0.241153  -0.012201   0.004071   0.533690  -0.040034
     8  O    0.241153   8.301031   0.201275  -0.044545  -0.082501   0.003373
     9  C   -0.012201   0.201275   4.686212   0.372847   0.004485  -0.000122
    10  C    0.004071  -0.044545   0.372847   4.953352   0.000614  -0.000001
    11  O    0.533690  -0.082501   0.004485   0.000614   8.101616   0.002453
    12  C   -0.040034   0.003373  -0.000122  -0.000001   0.002453   4.809582
    13  N    0.004389  -0.000021   0.000000  -0.000000   0.000370   0.440387
    14  H   -0.000001   0.000000  -0.000000   0.000000   0.000000  -0.000158
    15  H   -0.000001   0.000000  -0.000000  -0.000000   0.000000   0.000238
    16  H    0.001196   0.002857   0.000069  -0.000001  -0.000010  -0.000011
    17  H    0.000094   0.000535  -0.000018   0.000002   0.000001  -0.000143
    18  H    0.000755   0.002941  -0.000169   0.000215   0.000008  -0.000088
    19  H   -0.003767  -0.033979   0.385100  -0.041422   0.005051  -0.000001
    20  H   -0.003850  -0.034031   0.384909  -0.041313   0.005381   0.000019
    21  H   -0.000074   0.000785  -0.029645   0.382757  -0.000007   0.000000
    22  H   -0.000043   0.000915  -0.029691   0.382684  -0.000007   0.000000
    23  H   -0.000017   0.002739  -0.028169   0.374849   0.000012  -0.000000
    24  H   -0.003356   0.000221  -0.000006  -0.000000   0.013132   0.385098
              13         14         15         16         17         18
     1  N   -0.101897   0.337649   0.336066   0.000003  -0.000041   0.000003
     2  C    0.441042  -0.017846  -0.015870  -0.000198   0.000641  -0.000179
     3  N   -0.078545   0.007134   0.005025   0.002121   0.004766   0.001228
     4  C   -0.036188   0.000304  -0.000097  -0.024725  -0.022198  -0.023339
     5  C   -0.000165  -0.000060   0.000006   0.370803   0.358957   0.370566
     6  C   -0.025903   0.000015  -0.000020  -0.001069   0.004869  -0.000547
     7  C    0.004389  -0.000001  -0.000001   0.001196   0.000094   0.000755
     8  O   -0.000021   0.000000   0.000000   0.002857   0.000535   0.002941
     9  C    0.000000  -0.000000  -0.000000   0.000069  -0.000018  -0.000169
    10  C   -0.000000   0.000000  -0.000000  -0.000001   0.000002   0.000215
    11  O    0.000370   0.000000   0.000000  -0.000010   0.000001   0.000008
    12  C    0.440387  -0.000158   0.000238  -0.000011  -0.000143  -0.000088
    13  N    6.880106   0.005120   0.007156   0.000020   0.000044   0.000016
    14  H    0.005120   0.406690  -0.022164   0.000001   0.000035   0.000001
    15  H    0.007156  -0.022164   0.404795  -0.000000   0.000000  -0.000000
    16  H    0.000020   0.000001  -0.000000   0.577036  -0.028805  -0.026316
    17  H    0.000044   0.000035   0.000000  -0.028805   0.585321  -0.027305
    18  H    0.000016   0.000001  -0.000000  -0.026316  -0.027305   0.567852
    19  H   -0.000000  -0.000000  -0.000000  -0.000094   0.000001   0.000043
    20  H    0.000000  -0.000000   0.000000   0.000031   0.000001  -0.000041
    21  H    0.000000   0.000000  -0.000000   0.000661   0.000007  -0.000057
    22  H    0.000000   0.000000   0.000000  -0.000065   0.000002   0.000622
    23  H    0.000000  -0.000000  -0.000000   0.000001   0.000000   0.000002
    24  H   -0.045313   0.000005  -0.000028   0.000000   0.000002   0.000001
              19         20         21         22         23         24
     1  N    0.000000   0.000000   0.000000  -0.000000   0.000000  -0.000146
     2  C    0.000000  -0.000000  -0.000000   0.000000   0.000000   0.004141
     3  N    0.000000   0.000000  -0.000000  -0.000000   0.000000  -0.000254
     4  C   -0.000015  -0.000014  -0.000009  -0.000005  -0.000000   0.004030
     5  C    0.000015   0.000012   0.000055  -0.000039   0.000005  -0.000116
     6  C    0.000058  -0.000150  -0.000012  -0.000016   0.000005  -0.057800
     7  C   -0.003767  -0.003850  -0.000074  -0.000043  -0.000017  -0.003356
     8  O   -0.033979  -0.034031   0.000785   0.000915   0.002739   0.000221
     9  C    0.385100   0.384909  -0.029645  -0.029691  -0.028169  -0.000006
    10  C   -0.041422  -0.041313   0.382757   0.382684   0.374849  -0.000000
    11  O    0.005051   0.005381  -0.000007  -0.000007   0.000012   0.013132
    12  C   -0.000001   0.000019   0.000000   0.000000  -0.000000   0.385098
    13  N   -0.000000   0.000000   0.000000   0.000000   0.000000  -0.045313
    14  H   -0.000000  -0.000000   0.000000   0.000000  -0.000000   0.000005
    15  H   -0.000000   0.000000  -0.000000   0.000000  -0.000000  -0.000028
    16  H   -0.000094   0.000031   0.000661  -0.000065   0.000001   0.000000
    17  H    0.000001   0.000001   0.000007   0.000002   0.000000   0.000002
    18  H    0.000043  -0.000041  -0.000057   0.000622   0.000002   0.000001
    19  H    0.617352  -0.046214  -0.006252   0.005281  -0.000308  -0.000002
    20  H   -0.046214   0.616970   0.005249  -0.006259  -0.000270  -0.000002
    21  H   -0.006252   0.005249   0.586463  -0.032472  -0.028495   0.000000
    22  H    0.005281  -0.006259  -0.032472   0.586236  -0.028497   0.000000
    23  H   -0.000308  -0.000270  -0.028495  -0.028497   0.593484  -0.000000
    24  H   -0.000002  -0.000002   0.000000   0.000000  -0.000000   0.562458
 Mulliken charges:
               1
     1  N   -0.625128
     2  C    0.633395
     3  N   -0.520153
     4  C    0.251635
     5  C   -0.347124
     6  C   -0.016033
     7  C    0.586595
     8  O   -0.478387
     9  C    0.058928
    10  C   -0.343803
    11  O   -0.504750
    12  C    0.110039
    13  N   -0.490618
    14  H    0.283273
    15  H    0.284893
    16  H    0.126496
    17  H    0.123232
    18  H    0.133788
    19  H    0.119153
    20  H    0.119571
    21  H    0.121048
    22  H    0.121353
    23  H    0.114661
    24  H    0.137935
 Sum of Mulliken charges =  -0.00000
 Mulliken charges with hydrogens summed into heavy atoms:
               1
     1  N   -0.056962
     2  C    0.633395
     3  N   -0.520153
     4  C    0.251635
     5  C    0.036392
     6  C   -0.016033
     7  C    0.586595
     8  O   -0.478387
     9  C    0.297652
    10  C    0.013260
    11  O   -0.504750
    12  C    0.247974
    13  N   -0.490618
 Electronic spatial extent (au):  <R**2>=           2994.7938
 Charge=             -0.0000 electrons
 Dipole moment (field-independent basis, Debye):
    X=             -0.0114    Y=              2.6457    Z=              0.2287  Tot=              2.6556
 Quadrupole moment (field-independent basis, Debye-Ang):
   XX=            -54.5343   YY=            -81.1854   ZZ=            -75.3827
   XY=              1.1826   XZ=             -0.0079   YZ=             -0.7971
 Traceless Quadrupole moment (field-independent basis, Debye-Ang):
   XX=             15.8332   YY=            -10.8180   ZZ=             -5.0152
   XY=              1.1826   XZ=             -0.0079   YZ=             -0.7971
 Octapole moment (field-independent basis, Debye-Ang**2):
  XXX=            -44.1795  YYY=             13.1621  ZZZ=             -0.4175  XYY=             -7.6086
  XXY=             20.2340  XXZ=              4.3444  XZZ=              8.0674  YZZ=             -1.5274
  YYZ=              1.7566  XYZ=             -1.6520
 Hexadecapole moment (field-independent basis, Debye-Ang**3):
 XXXX=          -2294.2272 YYYY=           -774.1189 ZZZZ=            -95.9069 XXXY=            -88.0802
 XXXZ=            -15.7702 YYYX=              1.9047 YYYZ=             -4.4715 ZZZX=             -0.6871
 ZZZY=              1.7399 XXYY=           -637.5879 XXZZ=           -533.0395 YYZZ=           -140.9267
 XXYZ=              0.0352 YYXZ=              2.6161 ZZXY=             -3.1247
 N-N= 7.819962248900D+02 E-N=-3.023136931360D+03  KE= 6.202310154272D+02
 Calling FoFJK, ICntrl=      2127 FMM=F ISym2X=0 I1Cent= 0 IOpClX= 0 NMat=1 NMatS=1 NMatT=0.
 ***** Axes restored to original set *****
 -------------------------------------------------------------------
 Center     Atomic                   Forces (Hartrees/Bohr)
 Number     Number              X              Y              Z
 -------------------------------------------------------------------
      1        7           0.022214952   -0.005910810    0.002600469
      2        6          -0.013144514    0.003558525   -0.002124852
      3        7           0.021310082   -0.002566204    0.005392920
      4        6          -0.022383681   -0.009486249   -0.012769088
      5        6          -0.000098502    0.004074805    0.003810750
      6        6           0.003775410   -0.002896215   -0.000019741
      7        6           0.009913676    0.019276126    0.015772024
      8        8          -0.018043017   -0.003266612   -0.007448878
      9        6           0.015011173   -0.005744972   -0.000265042
     10        6          -0.005861379    0.004364011    0.002420476
     11        8          -0.012192988   -0.013704977   -0.015560972
     12        6          -0.028634272    0.004344028   -0.005783945
     13        7           0.025930321   -0.002938480    0.006069225
     14        1          -0.002598528    0.001867286    0.000569112
     15        1          -0.002939782   -0.000456177   -0.001239111
     16        1           0.005455786   -0.000309919   -0.000030931
     17        1          -0.004490989    0.006417493    0.002539683
     18        1           0.004933149   -0.001091630    0.000755481
     19        1          -0.001293688    0.001311951    0.003073091
     20        1          -0.000658916    0.003483311    0.000905542
     21        1          -0.001858767   -0.001545458    0.000970742
     22        1          -0.000886279    0.001400196   -0.002076737
     23        1           0.002858762    0.001096954    0.002002956
     24        1           0.003681989   -0.001276982    0.000436828
 -------------------------------------------------------------------
 Cartesian Forces:  Max     0.028634272 RMS     0.009000822

 GradGradGradGradGradGradGradGradGradGradGradGradGradGradGradGradGradGrad
 Berny optimization.
 FormGI is forming the generalized inverse of G from B-inverse, IUseBI=4.
 Internal  Forces:  Max     0.029381380 RMS     0.005981020
 Search for a local minimum.
 Step number   1 out of a maximum of  117
 All quantities printed in internal units (Hartrees-Bohrs-Radians)
 Mixed Optimization -- RFO/linear search
 Second derivative matrix not updated -- first step.
 ITU=  0
     Eigenvalues ---    0.00365   0.00485   0.00770   0.01319   0.01325
     Eigenvalues ---    0.01430   0.01557   0.01966   0.02033   0.02033
     Eigenvalues ---    0.02096   0.02205   0.02244   0.02390   0.02390
     Eigenvalues ---    0.05236   0.05513   0.05543   0.05837   0.07002
     Eigenvalues ---    0.07186   0.11226   0.13683   0.16000   0.16000
     Eigenvalues ---    0.16000   0.16000   0.16000   0.16000   0.16000
     Eigenvalues ---    0.16000   0.16000   0.21963   0.23292   0.24989
     Eigenvalues ---    0.24998   0.24999   0.24999   0.25000   0.25000
     Eigenvalues ---    0.25000   0.25000   0.29396   0.30251   0.32409
     Eigenvalues ---    0.34591   0.34599   0.34729   0.34788   0.34794
     Eigenvalues ---    0.34845   0.34884   0.34895   0.35619   0.41600
     Eigenvalues ---    0.42489   0.43482   0.46816   0.46855   0.50174
     Eigenvalues ---    0.50321   0.53287   0.53537   0.55613   0.55738
     Eigenvalues ---    0.89767
 RFO step:  Lambda=-1.03868104D-02 EMin= 3.65210133D-03
 Linear search not attempted -- first point.
 Iteration  1 RMS(Cart)=  0.07683831 RMS(Int)=  0.00153869
 Iteration  2 RMS(Cart)=  0.00318553 RMS(Int)=  0.00019127
 Iteration  3 RMS(Cart)=  0.00000321 RMS(Int)=  0.00019126
 Iteration  4 RMS(Cart)=  0.00000000 RMS(Int)=  0.00019126
 Variable       Old X    -DE/DX   Delta X   Delta X   Delta X     New X
                                 (Linear)    (Quad)   (Total)
    R1        2.59690  -0.01738   0.00000  -0.03394  -0.03394   2.56297
    R2        1.89879   0.00008   0.00000   0.00017   0.00017   1.89896
    R3        1.89922   0.00001   0.00000   0.00001   0.00001   1.89923
    R4        2.54306   0.00215   0.00000   0.00449   0.00445   2.54751
    R5        2.54168   0.00136   0.00000   0.00269   0.00266   2.54434
    R6        2.56931  -0.02229   0.00000  -0.04076  -0.04076   2.52855
    R7        2.87466  -0.00965   0.00000  -0.03084  -0.03084   2.84382
    R8        2.67545  -0.00377   0.00000  -0.00886  -0.00883   2.66663
    R9        2.05845   0.00237   0.00000   0.00660   0.00660   2.06506
   R10        2.06117  -0.00032   0.00000  -0.00088  -0.00088   2.06028
   R11        2.05863   0.00250   0.00000   0.00696   0.00696   2.06560
   R12        2.83402  -0.01387   0.00000  -0.04145  -0.04145   2.79256
   R13        2.65468  -0.00420   0.00000  -0.01004  -0.01001   2.64467
   R14        2.54591  -0.00474   0.00000  -0.00836  -0.00836   2.53755
   R15        2.33040  -0.02400   0.00000  -0.02643  -0.02643   2.30398
   R16        2.68305   0.00653   0.00000   0.01499   0.01499   2.69804
   R17        2.89184  -0.00717   0.00000  -0.02354  -0.02354   2.86829
   R18        2.06345   0.00219   0.00000   0.00616   0.00616   2.06960
   R19        2.06331   0.00222   0.00000   0.00624   0.00624   2.06954
   R20        2.06020   0.00247   0.00000   0.00689   0.00689   2.06710
   R21        2.06010   0.00253   0.00000   0.00705   0.00705   2.06716
   R22        2.05927   0.00254   0.00000   0.00707   0.00707   2.06634
   R23        2.56467  -0.02938   0.00000  -0.05432  -0.05432   2.51035
   R24        2.04681   0.00151   0.00000   0.00412   0.00412   2.05093
    A1        2.06130   0.00207   0.00000   0.01216   0.01216   2.07346
    A2        2.05868   0.00202   0.00000   0.01188   0.01188   2.07056
    A3        2.16320  -0.00410   0.00000  -0.02404  -0.02404   2.13915
    A4        2.03623  -0.00174   0.00000  -0.00755  -0.00752   2.02871
    A5        2.03513  -0.00150   0.00000  -0.00664  -0.00661   2.02852
    A6        2.21183   0.00323   0.00000   0.01419   0.01413   2.22595
    A7        2.03465   0.00068   0.00000   0.00604   0.00599   2.04064
    A8        1.97160   0.00939   0.00000   0.03602   0.03600   2.00760
    A9        2.13283  -0.00733   0.00000  -0.02799  -0.02796   2.10486
   A10        2.17868  -0.00206   0.00000  -0.00794  -0.00797   2.17071
   A11        1.92535   0.00267   0.00000   0.01504   0.01516   1.94051
   A12        1.95964  -0.01149   0.00000  -0.06418  -0.06400   1.89564
   A13        1.92172   0.00255   0.00000   0.01240   0.01245   1.93417
   A14        1.87500   0.00552   0.00000   0.03729   0.03753   1.91253
   A15        1.90103  -0.00397   0.00000  -0.02966  -0.02966   1.87138
   A16        1.87931   0.00489   0.00000   0.03003   0.03013   1.90944
   A17        2.21879  -0.00011   0.00000   0.00085   0.00081   2.21959
   A18        2.01211   0.00662   0.00000   0.02289   0.02297   2.03508
   A19        2.05226  -0.00651   0.00000  -0.02373  -0.02377   2.02849
   A20        1.99649  -0.00312   0.00000  -0.01104  -0.01199   1.98450
   A21        2.14170   0.00307   0.00000   0.01268   0.01172   2.15342
   A22        2.14418   0.00012   0.00000   0.00141   0.00046   2.14465
   A23        2.10462  -0.02115   0.00000  -0.08121  -0.08121   2.02340
   A24        1.89241  -0.00406   0.00000  -0.01989  -0.01975   1.87265
   A25        1.92318  -0.00047   0.00000  -0.01248  -0.01233   1.91085
   A26        1.92240  -0.00058   0.00000  -0.01380  -0.01365   1.90875
   A27        1.92502   0.00330   0.00000   0.02378   0.02350   1.94851
   A28        1.92522   0.00335   0.00000   0.02380   0.02350   1.94872
   A29        1.87587  -0.00145   0.00000  -0.00103  -0.00165   1.87422
   A30        1.93824  -0.00034   0.00000  -0.00139  -0.00142   1.93682
   A31        1.93778  -0.00032   0.00000  -0.00129  -0.00131   1.93647
   A32        1.93437  -0.00348   0.00000  -0.02162  -0.02167   1.91270
   A33        1.88511   0.00066   0.00000   0.00609   0.00610   1.89120
   A34        1.88313   0.00186   0.00000   0.00978   0.00973   1.89285
   A35        1.88304   0.00184   0.00000   0.00969   0.00964   1.89268
   A36        2.15480   0.00251   0.00000   0.00778   0.00782   2.16261
   A37        2.11543  -0.00496   0.00000  -0.02560  -0.02562   2.08981
   A38        2.01295   0.00244   0.00000   0.01783   0.01781   2.03076
   A39        2.02010  -0.00571   0.00000  -0.02292  -0.02296   1.99713
    D1       -0.00031   0.00002   0.00000   0.00047   0.00047   0.00017
    D2       -3.14024   0.00006   0.00000   0.00195   0.00195  -3.13830
    D3        3.13971  -0.00002   0.00000  -0.00063  -0.00062   3.13909
    D4       -0.00023   0.00003   0.00000   0.00085   0.00085   0.00062
    D5        3.14121  -0.00012   0.00000  -0.00369  -0.00373   3.13748
    D6       -0.00223  -0.00017   0.00000  -0.00537  -0.00542  -0.00765
    D7       -3.13959   0.00005   0.00000   0.00116   0.00111  -3.13848
    D8        0.00384   0.00010   0.00000   0.00284   0.00281   0.00665
    D9        3.12276   0.00031   0.00000   0.01140   0.01141   3.13417
   D10       -0.00644   0.00016   0.00000   0.00419   0.00418  -0.00226
   D11       -2.17875  -0.00096   0.00000  -0.01293  -0.01290  -2.19165
   D12       -0.08801   0.00027   0.00000   0.00216   0.00205  -0.08596
   D13        2.00572   0.00062   0.00000   0.00638   0.00628   2.01200
   D14        0.95006  -0.00085   0.00000  -0.00565  -0.00550   0.94456
   D15        3.04081   0.00038   0.00000   0.00944   0.00944   3.05025
   D16       -1.14865   0.00074   0.00000   0.01366   0.01368  -1.13497
   D17       -3.13779  -0.00004   0.00000  -0.00014  -0.00019  -3.13797
   D18        0.01238  -0.00003   0.00000  -0.00075  -0.00080   0.01158
   D19        0.01771  -0.00029   0.00000  -0.00852  -0.00843   0.00929
   D20       -3.11531  -0.00027   0.00000  -0.00912  -0.00904  -3.12434
   D21        0.17845  -0.00130   0.00000  -0.05961  -0.05969   0.11876
   D22       -3.00539   0.00054   0.00000   0.01929   0.01938  -2.98601
   D23       -2.97189  -0.00125   0.00000  -0.05879  -0.05888  -3.03076
   D24        0.12746   0.00058   0.00000   0.02011   0.02019   0.14765
   D25       -0.01078  -0.00010   0.00000  -0.00218  -0.00216  -0.01293
   D26        3.13472  -0.00013   0.00000  -0.00336  -0.00335   3.13137
   D27        3.13853  -0.00012   0.00000  -0.00283  -0.00280   3.13573
   D28        0.00084  -0.00014   0.00000  -0.00401  -0.00399  -0.00316
   D29        3.12267   0.00102   0.00000   0.04136   0.04115  -3.11936
   D30        0.02339  -0.00090   0.00000  -0.03797  -0.03777  -0.01438
   D31        3.13320  -0.00002   0.00000  -0.00045  -0.00046   3.13274
   D32        1.02482  -0.00124   0.00000  -0.00957  -0.00960   1.01522
   D33       -1.04183   0.00120   0.00000   0.00790   0.00794  -1.03389
   D34       -1.04944  -0.00024   0.00000  -0.00386  -0.00384  -1.05328
   D35        1.04827   0.00015   0.00000   0.00205   0.00203   1.05030
   D36        3.14080  -0.00004   0.00000  -0.00091  -0.00092   3.13988
   D37        1.05780  -0.00135   0.00000  -0.01723  -0.01742   1.04039
   D38       -3.12767  -0.00097   0.00000  -0.01132  -0.01154  -3.13922
   D39       -1.03514  -0.00116   0.00000  -0.01428  -0.01449  -1.04964
   D40        3.12734   0.00100   0.00000   0.01113   0.01135   3.13869
   D41       -1.05814   0.00138   0.00000   0.01703   0.01723  -1.04091
   D42        1.03439   0.00119   0.00000   0.01407   0.01427   1.04867
   D43        0.00323   0.00002   0.00000   0.00110   0.00108   0.00431
   D44        3.14113   0.00003   0.00000   0.00213   0.00215  -3.13990
         Item               Value     Threshold  Converged?
 Maximum Force            0.029381     0.000450     NO 
 RMS     Force            0.005981     0.000300     NO 
 Maximum Displacement     0.263694     0.001800     NO 
 RMS     Displacement     0.077819     0.001200     NO 
 Predicted change in Energy=-5.440385D-03
 GradGradGradGradGradGradGradGradGradGradGradGradGradGradGradGradGradGrad

                          Input orientation:                          
 ---------------------------------------------------------------------
 Center     Atomic      Atomic             Coordinates (Angstroms)
 Number     Number       Type             X           Y           Z
 ---------------------------------------------------------------------
      1          7           0       -4.290811    1.450046   -0.166350
      2          6           0       -2.985737    1.101432   -0.045106
      3          7           0       -2.596911    0.002815   -0.722742
      4          6           0       -1.310795   -0.350783   -0.616667
      5          6           0       -0.925522   -1.588065   -1.381765
      6          6           0       -0.419856    0.408103    0.171733
      7          6           0        1.020073    0.154705    0.386606
      8          8           0        1.512591   -0.837861   -0.371934
      9          6           0        2.894562   -1.142008   -0.181937
     10          6           0        3.237154   -2.287616   -1.116838
     11          8           0        1.693071    0.759670    1.203654
     12          6           0       -0.957469    1.519043    0.831563
     13          7           0       -2.229633    1.890695    0.741138
     14          1           0       -4.891155    0.885903   -0.741786
     15          1           0       -4.620068    2.262277    0.325539
     16          1           0       -0.449007   -2.323607   -0.729015
     17          1           0       -1.824919   -2.018910   -1.822348
     18          1           0       -0.211953   -1.348312   -2.174313
     19          1           0        3.069040   -1.409581    0.865628
     20          1           0        3.495148   -0.251755   -0.396675
     21          1           0        2.633398   -3.171318   -0.890823
     22          1           0        3.061142   -2.007585   -2.159527
     23          1           0        4.292290   -2.550910   -1.002759
     24          1           0       -0.319634    2.133023    1.459326
 ---------------------------------------------------------------------
                    Distance matrix (angstroms):
                    1          2          3          4          5
     1  N    0.000000
     2  C    1.356264   0.000000
     3  N    2.296377   1.348086   0.000000
     4  C    3.510879   2.289332   1.338050   0.000000
     5  C    4.693881   3.642051   2.399740   1.504884   0.000000
     6  C    4.022964   2.666733   2.388286   1.411118   2.579484
     7  C    5.494467   4.138742   3.786330   2.587474   3.154318
     8  O    6.241495   4.909442   4.209252   2.875525   2.743530
     9  C    7.638624   6.295209   5.635545   4.301169   4.028846
    10  C    8.458357   7.166493   6.279944   4.968433   4.229353
    11  O    6.177408   4.854631   4.763168   3.683732   4.365006
    12  C    3.480195   2.248737   2.720768   2.391330   3.814965
    13  N    2.294812   1.346406   2.417008   2.777071   4.278924
    14  H    1.004887   2.040205   2.458407   3.789990   4.717662
    15  H    1.005029   2.038621   3.208929   4.320546   5.602650
    16  H    5.414472   4.316668   3.166350   2.155767   1.092781
    17  H    4.566904   3.773940   2.427443   2.121471   1.090255
    18  H    5.338521   4.269502   3.101714   2.151460   1.093066
    19  H    7.963031   6.617775   6.051511   4.743544   4.586847
    20  H    7.973101   6.629976   6.106088   4.811995   4.722123
    21  H    8.356228   7.109593   6.120417   4.856669   3.926019
    22  H    8.365356   7.120499   6.174109   4.923337   4.083430
    23  H    9.506675   8.199169   7.352620   6.031931   5.319425
    24  H    4.345058   3.230418   3.805942   3.385475   4.720741
                    6          7          8          9         10
     6  C    0.000000
     7  C    1.477761   0.000000
     8  O    2.362700   1.342812   0.000000
     9  C    3.676043   2.349130   1.427743   0.000000
    10  C    4.722397   3.625013   2.372928   1.517836   0.000000
    11  O    2.377587   1.219211   2.251035   2.641936   4.129749
    12  C    1.399497   2.443375   3.620028   4.790253   5.990140
    13  N    2.407819   3.701344   4.763212   6.025507   7.127139
    14  H    4.588608   6.062222   6.641996   8.064939   8.733916
    15  H    4.593843   6.021360   6.907013   8.265371   9.193362
    16  H    2.876531   3.089472   2.486526   3.588165   3.706681
    17  H    3.441068   4.206906   3.825905   5.072811   5.118059
    18  H    2.938052   3.214849   2.546209   3.696290   3.727852
    19  H    3.994730   2.621969   2.069048   1.095186   2.174714
    20  H    4.010706   2.627686   2.067527   1.095155   2.174839
    21  H    4.823240   3.911147   2.640166   2.165369   1.093861
    22  H    4.836080   3.914620   2.638514   2.165141   1.093891
    23  H    5.686784   4.467448   3.325539   2.147650   1.093458
    24  H    2.154830   2.619024   3.941664   4.873462   6.231325
                   11         12         13         14         15
    11  O    0.000000
    12  C    2.782169   0.000000
    13  N    4.108618   1.328421   0.000000
    14  H    6.866783   4.283711   3.208173   0.000000
    15  H    6.548636   3.771350   2.454582   1.762691   0.000000
    16  H    4.222594   4.178504   4.805447   5.480310   6.288097
    17  H    5.408646   4.506976   4.692576   4.359743   5.545705
    18  H    4.413997   4.220523   4.802297   5.379478   6.222306
    19  H    2.590985   4.979034   6.243657   8.439060   8.537952
    20  H    2.613717   4.946726   6.217542   8.470151   8.526352
    21  H    4.552331   6.153083   7.206687   8.549980   9.144193
    22  H    4.565119   6.126416   7.183505   8.580285   9.132812
    23  H    4.752278   6.891243   8.081121   9.808948  10.215736
    24  H    2.449989   1.085307   2.054900   5.224845   4.449259
                   16         17         18         19         20
    16  H    0.000000
    17  H    1.783634   0.000000
    18  H    1.759625   1.781920   0.000000
    19  H    3.969255   5.616702   4.473245   0.000000
    20  H    4.467592   5.784332   4.255001   1.765089   0.000000
    21  H    3.200940   4.698125   3.614792   2.525593   3.083932
    22  H    3.803601   4.897695   3.338864   3.083705   2.525657
    23  H    4.754629   6.194756   4.806973   2.507956   2.507765
    24  H    4.966601   5.502165   5.033351   4.938181   4.866670
                   21         22         23         24
    21  H    0.000000
    22  H    1.773937   0.000000
    23  H    1.774643   1.774554   0.000000
    24  H    6.509964   6.455260   7.019326   0.000000
 Stoichiometry    C8H11N3O2
 Framework group  C1[X(C8H11N3O2)]
 Deg. of freedom    66
 Full point group                 C1      NOp   1
 Largest Abelian subgroup         C1      NOp   1
 Largest concise Abelian subgroup C1      NOp   1
                         Standard orientation:                         
 ---------------------------------------------------------------------
 Center     Atomic      Atomic             Coordinates (Angstroms)
 Number     Number       Type             X           Y           Z
 ---------------------------------------------------------------------
      1          7           0       -4.209346    0.399899    0.062166
      2          6           0       -2.885041    0.108701    0.032648
      3          7           0       -2.044611    1.161083   -0.026556
      4          6           0       -0.734636    0.889558   -0.051385
      5          6           0        0.163916    2.094327   -0.127622
      6          6           0       -0.276765   -0.444676   -0.013591
      7          6           0        1.126410   -0.907954   -0.029453
      8          8           0        2.024279    0.086578    0.059324
      9          6           0        3.396499   -0.305726    0.019843
     10          6           0        4.230340    0.958545    0.120610
     11          8           0        1.445091   -2.078353   -0.152269
     12          6           0       -1.256907   -1.442425    0.035509
     13          7           0       -2.562404   -1.198145    0.062107
     14          1           0       -4.493805    1.363402    0.038886
     15          1           0       -4.868277   -0.357814    0.104169
     16          1           0        0.851904    2.020923   -0.973467
     17          1           0       -0.456056    2.984442   -0.237110
     18          1           0        0.771291    2.183841    0.776744
     19          1           0        3.594947   -0.847321   -0.911138
     20          1           0        3.601838   -0.992315    0.847972
     21          1           0        4.018741    1.634559   -0.712914
     22          1           0        4.025173    1.488987    1.055028
     23          1           0        5.292528    0.700125    0.095576
     24          1           0       -0.961617   -2.486578    0.056435
 ---------------------------------------------------------------------
 Rotational constants (GHZ):           1.9382062           0.4466882           0.3660900
 Standard basis: 6-31G(d,p) (6D, 7F)
 There are   250 symmetry adapted cartesian basis functions of A   symmetry.
 There are   250 symmetry adapted basis functions of A   symmetry.
   250 basis functions,   441 primitive gaussians,   250 cartesian basis functions
    48 alpha electrons       48 beta electrons
       nuclear repulsion energy       789.5074186772 Hartrees.
 NAtoms=   24 NActive=   24 NUniq=   24 SFac= 1.00D+00 NAtFMM=   60 NAOKFM=F Big=F
 Integral buffers will be    131072 words long.
 Raffenetti 2 integral format.
 Two-electron integral symmetry is turned on.
 Nuclear repulsion after empirical dispersion term =      789.4658313153 Hartrees.
 One-electron integrals computed using PRISM.
 NBasis=   250 RedAO= T EigKep=  9.21D-04  NBF=   250
 NBsUse=   250 1.00D-06 EigRej= -1.00D+00 NBFU=   250
 Initial guess from the checkpoint file:  "pyrmd1_conf-3.chk"
 B after Tr=    -0.000000    0.000000    0.000000
         Rot=    0.999998   -0.001777   -0.000201    0.000429 Ang=  -0.21 deg.
 ExpMin= 1.61D-01 ExpMax= 5.48D+03 ExpMxC= 8.25D+02 IAcc=3 IRadAn=         5 AccDes= 0.00D+00
 Harris functional with IExCor=  402 and IRadAn=       5 diagonalized for initial guess.
 HarFok:  IExCor=  402 AccDes= 0.00D+00 IRadAn=         5 IDoV= 1 UseB2=F ITyADJ=14
 ICtDFT=  3500011 ScaDFX=  1.000000  1.000000  1.000000  1.000000
 FoFCou: FMM=F IPFlag=           0 FMFlag=      100000 FMFlg1=           0
         NFxFlg=           0 DoJE=T BraDBF=F KetDBF=T FulRan=T
         wScrn=  0.000000 ICntrl=       500 IOpCl=  0 I1Cent=   200000004 NGrid=           0
         NMat0=    1 NMatS0=      1 NMatT0=    0 NMatD0=    1 NMtDS0=    0 NMtDT0=    0
 Petite list used in FoFCou.
 Requested convergence on RMS density matrix=1.00D-08 within 128 cycles.
 Requested convergence on MAX density matrix=1.00D-06.
 Requested convergence on             energy=1.00D-06.
 No special actions if energy rises.
 Integral accuracy reduced to 1.0D-05 until final iterations.
 Initial convergence to 1.0D-05 achieved.  Increase integral accuracy.
 SCF Done:  E(RB3LYP) =  -626.274102236     A.U. after   12 cycles
            NFock= 12  Conv=0.82D-08     -V/T= 2.0092
 Calling FoFJK, ICntrl=      2127 FMM=F ISym2X=0 I1Cent= 0 IOpClX= 0 NMat=1 NMatS=1 NMatT=0.
 ***** Axes restored to original set *****
 -------------------------------------------------------------------
 Center     Atomic                   Forces (Hartrees/Bohr)
 Number     Number              X              Y              Z
 -------------------------------------------------------------------
      1        7           0.004910527   -0.001593303    0.000059944
      2        6          -0.009850400    0.000322328   -0.002513866
      3        7           0.004258142    0.000086515    0.001942859
      4        6          -0.003759868   -0.001774538   -0.003360342
      5        6          -0.002248571   -0.000842168   -0.000087123
      6        6           0.004773363    0.000487301   -0.000384108
      7        6          -0.004882093    0.002255998    0.009773070
      8        8          -0.003168808   -0.001617418   -0.005194773
      9        6           0.009170557   -0.003704176   -0.000338575
     10        6           0.000035921    0.000643280    0.000404860
     11        8           0.001802943    0.001064831   -0.002568671
     12        6          -0.005630577    0.004112155    0.001183872
     13        7           0.005064101   -0.000523307    0.001257460
     14        1          -0.001500342    0.000825452    0.000191747
     15        1          -0.001605007    0.000010677   -0.000435311
     16        1           0.000768387    0.000747855   -0.000822405
     17        1          -0.000469770    0.000553818   -0.000167084
     18        1           0.000783994   -0.000513401    0.000753453
     19        1          -0.000599414    0.000799463   -0.000143432
     20        1          -0.000585535    0.000055502    0.000530463
     21        1           0.000111642    0.000100294    0.000058156
     22        1           0.000047673    0.000004224    0.000163855
     23        1           0.000286992   -0.000473913   -0.000305025
     24        1           0.002286142   -0.001027470    0.000000979
 -------------------------------------------------------------------
 Cartesian Forces:  Max     0.009850400 RMS     0.002834756

 GradGradGradGradGradGradGradGradGradGradGradGradGradGradGradGradGradGrad
 Berny optimization.
 Using GEDIIS/GDIIS optimizer.
 FormGI is forming the generalized inverse of G from B-inverse, IUseBI=4.
 Internal  Forces:  Max     0.008794453 RMS     0.001747819
 Search for a local minimum.
 Step number   2 out of a maximum of  117
 All quantities printed in internal units (Hartrees-Bohrs-Radians)
 Mixed Optimization -- RFO/linear search
 Update second derivatives using D2CorX and points    1    2
 DE= -5.21D-03 DEPred=-5.44D-03 R= 9.57D-01
 TightC=F SS=  1.41D+00  RLast= 2.17D-01 DXNew= 5.0454D-01 6.4977D-01
 Trust test= 9.57D-01 RLast= 2.17D-01 DXMaxT set to 5.05D-01
 ITU=  1  0
 Use linear search instead of GDIIS.
     Eigenvalues ---    0.00365   0.00485   0.00768   0.01308   0.01428
     Eigenvalues ---    0.01430   0.01564   0.01966   0.02033   0.02033
     Eigenvalues ---    0.02099   0.02204   0.02247   0.02390   0.02390
     Eigenvalues ---    0.05315   0.05539   0.05643   0.05688   0.07097
     Eigenvalues ---    0.07320   0.11119   0.13615   0.14746   0.16000
     Eigenvalues ---    0.16000   0.16000   0.16000   0.16000   0.16000
     Eigenvalues ---    0.16000   0.16231   0.21974   0.22903   0.23738
     Eigenvalues ---    0.24992   0.24999   0.24999   0.25000   0.25000
     Eigenvalues ---    0.25000   0.27331   0.29386   0.30246   0.33118
     Eigenvalues ---    0.34595   0.34625   0.34730   0.34783   0.34793
     Eigenvalues ---    0.34829   0.34883   0.34948   0.35609   0.41380
     Eigenvalues ---    0.42203   0.43647   0.46815   0.46853   0.49454
     Eigenvalues ---    0.50377   0.51899   0.53884   0.55727   0.59489
     Eigenvalues ---    0.89778
 RFO step:  Lambda=-2.02208053D-03 EMin= 3.65209700D-03
 Quartic linear search produced a step of -0.02055.
 Iteration  1 RMS(Cart)=  0.07639966 RMS(Int)=  0.00206996
 Iteration  2 RMS(Cart)=  0.00542860 RMS(Int)=  0.00103265
 Iteration  3 RMS(Cart)=  0.00000530 RMS(Int)=  0.00103265
 Iteration  4 RMS(Cart)=  0.00000002 RMS(Int)=  0.00103265
 Variable       Old X    -DE/DX   Delta X   Delta X   Delta X     New X
                                 (Linear)    (Quad)   (Total)
    R1        2.56297  -0.00192   0.00070  -0.01176  -0.01106   2.55190
    R2        1.89896   0.00032  -0.00000   0.00071   0.00071   1.89967
    R3        1.89923   0.00032  -0.00000   0.00067   0.00067   1.89990
    R4        2.54751   0.00054  -0.00009   0.00192   0.00184   2.54935
    R5        2.54434   0.00394  -0.00005   0.00745   0.00741   2.55174
    R6        2.52855  -0.00091   0.00084  -0.01135  -0.01051   2.51804
    R7        2.84382  -0.00009   0.00063  -0.00759  -0.00695   2.83686
    R8        2.66663   0.00495   0.00018   0.00919   0.00936   2.67599
    R9        2.06506  -0.00066  -0.00014  -0.00028  -0.00042   2.06464
   R10        2.06028   0.00024   0.00002   0.00045   0.00047   2.06076
   R11        2.06560  -0.00015  -0.00014   0.00124   0.00109   2.06669
   R12        2.79256   0.00266   0.00085  -0.00181  -0.00096   2.79161
   R13        2.64467   0.00311   0.00021   0.00450   0.00470   2.64936
   R14        2.53755   0.00777   0.00017   0.01168   0.01185   2.54940
   R15        2.30398  -0.00020   0.00054  -0.00647  -0.00592   2.29805
   R16        2.69804   0.00879  -0.00031   0.02377   0.02346   2.72150
   R17        2.86829  -0.00030   0.00048  -0.00655  -0.00607   2.86222
   R18        2.06960  -0.00043  -0.00013   0.00025   0.00012   2.06972
   R19        2.06954  -0.00038  -0.00013   0.00040   0.00028   2.06982
   R20        2.06710  -0.00013  -0.00014   0.00127   0.00112   2.06822
   R21        2.06716  -0.00016  -0.00014   0.00121   0.00107   2.06822
   R22        2.06634   0.00036  -0.00015   0.00268   0.00253   2.06887
   R23        2.51035  -0.00061   0.00112  -0.01393  -0.01282   2.49753
   R24        2.05093   0.00076  -0.00008   0.00306   0.00298   2.05391
    A1        2.07346   0.00111  -0.00025   0.00960   0.00935   2.08281
    A2        2.07056   0.00099  -0.00024   0.00884   0.00859   2.07916
    A3        2.13915  -0.00210   0.00049  -0.01844  -0.01795   2.12120
    A4        2.02871   0.00141   0.00015   0.00385   0.00400   2.03271
    A5        2.02852   0.00239   0.00014   0.00789   0.00802   2.03653
    A6        2.22595  -0.00380  -0.00029  -0.01173  -0.01201   2.21394
    A7        2.04064   0.00358  -0.00012   0.01494   0.01483   2.05546
    A8        2.00760  -0.00174  -0.00074   0.00176   0.00102   2.00862
    A9        2.10486  -0.00033   0.00057  -0.00794  -0.00737   2.09749
   A10        2.17071   0.00206   0.00016   0.00616   0.00632   2.17703
   A11        1.94051   0.00033  -0.00031   0.00492   0.00462   1.94514
   A12        1.89564  -0.00065   0.00131  -0.01684  -0.01551   1.88014
   A13        1.93417   0.00029  -0.00026   0.00318   0.00293   1.93710
   A14        1.91253   0.00070  -0.00077   0.01618   0.01543   1.92796
   A15        1.87138  -0.00106   0.00061  -0.01764  -0.01702   1.85435
   A16        1.90944   0.00041  -0.00062   0.01091   0.01030   1.91974
   A17        2.21959   0.00352  -0.00002   0.01381   0.01381   2.23340
   A18        2.03508  -0.00232  -0.00047  -0.00339  -0.00388   2.03120
   A19        2.02849  -0.00120   0.00049  -0.01040  -0.00991   2.01858
   A20        1.98450   0.00233   0.00025   0.00830   0.00245   1.98695
   A21        2.15342   0.00066  -0.00024   0.00731   0.00089   2.15431
   A22        2.14465  -0.00287  -0.00001  -0.00889  -0.01497   2.12967
   A23        2.02340   0.00047   0.00167  -0.01741  -0.01574   2.00767
   A24        1.87265   0.00111   0.00041   0.00047   0.00088   1.87354
   A25        1.91085  -0.00096   0.00025  -0.01009  -0.00985   1.90100
   A26        1.90875  -0.00072   0.00028  -0.00793  -0.00767   1.90109
   A27        1.94851   0.00052  -0.00048   0.01077   0.01027   1.95878
   A28        1.94872   0.00030  -0.00048   0.00971   0.00921   1.95793
   A29        1.87422  -0.00032   0.00003  -0.00366  -0.00373   1.87050
   A30        1.93682  -0.00019   0.00003  -0.00176  -0.00173   1.93509
   A31        1.93647  -0.00016   0.00003  -0.00144  -0.00142   1.93505
   A32        1.91270   0.00079   0.00045   0.00007   0.00052   1.91322
   A33        1.89120   0.00009  -0.00013   0.00118   0.00105   1.89226
   A34        1.89285  -0.00029  -0.00020   0.00083   0.00063   1.89348
   A35        1.89268  -0.00026  -0.00020   0.00125   0.00105   1.89373
   A36        2.16261   0.00111  -0.00016   0.00692   0.00674   2.16935
   A37        2.08981  -0.00300   0.00053  -0.02342  -0.02289   2.06692
   A38        2.03076   0.00189  -0.00037   0.01651   0.01615   2.04691
   A39        1.99713   0.00176   0.00047   0.00126   0.00173   1.99887
    D1        0.00017   0.00004  -0.00001   0.00197   0.00196   0.00213
    D2       -3.13830  -0.00001  -0.00004  -0.00008  -0.00013  -3.13843
    D3        3.13909   0.00002   0.00001   0.00073   0.00075   3.13984
    D4        0.00062  -0.00003  -0.00002  -0.00132  -0.00134  -0.00072
    D5        3.13748  -0.00012   0.00008  -0.00581  -0.00574   3.13174
    D6       -0.00765  -0.00004   0.00011  -0.00345  -0.00336  -0.01100
    D7       -3.13848   0.00009  -0.00002   0.00313   0.00309  -3.13539
    D8        0.00665   0.00001  -0.00006   0.00077   0.00071   0.00736
    D9        3.13417   0.00004  -0.00023   0.00322   0.00304   3.13721
   D10       -0.00226   0.00012  -0.00009   0.00696   0.00689   0.00463
   D11       -2.19165  -0.00036   0.00026   0.01054   0.01081  -2.18084
   D12       -0.08596   0.00030  -0.00004   0.02271   0.02266  -0.06330
   D13        2.01200   0.00057  -0.00013   0.02738   0.02725   2.03925
   D14        0.94456  -0.00045   0.00011   0.00659   0.00672   0.95128
   D15        3.05025   0.00021  -0.00019   0.01876   0.01856   3.06881
   D16       -1.13497   0.00048  -0.00028   0.02343   0.02315  -1.11182
   D17       -3.13797  -0.00010   0.00000  -0.00462  -0.00456   3.14065
   D18        0.01158  -0.00015   0.00002  -0.00787  -0.00781   0.00377
   D19        0.00929  -0.00000   0.00017  -0.00050  -0.00029   0.00899
   D20       -3.12434  -0.00005   0.00019  -0.00375  -0.00355  -3.12789
   D21        0.11876   0.00135   0.00123   0.06246   0.06372   0.18248
   D22       -2.98601  -0.00201  -0.00040  -0.13746  -0.13790  -3.12391
   D23       -3.03076   0.00139   0.00121   0.06573   0.06697  -2.96379
   D24        0.14765  -0.00196  -0.00041  -0.13419  -0.13464   0.01300
   D25       -0.01293   0.00012   0.00004   0.00522   0.00528  -0.00765
   D26        3.13137  -0.00001   0.00007  -0.00076  -0.00066   3.13070
   D27        3.13573   0.00005   0.00006   0.00222   0.00233   3.13806
   D28       -0.00316  -0.00008   0.00008  -0.00376  -0.00362  -0.00678
   D29       -3.11936  -0.00167  -0.00085  -0.09779  -0.09764   3.06618
   D30       -0.01438   0.00174   0.00078   0.10138   0.10116   0.08678
   D31        3.13274   0.00004   0.00001  -0.00020  -0.00019   3.13255
   D32        1.01522  -0.00070   0.00020  -0.00765  -0.00741   1.00782
   D33       -1.03389   0.00066  -0.00016   0.00722   0.00701  -1.02688
   D34       -1.05328   0.00010   0.00008  -0.00015  -0.00008  -1.05336
   D35        1.05030  -0.00002  -0.00004  -0.00081  -0.00085   1.04945
   D36        3.13988   0.00007   0.00002  -0.00012  -0.00010   3.13978
   D37        1.04039  -0.00006   0.00036  -0.00590  -0.00556   1.03483
   D38       -3.13922  -0.00018   0.00024  -0.00655  -0.00633   3.13764
   D39       -1.04964  -0.00010   0.00030  -0.00587  -0.00558  -1.05522
   D40        3.13869   0.00010  -0.00023   0.00357   0.00335  -3.14115
   D41       -1.04091  -0.00002  -0.00035   0.00292   0.00258  -1.03833
   D42        1.04867   0.00006  -0.00029   0.00360   0.00333   1.05199
   D43        0.00431  -0.00005  -0.00002  -0.00181  -0.00185   0.00246
   D44       -3.13990   0.00007  -0.00004   0.00393   0.00398  -3.13593
         Item               Value     Threshold  Converged?
 Maximum Force            0.008794     0.000450     NO 
 RMS     Force            0.001748     0.000300     NO 
 Maximum Displacement     0.224482     0.001800     NO 
 RMS     Displacement     0.074101     0.001200     NO 
 Predicted change in Energy=-1.088778D-03
 GradGradGradGradGradGradGradGradGradGradGradGradGradGradGradGradGradGrad

                          Input orientation:                          
 ---------------------------------------------------------------------
 Center     Atomic      Atomic             Coordinates (Angstroms)
 Number     Number       Type             X           Y           Z
 ---------------------------------------------------------------------
      1          7           0       -4.268244    1.513740   -0.206908
      2          6           0       -2.982944    1.126884   -0.058750
      3          7           0       -2.611268    0.010376   -0.718466
      4          6           0       -1.345443   -0.388527   -0.599744
      5          6           0       -0.999055   -1.639727   -1.353487
      6          6           0       -0.439457    0.347270    0.202161
      7          6           0        0.988243    0.063645    0.454175
      8          8           0        1.501718   -0.898153   -0.340378
      9          6           0        2.914869   -1.127548   -0.184061
     10          6           0        3.300353   -2.238381   -1.138806
     11          8           0        1.689530    0.745796    1.176468
     12          6           0       -0.955053    1.482745    0.842796
     13          7           0       -2.205729    1.895828    0.733739
     14          1           0       -4.883032    0.968594   -0.786049
     15          1           0       -4.588563    2.339773    0.268345
     16          1           0       -0.565393   -2.395831   -0.694752
     17          1           0       -1.914135   -2.014330   -1.813383
     18          1           0       -0.248984   -1.438211   -2.123450
     19          1           0        3.118878   -1.388946    0.859790
     20          1           0        3.451393   -0.196241   -0.394995
     21          1           0        2.752189   -3.157470   -0.909401
[...]
 Alpha  occ. eigenvalues --  -10.55582 -10.53877 -10.53489  -1.23071  -1.13524
 Alpha  occ. eigenvalues --   -1.12169  -1.02216  -1.00300  -0.90353  -0.86852
 Alpha  occ. eigenvalues --   -0.82839  -0.76523  -0.72472  -0.71810  -0.66316
 Alpha  occ. eigenvalues --   -0.63913  -0.60957  -0.59609  -0.57901  -0.57112
 Alpha  occ. eigenvalues --   -0.54679  -0.53306  -0.50031  -0.49894  -0.48811
 Alpha  occ. eigenvalues --   -0.48108  -0.46899  -0.46002  -0.45120  -0.43436
 Alpha  occ. eigenvalues --   -0.42052  -0.40283  -0.39719  -0.37561  -0.37150
 Alpha  occ. eigenvalues --   -0.35417  -0.32327  -0.29170
 Alpha virt. eigenvalues --   -0.01132  -0.00317   0.05704   0.06763   0.09065
 Alpha virt. eigenvalues --    0.09538   0.10406   0.11036   0.11576   0.12639
 Alpha virt. eigenvalues --    0.13573   0.14129   0.14708   0.14928   0.15499
 Alpha virt. eigenvalues --    0.17921   0.19055   0.19086   0.19456   0.20684
 Alpha virt. eigenvalues --    0.21646   0.23550   0.24096   0.25664   0.25798
 Alpha virt. eigenvalues --    0.25852   0.26163   0.26448   0.27508   0.27858
 Alpha virt. eigenvalues --    0.29939   0.30189   0.30997   0.32469   0.33335
 Alpha virt. eigenvalues --    0.33773   0.35739   0.36369   0.36832   0.37627
 Alpha virt. eigenvalues --    0.38112   0.39353   0.40074   0.40480   0.41487
 Alpha virt. eigenvalues --    0.42096   0.44437   0.44642   0.44793   0.45843
 Alpha virt. eigenvalues --    0.46102   0.46550   0.46651   0.48179   0.48286
 Alpha virt. eigenvalues --    0.49206   0.50011   0.50438   0.51202   0.51526
 Alpha virt. eigenvalues --    0.51833   0.52434   0.53635   0.54466   0.55188
 Alpha virt. eigenvalues --    0.55732   0.55948   0.57313   0.59337   0.60395
 Alpha virt. eigenvalues --    0.60717   0.62077   0.62616   0.64487   0.65936
 Alpha virt. eigenvalues --    0.66303   0.66623   0.68399   0.68832   0.69076
 Alpha virt. eigenvalues --    0.70256   0.71394   0.72365   0.73333   0.74343
 Alpha virt. eigenvalues --    0.75127   0.75654   0.78241   0.78592   0.80060
 Alpha virt. eigenvalues --    0.80657   0.82122   0.84417   0.85077   0.86457
 Alpha virt. eigenvalues --    0.87926   0.88319   0.90513   0.91240   0.93643
 Alpha virt. eigenvalues --    0.95188   0.95304   0.96318   0.98191   1.00305
 Alpha virt. eigenvalues --    1.01973   1.04073   1.06085   1.06470   1.07099
 Alpha virt. eigenvalues --    1.08249   1.08982   1.11069   1.11792   1.12890
 Alpha virt. eigenvalues --    1.14876   1.16567   1.16612   1.23358   1.26116
 Alpha virt. eigenvalues --    1.27465   1.29499   1.30298   1.31884   1.32933
 Alpha virt. eigenvalues --    1.35460   1.37096   1.38293   1.39291   1.41315
 Alpha virt. eigenvalues --    1.43881   1.43993   1.45779   1.47175   1.47617
 Alpha virt. eigenvalues --    1.50339   1.52103   1.52775   1.53052   1.54156
 Alpha virt. eigenvalues --    1.56421   1.56493   1.58052   1.58119   1.58969
 Alpha virt. eigenvalues --    1.59390   1.59496   1.60682   1.61012   1.62774
 Alpha virt. eigenvalues --    1.63541   1.64171   1.64543   1.65938   1.66353
 Alpha virt. eigenvalues --    1.67178   1.68359   1.69517   1.71488   1.71936
 Alpha virt. eigenvalues --    1.74624   1.75451   1.78796   1.79084   1.81555
 Alpha virt. eigenvalues --    1.82167   1.83099   1.83177   1.84480   1.85602
 Alpha virt. eigenvalues --    1.86878   1.90226   1.91027   1.93156   1.93915
 Alpha virt. eigenvalues --    1.95737   1.96755   1.99621   2.00723   2.03482
 Alpha virt. eigenvalues --    2.03678   2.05719   2.07064   2.08051   2.09434
 Alpha virt. eigenvalues --    2.11202   2.12447   2.13580   2.15518   2.17312
 Alpha virt. eigenvalues --    2.18350   2.20243   2.23039   2.25810   2.26713
 Alpha virt. eigenvalues --    2.27615   2.29531   2.30761   2.32895   2.33295
 Alpha virt. eigenvalues --    2.34169   2.35292   2.35845   2.36529   2.36941
 Alpha virt. eigenvalues --    2.40443   2.40821   2.42299   2.43480   2.43537
 Alpha virt. eigenvalues --    2.44644   2.45542   2.45698   2.48092   2.53977
 Alpha virt. eigenvalues --    2.54031   2.55030   2.55276   2.56661   2.56756
 Alpha virt. eigenvalues --    2.57671   2.58809   2.59293   2.62365   2.64379
 Alpha virt. eigenvalues --    2.67069   2.69289   2.70713   2.72799   2.73796
 Alpha virt. eigenvalues --    2.74305   2.75849   2.78066   2.80527   2.81732
 Alpha virt. eigenvalues --    2.82163   2.83325   2.84067   2.85685   2.87948
 Alpha virt. eigenvalues --    2.90781   2.91832   2.93317   2.95340   2.95960
 Alpha virt. eigenvalues --    2.96558   2.96736   2.98268   2.99116   3.00389
 Alpha virt. eigenvalues --    3.00434   3.02994   3.03680   3.03851   3.05530
 Alpha virt. eigenvalues --    3.07564   3.08876   3.09897   3.10909   3.12536
 Alpha virt. eigenvalues --    3.13313   3.15702   3.16748   3.17115   3.17404
 Alpha virt. eigenvalues --    3.17873   3.19728   3.21257   3.22204   3.22281
 Alpha virt. eigenvalues --    3.24941   3.25240   3.27489   3.27637   3.29544
 Alpha virt. eigenvalues --    3.30142   3.30704   3.31874   3.32070   3.34332
 Alpha virt. eigenvalues --    3.34874   3.35625   3.37003   3.38210   3.39663
 Alpha virt. eigenvalues --    3.39903   3.41562   3.44724   3.45490   3.45559
 Alpha virt. eigenvalues --    3.46951   3.47496   3.48642   3.51326   3.53726
 Alpha virt. eigenvalues --    3.54991   3.55515   3.56917   3.58350   3.60597
 Alpha virt. eigenvalues --    3.66168   3.69894   3.70170   3.71718   3.73881
 Alpha virt. eigenvalues --    3.76622   3.77093   3.77547   3.80631   3.82388
 Alpha virt. eigenvalues --    3.82724   3.85185   3.86908   3.87488   3.88572
 Alpha virt. eigenvalues --    3.92254   3.94275   3.95051   3.96897   3.98216
 Alpha virt. eigenvalues --    4.00958   4.06356   4.08031   4.08162   4.13460
 Alpha virt. eigenvalues --    4.15420   4.18564   4.18718   4.23286   4.24459
 Alpha virt. eigenvalues --    4.25157   4.30780   4.34100   4.34180   4.36413
 Alpha virt. eigenvalues --    4.37587   4.39489   4.40823   4.46376   4.46880
 Alpha virt. eigenvalues --    4.48670   4.53405   4.53966   4.55796   4.59927
 Alpha virt. eigenvalues --    4.64225   4.66363   4.69103   4.69435   4.71982
 Alpha virt. eigenvalues --    4.73390   4.75742   4.77812   4.83691   4.87563
 Alpha virt. eigenvalues --    4.92283   4.94379   4.96082   4.96445   5.00839
 Alpha virt. eigenvalues --    5.02438   5.02916   5.04772   5.05511   5.11126
 Alpha virt. eigenvalues --    5.15232   5.15857   5.18462   5.19378   5.19936
 Alpha virt. eigenvalues --    5.26024   5.31768   5.32088   5.34434   5.34666
 Alpha virt. eigenvalues --    5.39378   5.41804   5.41970   5.43641   5.48302
 Alpha virt. eigenvalues --    5.50637   5.53977   5.57036   5.64927   5.66601
 Alpha virt. eigenvalues --    5.72210   5.75187   5.82931   5.90936   5.94940
 Alpha virt. eigenvalues --    5.96359   6.06904   6.11060   6.14719   6.21782
 Alpha virt. eigenvalues --    6.36157   6.38456   6.42696   6.58125   6.65550
 Alpha virt. eigenvalues --    6.74987   6.76294   6.87649   6.93355   7.07468
 Alpha virt. eigenvalues --    7.13562   7.32920   7.41520  22.40850  22.56580
 Alpha virt. eigenvalues --   22.58925  22.84620  23.02469  23.25332  23.35503
 Alpha virt. eigenvalues --   23.53099  32.08327  32.50167  32.85455  44.08553
 Alpha virt. eigenvalues --   44.42568
          Condensed to atoms (all electrons):
               1          2          3          4          5          6
     1  N    6.582611   0.390870  -0.108911   0.006657   0.000159  -0.003624
     2  C    0.390870   4.476761   0.504384  -0.097936   0.003341  -0.023706
     3  N   -0.108911   0.504384   6.536618   0.590147  -0.054452  -0.102951
     4  C    0.006657  -0.097936   0.590147   5.052759   0.222181   0.295711
     5  C    0.000159   0.003341  -0.054452   0.222181   5.156474  -0.069530
     6  C   -0.003624  -0.023706  -0.102951   0.295711  -0.069530   5.510208
     7  C   -0.000055   0.002688   0.000621  -0.033738  -0.019391   0.353250
     8  O   -0.000001   0.000081   0.000025   0.006660  -0.022906  -0.108721
     9  C   -0.000000   0.000004  -0.000002  -0.001168   0.000230   0.010032
    10  C    0.000000   0.000005   0.000015   0.001216  -0.003298   0.001978
    11  O   -0.000002  -0.000243  -0.000328   0.002921   0.000030  -0.136777
    12  C    0.006495  -0.112122  -0.013223  -0.026857   0.006708   0.445986
    13  N   -0.109562   0.494527  -0.072868  -0.043398  -0.002993  -0.045589
    14  H    0.369535  -0.028451   0.008199   0.000870  -0.000350   0.000782
    15  H    0.368803  -0.027354   0.006104  -0.000908   0.000031   0.000318
    16  H    0.000008  -0.000659   0.000359  -0.049099   0.418416   0.005982
    17  H   -0.000284   0.000975   0.008944  -0.068099   0.423785   0.011316
    18  H    0.000008  -0.000654   0.000346  -0.048946   0.418209   0.006011
    19  H    0.000000   0.000001   0.000002  -0.000096   0.000092  -0.001169
    20  H    0.000000   0.000001   0.000002  -0.000094   0.000095  -0.001198
    21  H   -0.000000  -0.000000   0.000000   0.000046  -0.000114  -0.000372
    22  H   -0.000000  -0.000000   0.000000   0.000045  -0.000112  -0.000368
    23  H    0.000000   0.000000  -0.000000  -0.000033   0.000063   0.000031
    24  H   -0.000013   0.005410  -0.001535   0.004617   0.000040  -0.058672
               7          8          9         10         11         12
     1  N   -0.000055  -0.000001  -0.000000   0.000000  -0.000002   0.006495
     2  C    0.002688   0.000081   0.000004   0.000005  -0.000243  -0.112122
     3  N    0.000621   0.000025  -0.000002   0.000015  -0.000328  -0.013223
     4  C   -0.033738   0.006660  -0.001168   0.001216   0.002921  -0.026857
     5  C   -0.019391  -0.022906   0.000230  -0.003298   0.000030   0.006708
     6  C    0.353250  -0.108721   0.010032   0.001978  -0.136777   0.445986
     7  C    4.453078   0.367426  -0.046323   0.004248   0.646602  -0.072057
     8  O    0.367426   8.027124   0.199777  -0.044644  -0.082208   0.005583
     9  C   -0.046323   0.199777   4.933303   0.272981  -0.001384  -0.000358
    10  C    0.004248  -0.044644   0.272981   5.029955   0.004329  -0.000132
    11  O    0.646602  -0.082208  -0.001384   0.004329   7.895789   0.020425
    12  C   -0.072057   0.005583  -0.000358  -0.000132   0.020425   4.819477
    13  N    0.007289  -0.000226   0.000015  -0.000002   0.000521   0.542397
    14  H   -0.000008   0.000000  -0.000000  -0.000000   0.000000  -0.001130
    15  H   -0.000000   0.000000  -0.000000   0.000000   0.000000   0.001062
    16  H   -0.004736   0.000201   0.000017  -0.000337  -0.000035   0.000549
    17  H    0.000614   0.001874  -0.000086  -0.000021   0.000024  -0.000499
    18  H   -0.004738   0.000221   0.000017  -0.000328  -0.000034   0.000546
    19  H   -0.007026  -0.034858   0.426870  -0.039063   0.004455  -0.000015
    20  H   -0.006956  -0.034814   0.426818  -0.039071   0.004366  -0.000014
    21  H   -0.000032   0.000544  -0.037098   0.409324  -0.000099   0.000005
    22  H   -0.000032   0.000516  -0.037053   0.409308  -0.000100   0.000005
    23  H   -0.000065   0.004630  -0.041025   0.412533   0.000128  -0.000003
    24  H   -0.010871   0.000726  -0.000112  -0.000006   0.015809   0.429472
              13         14         15         16         17         18
     1  N   -0.109562   0.369535   0.368803   0.000008  -0.000284   0.000008
     2  C    0.494527  -0.028451  -0.027354  -0.000659   0.000975  -0.000654
     3  N   -0.072868   0.008199   0.006104   0.000359   0.008944   0.000346
     4  C   -0.043398   0.000870  -0.000908  -0.049099  -0.068099  -0.048946
     5  C   -0.002993  -0.000350   0.000031   0.418416   0.423785   0.418209
     6  C   -0.045589   0.000782   0.000318   0.005982   0.011316   0.006011
     7  C    0.007289  -0.000008  -0.000000  -0.004736   0.000614  -0.004738
     8  O   -0.000226   0.000000   0.000000   0.000201   0.001874   0.000221
     9  C    0.000015  -0.000000  -0.000000   0.000017  -0.000086   0.000017
    10  C   -0.000002  -0.000000   0.000000  -0.000337  -0.000021  -0.000328
    11  O    0.000521   0.000000   0.000000  -0.000035   0.000024  -0.000034
    12  C    0.542397  -0.001130   0.001062   0.000549  -0.000499   0.000546
    13  N    6.525545   0.006156   0.008019   0.000172   0.000439   0.000172
    14  H    0.006156   0.400825  -0.022733   0.000007   0.000136   0.000007
    15  H    0.008019  -0.022733   0.398797  -0.000001   0.000001  -0.000001
    16  H    0.000172   0.000007  -0.000001   0.518043  -0.019269  -0.033566
    17  H    0.000439   0.000136   0.000001  -0.019269   0.506349  -0.019254
    18  H    0.000172   0.000007  -0.000001  -0.033566  -0.019254   0.518019
    19  H    0.000000  -0.000000  -0.000000  -0.000241   0.000006   0.000128
    20  H    0.000000  -0.000000  -0.000000   0.000128   0.000006  -0.000242
    21  H    0.000000   0.000000  -0.000000   0.000486   0.000014  -0.000221
    22  H    0.000000   0.000000  -0.000000  -0.000224   0.000014   0.000484
    23  H    0.000000  -0.000000  -0.000000   0.000005   0.000002   0.000004
    24  H   -0.024568   0.000016  -0.000089   0.000005   0.000008   0.000005
              19         20         21         22         23         24
     1  N    0.000000   0.000000  -0.000000  -0.000000   0.000000  -0.000013
     2  C    0.000001   0.000001  -0.000000  -0.000000   0.000000   0.005410
     3  N    0.000002   0.000002   0.000000   0.000000  -0.000000  -0.001535
     4  C   -0.000096  -0.000094   0.000046   0.000045  -0.000033   0.004617
     5  C    0.000092   0.000095  -0.000114  -0.000112   0.000063   0.000040
     6  C   -0.001169  -0.001198  -0.000372  -0.000368   0.000031  -0.058672
     7  C   -0.007026  -0.006956  -0.000032  -0.000032  -0.000065  -0.010871
     8  O   -0.034858  -0.034814   0.000544   0.000516   0.004630   0.000726
     9  C    0.426870   0.426818  -0.037098  -0.037053  -0.041025  -0.000112
    10  C   -0.039063  -0.039071   0.409324   0.409308   0.412533  -0.000006
    11  O    0.004455   0.004366  -0.000099  -0.000100   0.000128   0.015809
    12  C   -0.000015  -0.000014   0.000005   0.000005  -0.000003   0.429472
    13  N    0.000000   0.000000   0.000000   0.000000   0.000000  -0.024568
    14  H   -0.000000  -0.000000   0.000000   0.000000  -0.000000   0.000016
    15  H   -0.000000  -0.000000  -0.000000  -0.000000  -0.000000  -0.000089
    16  H   -0.000241   0.000128   0.000486  -0.000224   0.000005   0.000005
    17  H    0.000006   0.000006   0.000014   0.000014   0.000002   0.000008
    18  H    0.000128  -0.000242  -0.000221   0.000484   0.000004   0.000005
    19  H    0.551267  -0.043969  -0.008046   0.007449  -0.001990  -0.000013
    20  H   -0.043969   0.551483   0.007458  -0.008053  -0.001989  -0.000013
    21  H   -0.008046   0.007458   0.535604  -0.031247  -0.021933   0.000000
    22  H    0.007449  -0.008053  -0.031247   0.535621  -0.021959   0.000000
    23  H   -0.001990  -0.001989  -0.021933  -0.021959   0.526096  -0.000000
    24  H   -0.000013  -0.000013   0.000000   0.000000  -0.000000   0.458642
 Mulliken charges:
               1
     1  N   -0.502694
     2  C    0.412077
     3  N   -0.301496
     4  C    0.186540
     5  C   -0.476709
     6  C   -0.088929
     7  C    0.370211
     8  O   -0.287013
     9  C   -0.105454
    10  C   -0.418990
    11  O   -0.374189
    12  C   -0.052300
    13  N   -0.286048
    14  H    0.266138
    15  H    0.267952
    16  H    0.163788
    17  H    0.153005
    18  H    0.163808
    19  H    0.146217
    20  H    0.146055
    21  H    0.145681
    22  H    0.145704
    23  H    0.145506
    24  H    0.181142
 Sum of Mulliken charges =  -0.00000
 Mulliken charges with hydrogens summed into heavy atoms:
               1
     1  N    0.031396
     2  C    0.412077
     3  N   -0.301496
     4  C    0.186540
     5  C    0.003891
     6  C   -0.088929
     7  C    0.370211
     8  O   -0.287013
     9  C    0.186818
    10  C    0.017901
    11  O   -0.374189
    12  C    0.128842
    13  N   -0.286048
 Electronic spatial extent (au):  <R**2>=           2960.9180
 Charge=              0.0000 electrons
 Dipole moment (field-independent basis, Debye):
    X=             -0.2264    Y=              2.6015    Z=             -0.0172  Tot=              2.6114
 Quadrupole moment (field-independent basis, Debye-Ang):
   XX=            -55.1105   YY=            -82.6158   ZZ=            -77.1013
   XY=              0.8621   XZ=              0.0918   YZ=             -0.0100
 Traceless Quadrupole moment (field-independent basis, Debye-Ang):
   XX=             16.4986   YY=            -11.0066   ZZ=             -5.4921
   XY=              0.8621   XZ=              0.0918   YZ=             -0.0100
 Octapole moment (field-independent basis, Debye-Ang**2):
  XXX=            -49.7594  YYY=             12.8206  ZZZ=             -0.0021  XYY=             -6.3963
  XXY=             18.1424  XXZ=             -0.4410  XZZ=              9.2634  YZZ=             -1.5166
  YYZ=             -0.0144  XYZ=              0.0486
 Hexadecapole moment (field-independent basis, Debye-Ang**3):
 XXXX=          -2306.2384 YYYY=           -782.4483 ZZZZ=            -97.7183 XXXY=            -91.2173
 XXXZ=              2.3114 YYYX=              1.1384 YYYZ=              0.0104 ZZZX=              0.0917
 ZZZY=             -0.0205 XXYY=           -649.7438 XXZZ=           -542.3370 YYZZ=           -142.6958
 XXYZ=             -0.2033 YYXZ=              0.0986 ZZXY=             -2.3307
 N-N= 7.875484407092D+02 E-N=-3.036332074220D+03  KE= 6.230059657534D+02
 Unable to Open any file for archive entry.
 1\1\GINC-COMPUTE-0-35\SP\RM062X\def2TZVP\C8H11N3O2\ZTAN64\14-Aug-2024\
 0\\# M062X/def2tzvp int=(grid=ultrafine) nmr=giao guess=read geom=chec
 k\\pyrmd1.xyz\\0,1\N,0,-4.3168546548,1.4153641709,-0.1002021703\C,0,-3
 .0085727308,1.0861609585,-0.0112408362\N,0,-2.6042188274,0.0187879772,
 -0.7277982003\C,0,-1.3152500185,-0.3249296348,-0.6571426277\C,0,-0.932
 6755369,-1.524050605,-1.4805278217\C,0,-0.4169981084,0.4171721259,0.14
 78115257\C,0,1.0296145807,0.1824022356,0.3430811923\O,0,1.5085386751,-
 0.877347216,-0.349060531\C,0,2.9189313356,-1.1409766727,-0.1849567862\
 C,0,3.249858155,-2.3555417781,-1.0282347606\O,0,1.7374065011,0.8705372
 315,1.0574069708\C,0,-0.9662657692,1.5062046803,0.8439513574\N,0,-2.24
 15716583,1.8620655337,0.786387732\H,0,-4.926387175,0.8620025649,-0.677
 269924\H,0,-4.6617559806,2.2015401936,0.423335263\H,0,-0.5114703252,-2
 .312012197,-0.8514110751\H,0,-1.8214020285,-1.8913984814,-1.9938930319
 \H,0,-0.1592618706,-1.2676334618,-2.2086628303\H,0,3.1266289048,-1.304
 9841711,0.8765772011\H,0,3.4822415451,-0.2558728374,-0.4952338882\H,0,
 2.6720595869,-3.2253941552,-0.703341046\H,0,3.0294706668,-2.1700279983
 ,-2.0832535834\H,0,4.313494942,-2.5943828839,-0.9354221838\H,0,-0.3105
 602089,2.1017144206,1.4737000543\\Version=ES64L-G16RevC.01\State=1-A\H
 F=-626.2020065\RMSD=1.768e-09\Dipole=-0.4405188,-0.6813922,-0.6302155\
 Quadrupole=8.7189718,-3.1553982,-5.5635736,-7.2334536,-2.3190965,-1.13
 96842\PG=C01 [X(C8H11N3O2)]\\@
 The archive entry for this job was punched.


 IF YOU BELIEVE CERTAIN WORDS, YOU BELIEVE THEIR HIDDEN ARGUMENTS.
 WHEN YOU BELIEVE SOMETHING IS RIGHT OR WRONG, TRUE OR FALSE, 
 YOU BELIEVE THE ASSUMPTIONS IN THE WORDS WHICH EXPRESS THE ARGUMENTS.
 SUCH ASSUMPTIONS ARE OFTEN FULL OF HOLES, BUT REMAIN MOST PRECIOUS 
 TO THE CONVINCED.

                 -- THE OPEN-ENDED PROOF FROM THE PANOPLIA PROPHETICA
                    CHILDREN OF DUNE BY FRANK HERBERT
 Job cpu time:       0 days  0 hours 36 minutes  0.9 seconds.
 Elapsed time:       0 days  0 hours  2 minutes 24.3 seconds.
 File lengths (MBytes):  RWF=    126 Int=      0 D2E=      0 Chk=     21 Scr=      1
 Normal termination of Gaussian 16 at Wed Aug 14 20:31:00 2024.
 
 
-----Kestrel cluster job statistics-----
Time info:

real	11m36.509s
user	181m37.401s
sys	0m17.570s
 
Disk space usage:
21M	/scratch/362987.kestrel.chem.wisc.edu
