 Entering Gaussian System, Link 0=/share/apps/gaussian/g16/g16
 Initial command:
 /share/apps/gaussian/g16/l1.exe "/scratch/362986.kestrel.chem.wisc.edu/Gau-225556.inp" -scrdir="/scratch/362986.kestrel.chem.wisc.edu/"
 Entering Link 1 = /share/apps/gaussian/g16/l1.exe PID=    225557.
  
 Copyright (c) 1988-2019, Gaussian, Inc.  All Rights Reserved.
  
 This is part of the Gaussian(R) 16 program.  It is based on
 the Gaussian(R) 09 system (copyright 2009, Gaussian, Inc.),
 the Gaussian(R) 03 system (copyright 2003, Gaussian, Inc.),
 the Gaussian(R) 98 system (copyright 1998, Gaussian, Inc.),
 the Gaussian(R) 94 system (copyright 1995, Gaussian, Inc.),
 the Gaussian 92(TM) system (copyright 1992, Gaussian, Inc.),
 the Gaussian 90(TM) system (copyright 1990, Gaussian, Inc.),
 the Gaussian 88(TM) system (copyright 1988, Gaussian, Inc.),
 the Gaussian 86(TM) system (copyright 1986, Carnegie Mellon
 University), and the Gaussian 82(TM) system (copyright 1983,
 Carnegie Mellon University). Gaussian is a federally registered
 trademark of Gaussian, Inc.
  
 This software contains proprietary and confidential information,
 including trade secrets, belonging to Gaussian, Inc.
  
 This software is provided under written license and may be
 used, copied, transmitted, or stored only in accord with that
 written license.
  
 The following legend is applicable only to US Government
 contracts under FAR:
  
                    RESTRICTED RIGHTS LEGEND
  
 Use, reproduction and disclosure by the US Government is
 subject to restrictions as set forth in subparagraphs (a)
 and (c) of the Commercial Computer Software - Restricted
 Rights clause in FAR 52.227-19.
  
 Gaussian, Inc.
 340 Quinnipiac St., Bldg. 40, Wallingford CT 06492
  
  
 ---------------------------------------------------------------
 Warning -- This program may not be used in any manner that
 competes with the business of Gaussian, Inc. or will provide
 assistance to any competitor of Gaussian, Inc.  The licensee
 of this program is prohibited from giving any competitor of
 Gaussian, Inc. access to this program.  By using this program,
 the user acknowledges that Gaussian, Inc. is engaged in the
 business of creating and licensing software in the field of
 computational chemistry and represents and warrants to the
 licensee that it is not a competitor of Gaussian, Inc. and that
 it will not use this program in any manner prohibited above.
 ---------------------------------------------------------------
  

 Cite this work as:
 Gaussian 16, Revision C.01,
 M. J. Frisch, G. W. Trucks, H. B. Schlegel, G. E. Scuseria, 
 M. A. Robb, J. R. Cheeseman, G. Scalmani, V. Barone, 
 G. A. Petersson, H. Nakatsuji, X. Li, M. Caricato, A. V. Marenich, 
 J. Bloino, B. G. Janesko, R. Gomperts, B. Mennucci, H. P. Hratchian, 
 J. V. Ortiz, A. F. Izmaylov, J. L. Sonnenberg, D. Williams-Young, 
 F. Ding, F. Lipparini, F. Egidi, J. Goings, B. Peng, A. Petrone, 
 T. Henderson, D. Ranasinghe, V. G. Zakrzewski, J. Gao, N. Rega, 
 G. Zheng, W. Liang, M. Hada, M. Ehara, K. Toyota, R. Fukuda, 
 J. Hasegawa, M. Ishida, T. Nakajima, Y. Honda, O. Kitao, H. Nakai, 
 T. Vreven, K. Throssell, J. A. Montgomery, Jr., J. E. Peralta, 
 F. Ogliaro, M. J. Bearpark, J. J. Heyd, E. N. Brothers, K. N. Kudin, 
 V. N. Staroverov, T. A. Keith, R. Kobayashi, J. Normand, 
 K. Raghavachari, A. P. Rendell, J. C. Burant, S. S. Iyengar, 
 J. Tomasi, M. Cossi, J. M. Millam, M. Klene, C. Adamo, R. Cammi, 
 J. W. Ochterski, R. L. Martin, K. Morokuma, O. Farkas, 
 J. B. Foresman, and D. J. Fox, Gaussian, Inc., Wallingford CT, 2019.
 
 ******************************************
 Gaussian 16:  ES64L-G16RevC.01  3-Jul-2019
                14-Aug-2024 
 ******************************************
 %nprocs=16
 Will use up to   16 processors via shared memory.
 %mem=16GB
 %chk=pyrmd1_conf-2.chk
 ----------------------------------------------------------------------
 # B3LYP/6-31G(d,p) symmetry=loose empiricaldispersion=GD3BJ int=(grid=
 ultrafine) opt freq=noraman
 ----------------------------------------------------------------------
 1/18=20,19=15,26=4,38=1/1,3;
 2/9=110,12=2,17=4,18=3,40=1/2;
 3/5=1,6=6,7=101,11=2,25=1,30=1,71=1,74=-5,75=-5,124=41/1,2,3;
 4//1;
 5/5=2,38=5/2;
 6/7=2,8=2,9=2,10=2,28=1/1;
 7//1,2,3,16;
 1/18=20,19=15,26=4/3(2);
 2/9=110/2;
 99//99;
 2/9=110/2;
 3/5=1,6=6,7=101,11=2,25=1,30=1,71=1,74=-5,75=-5,124=41/1,2,3;
 4/5=5,16=3,69=1/1;
 5/5=2,38=5/2;
 7//1,2,3,16;
 1/18=20,19=15,26=4/3(-5);
 2/9=110/2;
 6/7=2,8=2,9=2,10=2,19=2,28=1/1;
 99/9=1/99;
 ----------
 pyrmd1.xyz
 ----------
 Symbolic Z-matrix:
 Charge =  0 Multiplicity = 1
 N                    -4.0058    2.1037    0.0762 
 C                    -2.8248    1.4016    0.0471 
 N                    -2.8629    0.18     -0.5159 
 C                    -1.6928   -0.5114   -0.5427 
 C                    -1.8147   -1.8812   -1.193 
 C                    -0.4913    0.0109   -0.0117 
 C                     0.8195   -0.721    -0.0241 
 O                     1.8253   -0.0195    0.5612 
 C                     3.1494   -0.539     0.6353 
 C                     3.9122   -0.2874   -0.673 
 O                     0.9812   -1.8425   -0.5065 
 C                    -0.5933    1.2982    0.5464 
 N                    -1.7501    2.0069    0.5844 
 H                    -4.0024    3.0184    0.4922 
 H                    -4.8217    1.6703   -0.3193 
 H                    -1.5315   -2.6591   -0.4845 
 H                    -2.8295   -2.0921   -1.5315 
 H                    -1.1548   -1.9455   -2.0576 
 H                     3.1406   -1.6026    0.8837 
 H                     3.6628   -0.0355    1.455 
 H                     3.4435   -0.8105   -1.5072 
 H                     3.9372    0.7751   -0.9146 
 H                     4.9404   -0.6399   -0.5968 
 H                     0.2611    1.7991    0.9816 
 

 GradGradGradGradGradGradGradGradGradGradGradGradGradGradGradGradGradGrad
 Berny optimization.
 Initialization pass.
                           ----------------------------
                           !    Initial Parameters    !
                           ! (Angstroms and Degrees)  !
 --------------------------                            --------------------------
 ! Name  Definition              Value          Derivative Info.                !
 --------------------------------------------------------------------------------
 ! R1    R(1,2)                  1.3742         estimate D2E/DX2                !
 ! R2    R(1,14)                 1.0049         estimate D2E/DX2                !
 ! R3    R(1,15)                 1.005          estimate D2E/DX2                !
 ! R4    R(2,3)                  1.3456         estimate D2E/DX2                !
 ! R5    R(2,13)                 1.3454         estimate D2E/DX2                !
 ! R6    R(3,4)                  1.3594         estimate D2E/DX2                !
 ! R7    R(4,5)                  1.5212         estimate D2E/DX2                !
 ! R8    R(4,6)                  1.4136         estimate D2E/DX2                !
 ! R9    R(5,16)                 1.0896         estimate D2E/DX2                !
 ! R10   R(5,17)                 1.0904         estimate D2E/DX2                !
 ! R11   R(5,18)                 1.0896         estimate D2E/DX2                !
 ! R12   R(6,7)                  1.5013         estimate D2E/DX2                !
 ! R13   R(6,12)                 1.4068         estimate D2E/DX2                !
 ! R14   R(7,8)                  1.3588         estimate D2E/DX2                !
 ! R15   R(7,11)                 1.2315         estimate D2E/DX2                !
 ! R16   R(8,9)                  1.4243         estimate D2E/DX2                !
 ! R17   R(9,10)                 1.5352         estimate D2E/DX2                !
 ! R18   R(9,19)                 1.0923         estimate D2E/DX2                !
 ! R19   R(9,20)                 1.0904         estimate D2E/DX2                !
 ! R20   R(10,21)                1.0905         estimate D2E/DX2                !
 ! R21   R(10,22)                1.0899         estimate D2E/DX2                !
 ! R22   R(10,23)                1.0896         estimate D2E/DX2                !
 ! R23   R(12,13)                1.3572         estimate D2E/DX2                !
 ! R24   R(12,24)                1.0818         estimate D2E/DX2                !
 ! A1    A(2,1,14)             118.0938         estimate D2E/DX2                !
 ! A2    A(2,1,15)             117.9722         estimate D2E/DX2                !
 ! A3    A(14,1,15)            123.9339         estimate D2E/DX2                !
 ! A4    A(1,2,3)              116.6368         estimate D2E/DX2                !
 ! A5    A(1,2,13)             116.6259         estimate D2E/DX2                !
 ! A6    A(3,2,13)             126.7373         estimate D2E/DX2                !
 ! A7    A(2,3,4)              116.4626         estimate D2E/DX2                !
 ! A8    A(3,4,5)              113.4185         estimate D2E/DX2                !
 ! A9    A(3,4,6)              122.4302         estimate D2E/DX2                !
 ! A10   A(5,4,6)              124.1514         estimate D2E/DX2                !
 ! A11   A(4,5,16)             110.1246         estimate D2E/DX2                !
 ! A12   A(4,5,17)             112.4243         estimate D2E/DX2                !
 ! A13   A(4,5,18)             110.1105         estimate D2E/DX2                !
 ! A14   A(16,5,17)            107.7983         estimate D2E/DX2                !
 ! A15   A(16,5,18)            108.4469         estimate D2E/DX2                !
 ! A16   A(17,5,18)            107.8137         estimate D2E/DX2                !
 ! A17   A(4,6,7)              123.9762         estimate D2E/DX2                !
 ! A18   A(4,6,12)             115.1816         estimate D2E/DX2                !
 ! A19   A(7,6,12)             120.8422         estimate D2E/DX2                !
 ! A20   A(6,7,8)              113.019          estimate D2E/DX2                !
 ! A21   A(6,7,11)             124.1819         estimate D2E/DX2                !
 ! A22   A(8,7,11)             122.7987         estimate D2E/DX2                !
 ! A23   A(7,8,9)              121.4834         estimate D2E/DX2                !
 ! A24   A(8,9,10)             110.9657         estimate D2E/DX2                !
 ! A25   A(8,9,19)             111.0704         estimate D2E/DX2                !
 ! A26   A(8,9,20)             107.9628         estimate D2E/DX2                !
 ! A27   A(10,9,19)            110.9406         estimate D2E/DX2                !
 ! A28   A(10,9,20)            109.3302         estimate D2E/DX2                !
 ! A29   A(19,9,20)            106.4078         estimate D2E/DX2                !
 ! A30   A(9,10,21)            111.084          estimate D2E/DX2                !
 ! A31   A(9,10,22)            111.1046         estimate D2E/DX2                !
 ! A32   A(9,10,23)            110.8703         estimate D2E/DX2                !
 ! A33   A(21,10,22)           107.9334         estimate D2E/DX2                !
 ! A34   A(21,10,23)           107.6914         estimate D2E/DX2                !
 ! A35   A(22,10,23)           108.0129         estimate D2E/DX2                !
 ! A36   A(6,12,13)            123.4187         estimate D2E/DX2                !
 ! A37   A(6,12,24)            121.7377         estimate D2E/DX2                !
 ! A38   A(13,12,24)           114.8435         estimate D2E/DX2                !
 ! A39   A(2,13,12)            115.7697         estimate D2E/DX2                !
 ! D1    D(14,1,2,3)           179.9659         estimate D2E/DX2                !
 ! D2    D(14,1,2,13)           -0.0399         estimate D2E/DX2                !
 ! D3    D(15,1,2,3)             0.0385         estimate D2E/DX2                !
 ! D4    D(15,1,2,13)         -179.9674         estimate D2E/DX2                !
 ! D5    D(1,2,3,4)           -179.995          estimate D2E/DX2                !
 ! D6    D(13,2,3,4)             0.0115         estimate D2E/DX2                !
 ! D7    D(1,2,13,12)          179.9994         estimate D2E/DX2                !
 ! D8    D(3,2,13,12)           -0.0071         estimate D2E/DX2                !
 ! D9    D(2,3,4,5)            179.9857         estimate D2E/DX2                !
 ! D10   D(2,3,4,6)              0.0009         estimate D2E/DX2                !
 ! D11   D(3,4,5,16)          -120.4971         estimate D2E/DX2                !
 ! D12   D(3,4,5,17)            -0.2728         estimate D2E/DX2                !
 ! D13   D(3,4,5,18)           119.9614         estimate D2E/DX2                !
 ! D14   D(6,4,5,16)            59.4873         estimate D2E/DX2                !
 ! D15   D(6,4,5,17)           179.7117         estimate D2E/DX2                !
 ! D16   D(6,4,5,18)           -60.0541         estimate D2E/DX2                !
 ! D17   D(3,4,6,7)           -179.9303         estimate D2E/DX2                !
 ! D18   D(3,4,6,12)            -0.0155         estimate D2E/DX2                !
 ! D19   D(5,4,6,7)              0.0866         estimate D2E/DX2                !
 ! D20   D(5,4,6,12)          -179.9986         estimate D2E/DX2                !
 ! D21   D(4,6,7,8)           -179.1588         estimate D2E/DX2                !
 ! D22   D(4,6,7,11)             0.6059         estimate D2E/DX2                !
 ! D23   D(12,6,7,8)             0.931          estimate D2E/DX2                !
 ! D24   D(12,6,7,11)         -179.3043         estimate D2E/DX2                !
 ! D25   D(4,6,12,13)            0.0204         estimate D2E/DX2                !
 ! D26   D(4,6,12,24)         -179.9417         estimate D2E/DX2                !
 ! D27   D(7,6,12,13)          179.9381         estimate D2E/DX2                !
 ! D28   D(7,6,12,24)           -0.024          estimate D2E/DX2                !
 ! D29   D(6,7,8,9)           -179.2973         estimate D2E/DX2                !
 ! D30   D(11,7,8,9)             0.9343         estimate D2E/DX2                !
 ! D31   D(7,8,9,10)            82.6737         estimate D2E/DX2                !
 ! D32   D(7,8,9,19)           -41.2294         estimate D2E/DX2                !
 ! D33   D(7,8,9,20)          -157.5331         estimate D2E/DX2                !
 ! D34   D(8,9,10,21)          -63.1795         estimate D2E/DX2                !
 ! D35   D(8,9,10,22)           56.9884         estimate D2E/DX2                !
 ! D36   D(8,9,10,23)          177.1138         estimate D2E/DX2                !
 ! D37   D(19,9,10,21)          60.7977         estimate D2E/DX2                !
 ! D38   D(19,9,10,22)        -179.0344         estimate D2E/DX2                !
 ! D39   D(19,9,10,23)         -58.909          estimate D2E/DX2                !
 ! D40   D(20,9,10,21)         177.8468         estimate D2E/DX2                !
 ! D41   D(20,9,10,22)         -61.9853         estimate D2E/DX2                !
 ! D42   D(20,9,10,23)          58.1401         estimate D2E/DX2                !
 ! D43   D(6,12,13,2)           -0.01           estimate D2E/DX2                !
 ! D44   D(24,12,13,2)         179.9545         estimate D2E/DX2                !
 --------------------------------------------------------------------------------
 Trust Radius=3.00D-01 FncErr=1.00D-07 GrdErr=1.00D-06 EigMax=2.50D+02 EigMin=1.00D-04
 Number of steps in this run=    117 maximum allowed number of steps=    144.
 GradGradGradGradGradGradGradGradGradGradGradGradGradGradGradGradGradGrad

                          Input orientation:                          
 ---------------------------------------------------------------------
 Center     Atomic      Atomic             Coordinates (Angstroms)
 Number     Number       Type             X           Y           Z
 ---------------------------------------------------------------------
      1          7           0       -4.005800    2.103700    0.076200
      2          6           0       -2.824800    1.401600    0.047100
      3          7           0       -2.862900    0.180000   -0.515900
      4          6           0       -1.692800   -0.511400   -0.542700
      5          6           0       -1.814700   -1.881200   -1.193000
      6          6           0       -0.491300    0.010900   -0.011700
      7          6           0        0.819500   -0.721000   -0.024100
      8          8           0        1.825300   -0.019500    0.561200
      9          6           0        3.149400   -0.539000    0.635300
     10          6           0        3.912200   -0.287400   -0.673000
     11          8           0        0.981200   -1.842500   -0.506500
     12          6           0       -0.593300    1.298200    0.546400
     13          7           0       -1.750100    2.006900    0.584400
     14          1           0       -4.002400    3.018400    0.492200
     15          1           0       -4.821700    1.670300   -0.319300
     16          1           0       -1.531500   -2.659100   -0.484500
     17          1           0       -2.829500   -2.092100   -1.531500
     18          1           0       -1.154800   -1.945500   -2.057600
     19          1           0        3.140600   -1.602600    0.883700
     20          1           0        3.662800   -0.035500    1.455000
     21          1           0        3.443500   -0.810500   -1.507200
     22          1           0        3.937200    0.775100   -0.914600
     23          1           0        4.940400   -0.639900   -0.596800
     24          1           0        0.261100    1.799100    0.981600
 ---------------------------------------------------------------------
                    Distance matrix (angstroms):
                    1          2          3          4          5
     1  N    0.000000
     2  C    1.374246   0.000000
     3  N    2.314611   1.345633   0.000000
     4  C    3.545667   2.299752   1.359370   0.000000
     5  C    4.721357   3.651702   2.409509   1.521217   0.000000
     6  C    4.091363   2.717117   2.430494   1.413634   2.593627
     7  C    5.592183   4.217988   3.822792   2.573816   3.106670
     8  O    6.224543   4.889504   4.814474   3.719891   4.448904
     9  C    7.648094   6.308960   6.163601   4.983507   5.457698
    10  C    8.305022   6.982724   6.793020   5.610987   5.967242
    11  O    6.386094   5.031530   4.343697   2.987208   2.879208
    12  C    3.537665   2.289014   2.744073   2.381111   3.824384
    13  N    2.314264   1.345385   2.405524   2.759615   4.275587
    14  H    1.004860   2.049121   3.220441   4.343358   5.624234
    15  H    1.004962   2.047940   2.469118   3.820960   4.734823
    16  H    5.396370   4.294707   3.135937   2.154535   1.089634
    17  H    4.644687   3.833789   2.488975   2.183672   1.090358
    18  H    5.392339   4.292056   3.132442   2.154300   1.089558
    19  H    8.090720   6.731353   6.417052   5.156267   5.380084
    20  H    8.079894   6.792378   6.820238   5.735829   6.357792
    21  H    8.154250   6.826479   6.460220   5.234625   5.375294
    22  H    8.114069   6.858718   6.837724   5.787080   6.341750
    23  H    9.381618   8.054853   7.846673   6.634665   6.894030
    24  H    4.372524   3.248704   3.824051   3.388160   4.752098
                    6          7          8          9         10
     6  C    0.000000
     7  C    1.501342   0.000000
     8  O    2.386582   1.358791   0.000000
     9  C    3.738408   2.428243   1.424293   0.000000
    10  C    4.462859   3.189651   2.439297   1.535192   0.000000
    11  O    2.418300   1.231511   2.275042   2.775592   3.322171
    12  C    1.406777   2.529554   2.754302   4.170253   4.929563
    13  N    2.433912   3.796650   4.109783   5.521711   6.237508
    14  H    4.650462   6.123757   6.572342   7.988981   8.656032
    15  H    4.647644   6.134215   6.914717   8.326506   8.957606
    16  H    2.904213   3.081461   4.396485   5.259240   5.940906
    17  H    3.492790   4.179398   5.508378   6.546326   7.031677
    18  H    2.907480   3.087456   4.410055   5.268405   5.508258
    19  H    4.073797   2.643639   2.083321   1.092257   2.179090
    20  H    4.405668   3.277499   2.043414   1.090413   2.157322
    21  H    4.288807   3.015455   2.742723   2.179567   1.090506
    22  H    4.583759   3.570904   2.696200   2.179376   1.089909
    23  H    5.501749   4.161295   3.380785   2.176220   1.089614
    24  H    2.179544   2.770225   2.435316   3.732146   4.519039
                   11         12         13         14         15
    11  O    0.000000
    12  C    3.667648   0.000000
    13  N    4.844372   1.357161   0.000000
    14  H    7.032924   3.818899   2.470726   0.000000
    15  H    6.785901   4.332120   3.219425   1.774023   0.000000
    16  H    2.642155   4.195616   4.791857   6.268436   5.440258
    17  H    3.954031   4.562060   4.737503   5.620344   4.426505
    18  H    2.641783   4.197343   4.791243   6.265031   5.435242
    19  H    2.579383   4.740298   6.085805   8.516417   8.692370
    20  H    3.782025   4.551780   5.850541   8.307140   8.834287
    21  H    2.851201   4.995963   6.267856   8.608107   8.710856
    22  H    3.969422   4.788902   6.009136   8.369512   8.824630
    23  H    4.138800   5.973690   7.291336   9.723310  10.035568
    24  H    3.999279   1.081804   2.060552   4.461349   5.248217
                   16         17         18         19         20
    16  H    0.000000
    17  H    1.761392   0.000000
    18  H    1.767985   1.761503   0.000000
    19  H    4.981634   6.458707   5.217211   0.000000
    20  H    6.133978   7.436313   6.260649   1.747821   0.000000
    21  H    5.404985   6.402626   4.768179   2.536843   3.069747
    22  H    6.471893   7.374933   5.885285   3.085760   2.519399
    23  H    6.780507   7.959516   6.402343   2.521498   2.491474
    24  H    5.023785   5.568565   5.026285   4.457877   3.893768
                   21         22         23         24
    21  H    0.000000
    22  H    1.763248   0.000000
    23  H    1.760296   1.763415   0.000000
    24  H    4.809554   4.261204   5.507805   0.000000
 Stoichiometry    C8H11N3O2
 Framework group  C1[X(C8H11N3O2)]
 Deg. of freedom    66
 Full point group                 C1      NOp   1
 Largest Abelian subgroup         C1      NOp   1
 Largest concise Abelian subgroup C1      NOp   1
                         Standard orientation:                         
 ---------------------------------------------------------------------
 Center     Atomic      Atomic             Coordinates (Angstroms)
 Number     Number       Type             X           Y           Z
 ---------------------------------------------------------------------
      1          7           0       -4.127417   -0.893657    0.178533
      2          6           0       -2.793679   -0.577795    0.078901
      3          7           0       -2.479065    0.730034    0.115359
      4          6           0       -1.158849    1.038462    0.016426
      5          6           0       -0.881953    2.533480    0.064894
      6          6           0       -0.157397    0.049848   -0.118102
      7          6           0        1.309304    0.350889   -0.228516
      8          8           0        2.071809   -0.765181   -0.367390
      9          6           0        3.490125   -0.688657   -0.472913
     10          6           0        4.138930   -0.577428    0.913988
     11          8           0        1.786559    1.485859   -0.202262
     12          6           0       -0.625176   -1.276665   -0.141924
     13          7           0       -1.937617   -1.608279   -0.044881
     14          1           0       -4.387071   -1.864060    0.153211
     15          1           0       -4.784838   -0.139242    0.271291
     16          1           0       -0.380772    2.851749   -0.848794
     17          1           0       -1.793934    3.122293    0.167217
     18          1           0       -0.237175    2.767808    0.911349
     19          1           0        3.791951    0.143375   -1.112951
     20          1           0        3.840359   -1.597364   -0.963411
     21          1           0        3.837069    0.342578    1.415657
     22          1           0        3.852968   -1.415519    1.549386
     23          1           0        5.225632   -0.570135    0.834718
     24          1           0        0.049741   -2.116400   -0.240055
 ---------------------------------------------------------------------
 Rotational constants (GHZ):           1.7468219           0.4387034           0.3639570
 Standard basis: 6-31G(d,p) (6D, 7F)
 There are   250 symmetry adapted cartesian basis functions of A   symmetry.
 There are   250 symmetry adapted basis functions of A   symmetry.
   250 basis functions,   441 primitive gaussians,   250 cartesian basis functions
    48 alpha electrons       48 beta electrons
       nuclear repulsion energy       781.1049928235 Hartrees.
 NAtoms=   24 NActive=   24 NUniq=   24 SFac= 1.00D+00 NAtFMM=   60 NAOKFM=F Big=F
 Integral buffers will be    131072 words long.
 Raffenetti 2 integral format.
 Two-electron integral symmetry is turned on.
 Nuclear repulsion after empirical dispersion term =      781.0639159185 Hartrees.
 One-electron integrals computed using PRISM.
 NBasis=   250 RedAO= T EigKep=  9.73D-04  NBF=   250
 NBsUse=   250 1.00D-06 EigRej= -1.00D+00 NBFU=   250
 ExpMin= 1.61D-01 ExpMax= 5.48D+03 ExpMxC= 8.25D+02 IAcc=3 IRadAn=         5 AccDes= 0.00D+00
 Harris functional with IExCor=  402 and IRadAn=       5 diagonalized for initial guess.
 HarFok:  IExCor=  402 AccDes= 0.00D+00 IRadAn=         5 IDoV= 1 UseB2=F ITyADJ=14
 ICtDFT=  3500011 ScaDFX=  1.000000  1.000000  1.000000  1.000000
 FoFCou: FMM=F IPFlag=           0 FMFlag=      100000 FMFlg1=           0
         NFxFlg=           0 DoJE=T BraDBF=F KetDBF=T FulRan=T
         wScrn=  0.000000 ICntrl=       500 IOpCl=  0 I1Cent=   200000004 NGrid=           0
         NMat0=    1 NMatS0=      1 NMatT0=    0 NMatD0=    1 NMtDS0=    0 NMtDT0=    0
 Petite list used in FoFCou.
 Requested convergence on RMS density matrix=1.00D-08 within 128 cycles.
 Requested convergence on MAX density matrix=1.00D-06.
 Requested convergence on             energy=1.00D-06.
 No special actions if energy rises.
 Integral accuracy reduced to 1.0D-05 until final iterations.
 Initial convergence to 1.0D-05 achieved.  Increase integral accuracy.
 SCF Done:  E(RB3LYP) =  -626.269659779     A.U. after   15 cycles
            NFock= 15  Conv=0.39D-08     -V/T= 2.0098

 **********************************************************************

            Population analysis using the SCF Density.

 **********************************************************************

 Orbital symmetries:
       Occupied  (A) (A) (A) (A) (A) (A) (A) (A) (A) (A) (A) (A)
                 (A) (A) (A) (A) (A) (A) (A) (A) (A) (A) (A) (A)
                 (A) (A) (A) (A) (A) (A) (A) (A) (A) (A) (A) (A)
                 (A) (A) (A) (A) (A) (A) (A) (A) (A) (A) (A) (A)
       Virtual   (A) (A) (A) (A) (A) (A) (A) (A) (A) (A) (A) (A)
                 (A) (A) (A) (A) (A) (A) (A) (A) (A) (A) (A) (A)
                 (A) (A) (A) (A) (A) (A) (A) (A) (A) (A) (A) (A)
                 (A) (A) (A) (A) (A) (A) (A) (A) (A) (A) (A) (A)
                 (A) (A) (A) (A) (A) (A) (A) (A) (A) (A) (A) (A)
                 (A) (A) (A) (A) (A) (A) (A) (A) (A) (A) (A) (A)
                 (A) (A) (A) (A) (A) (A) (A) (A) (A) (A) (A) (A)
                 (A) (A) (A) (A) (A) (A) (A) (A) (A) (A) (A) (A)
                 (A) (A) (A) (A) (A) (A) (A) (A) (A) (A) (A) (A)
                 (A) (A) (A) (A) (A) (A) (A) (A) (A) (A) (A) (A)
                 (A) (A) (A) (A) (A) (A) (A) (A) (A) (A) (A) (A)
                 (A) (A) (A) (A) (A) (A) (A) (A) (A) (A) (A) (A)
                 (A) (A) (A) (A) (A) (A) (A) (A) (A) (A) (A) (A)
                 (A) (A) (A) (A) (A) (A) (A) (A) (A) (A) (A) (A)
                 (A) (A) (A) (A) (A) (A) (A) (A) (A) (A) (A) (A)
                 (A) (A) (A) (A) (A) (A) (A) (A) (A) (A) (A) (A)
                 (A) (A) (A) (A) (A) (A) (A) (A) (A) (A)
 The electronic state is 1-A.
 Alpha  occ. eigenvalues --  -19.19034 -19.13126 -14.35704 -14.33093 -14.32989
 Alpha  occ. eigenvalues --  -10.32240 -10.29346 -10.25444 -10.24695 -10.24301
 Alpha  occ. eigenvalues --  -10.20777 -10.18166 -10.17571  -1.09555  -1.00566
 Alpha  occ. eigenvalues --   -0.99572  -0.90245  -0.88292  -0.79924  -0.76525
 Alpha  occ. eigenvalues --   -0.72292  -0.67136  -0.64809  -0.62287  -0.56749
 Alpha  occ. eigenvalues --   -0.54906  -0.52346  -0.51978  -0.49092  -0.47422
 Alpha  occ. eigenvalues --   -0.45879  -0.44573  -0.43971  -0.42498  -0.40549
 Alpha  occ. eigenvalues --   -0.40094  -0.38856  -0.38263  -0.37544  -0.37397
 Alpha  occ. eigenvalues --   -0.33926  -0.32158  -0.31581  -0.29872  -0.29507
 Alpha  occ. eigenvalues --   -0.26862  -0.24738  -0.23391
 Alpha virt. eigenvalues --   -0.03849  -0.03372   0.05353   0.08702   0.10787
 Alpha virt. eigenvalues --    0.12012   0.13745   0.13898   0.14576   0.14777
 Alpha virt. eigenvalues --    0.15112   0.15510   0.17110   0.17857   0.18907
 Alpha virt. eigenvalues --    0.20441   0.21854   0.22763   0.25098   0.25287
 Alpha virt. eigenvalues --    0.26318   0.30421   0.32635   0.33598   0.37173
 Alpha virt. eigenvalues --    0.40935   0.42220   0.46713   0.49041   0.50932
 Alpha virt. eigenvalues --    0.52396   0.53560   0.54542   0.55018   0.55368
 Alpha virt. eigenvalues --    0.56718   0.58838   0.60028   0.60297   0.60617
 Alpha virt. eigenvalues --    0.61702   0.62918   0.63452   0.64402   0.65919
 Alpha virt. eigenvalues --    0.66895   0.67259   0.69140   0.74161   0.75068
 Alpha virt. eigenvalues --    0.76854   0.78290   0.78602   0.79235   0.79973
 Alpha virt. eigenvalues --    0.81974   0.83308   0.85339   0.85779   0.86211
 Alpha virt. eigenvalues --    0.87414   0.87648   0.88542   0.89942   0.91169
 Alpha virt. eigenvalues --    0.93000   0.93752   0.94113   0.95493   0.97482
 Alpha virt. eigenvalues --    0.99976   1.02014   1.04028   1.06938   1.09077
 Alpha virt. eigenvalues --    1.10921   1.11063   1.15081   1.19999   1.23357
 Alpha virt. eigenvalues --    1.24845   1.26786   1.27660   1.29559   1.31883
 Alpha virt. eigenvalues --    1.32819   1.34526   1.36831   1.40906   1.41174
 Alpha virt. eigenvalues --    1.43183   1.43270   1.45561   1.50194   1.51193
 Alpha virt. eigenvalues --    1.54493   1.56428   1.58931   1.63070   1.64398
 Alpha virt. eigenvalues --    1.66533   1.69153   1.70421   1.73617   1.76368
 Alpha virt. eigenvalues --    1.77318   1.78860   1.80660   1.82733   1.85813
 Alpha virt. eigenvalues --    1.86100   1.87247   1.88661   1.90706   1.95402
 Alpha virt. eigenvalues --    1.96805   1.98441   2.00379   2.01160   2.02487
 Alpha virt. eigenvalues --    2.05087   2.05402   2.05667   2.06329   2.06979
 Alpha virt. eigenvalues --    2.07658   2.08363   2.09502   2.13209   2.14999
 Alpha virt. eigenvalues --    2.16980   2.18443   2.18883   2.20196   2.21223
 Alpha virt. eigenvalues --    2.25304   2.28862   2.29528   2.30292   2.31394
 Alpha virt. eigenvalues --    2.33922   2.37175   2.39392   2.40806   2.42544
 Alpha virt. eigenvalues --    2.45031   2.48221   2.48712   2.53181   2.53515
 Alpha virt. eigenvalues --    2.56624   2.58523   2.60223   2.61690   2.62415
 Alpha virt. eigenvalues --    2.64189   2.64782   2.69019   2.70403   2.71994
 Alpha virt. eigenvalues --    2.74316   2.74460   2.77512   2.77969   2.80348
 Alpha virt. eigenvalues --    2.82336   2.85801   2.87913   2.88431   2.91194
 Alpha virt. eigenvalues --    2.93272   2.94987   2.97976   3.01274   3.06934
 Alpha virt. eigenvalues --    3.16279   3.19354   3.21730   3.24046   3.27739
 Alpha virt. eigenvalues --    3.31226   3.39469   3.43189   3.44645   3.46687
 Alpha virt. eigenvalues --    3.48341   3.53466   3.56283   3.60529   4.00705
 Alpha virt. eigenvalues --    4.02948   4.06903   4.14649   4.18295   4.26588
 Alpha virt. eigenvalues --    4.33316   4.39461   4.43664   4.48287   4.56344
 Alpha virt. eigenvalues --    4.61008   4.74513
          Condensed to atoms (all electrons):
               1          2          3          4          5          6
     1  N    6.829012   0.319079  -0.099865   0.001481  -0.000212   0.001815
     2  C    0.319079   4.341377   0.430370  -0.052324   0.005378  -0.026543
     3  N   -0.099865   0.430370   6.924083   0.471234  -0.084344  -0.029989
     4  C    0.001481  -0.052324   0.471234   4.688634   0.387113   0.448507
     5  C   -0.000212   0.005378  -0.084344   0.387113   5.014352  -0.079922
     6  C    0.001815  -0.026543  -0.029989   0.448507  -0.079922   5.202235
     7  C    0.000012   0.001271   0.004618  -0.030405  -0.007677   0.318354
     8  O   -0.000000  -0.000013  -0.000024   0.001086   0.000130  -0.088761
     9  C    0.000000   0.000000   0.000001  -0.000012  -0.000007   0.006912
    10  C   -0.000000  -0.000000  -0.000000   0.000003   0.000001  -0.000659
    11  O   -0.000000  -0.000005   0.000029  -0.011551   0.002308  -0.063823
    12  C    0.001949  -0.063496  -0.039538  -0.054122   0.006139   0.401950
    13  N   -0.101848   0.440888  -0.077756  -0.037241  -0.000202  -0.021093
    14  H    0.336243  -0.015966   0.005010  -0.000105   0.000006  -0.000018
    15  H    0.337557  -0.017832   0.007213   0.000308  -0.000059   0.000019
    16  H    0.000003  -0.000182   0.001838  -0.022396   0.372155  -0.002445
    17  H   -0.000039   0.000604   0.003976  -0.023995   0.355661   0.005417
    18  H    0.000003  -0.000181   0.001815  -0.022196   0.371803  -0.002542
    19  H    0.000000  -0.000000   0.000000  -0.000002  -0.000002   0.000088
    20  H    0.000000  -0.000000  -0.000000   0.000002  -0.000000  -0.000033
    21  H   -0.000000   0.000000   0.000000   0.000003  -0.000002  -0.000009
    22  H   -0.000000  -0.000000  -0.000000  -0.000001  -0.000000  -0.000046
    23  H   -0.000000   0.000000   0.000000  -0.000000   0.000000   0.000006
    24  H   -0.000150   0.004301  -0.000225   0.003527  -0.000125  -0.055077
               7          8          9         10         11         12
     1  N    0.000012  -0.000000   0.000000  -0.000000  -0.000000   0.001949
     2  C    0.001271  -0.000013   0.000000  -0.000000  -0.000005  -0.063496
     3  N    0.004618  -0.000024   0.000001  -0.000000   0.000029  -0.039538
     4  C   -0.030405   0.001086  -0.000012   0.000003  -0.011551  -0.054122
     5  C   -0.007677   0.000130  -0.000007   0.000001   0.002308   0.006139
     6  C    0.318354  -0.088761   0.006912  -0.000659  -0.063823   0.401950
     7  C    4.411819   0.259428  -0.015546  -0.004445   0.502968  -0.040019
     8  O    0.259428   8.273637   0.211309  -0.041389  -0.081836   0.004172
     9  C   -0.015546   0.211309   4.694791   0.369448   0.003155  -0.000535
    10  C   -0.004445  -0.041389   0.369448   4.969743  -0.003266   0.000052
    11  O    0.502968  -0.081836   0.003155  -0.003266   8.130591   0.003770
    12  C   -0.040019   0.004172  -0.000535   0.000052   0.003770   4.847595
    13  N    0.003493   0.000250   0.000000   0.000000  -0.000028   0.444435
    14  H   -0.000001   0.000000  -0.000000   0.000000   0.000000   0.000265
    15  H   -0.000001   0.000000  -0.000000   0.000000   0.000000  -0.000154
    16  H    0.001323   0.000002  -0.000001   0.000000   0.002957  -0.000072
    17  H    0.000165   0.000002  -0.000000   0.000000   0.000586  -0.000116
    18  H    0.001440   0.000004   0.000003  -0.000001   0.003038  -0.000086
    19  H   -0.004609  -0.031747   0.376965  -0.040459   0.011714   0.000063
    20  H    0.003214  -0.033291   0.393523  -0.046751   0.000235  -0.000059
    21  H    0.003237  -0.003914  -0.028542   0.387958   0.004922  -0.000021
    22  H    0.000356   0.000680  -0.033174   0.383742   0.000094   0.000012
    23  H    0.000030   0.003067  -0.025006   0.366358   0.000009  -0.000000
    24  H   -0.004640   0.010646  -0.000277   0.000021   0.000089   0.386574
              13         14         15         16         17         18
     1  N   -0.101848   0.336243   0.337557   0.000003  -0.000039   0.000003
     2  C    0.440888  -0.015966  -0.017832  -0.000182   0.000604  -0.000181
     3  N   -0.077756   0.005010   0.007213   0.001838   0.003976   0.001815
     4  C   -0.037241  -0.000105   0.000308  -0.022396  -0.023995  -0.022196
     5  C   -0.000202   0.000006  -0.000059   0.372155   0.355661   0.371803
     6  C   -0.021093  -0.000018   0.000019  -0.002445   0.005417  -0.002542
     7  C    0.003493  -0.000001  -0.000001   0.001323   0.000165   0.001440
     8  O    0.000250   0.000000   0.000000   0.000002   0.000002   0.000004
     9  C    0.000000  -0.000000  -0.000000  -0.000001  -0.000000   0.000003
    10  C    0.000000   0.000000   0.000000   0.000000   0.000000  -0.000001
    11  O   -0.000028   0.000000   0.000000   0.002957   0.000586   0.003038
    12  C    0.444435   0.000265  -0.000154  -0.000072  -0.000116  -0.000086
    13  N    6.875288   0.007085   0.005104   0.000018   0.000038   0.000018
    14  H    0.007085   0.405309  -0.022156  -0.000000   0.000000  -0.000000
    15  H    0.005104  -0.022156   0.405801   0.000001   0.000035   0.000001
    16  H    0.000018  -0.000000   0.000001   0.561700  -0.028802  -0.024349
    17  H    0.000038   0.000000   0.000035  -0.028802   0.597164  -0.028741
    18  H    0.000018  -0.000000   0.000001  -0.024349  -0.028741   0.561765
    19  H    0.000000  -0.000000  -0.000000   0.000002  -0.000000  -0.000001
    20  H   -0.000001  -0.000000   0.000000   0.000000  -0.000000   0.000000
    21  H    0.000000  -0.000000  -0.000000  -0.000000  -0.000000   0.000005
    22  H    0.000000   0.000000  -0.000000  -0.000000  -0.000000  -0.000000
    23  H   -0.000000  -0.000000  -0.000000   0.000000  -0.000000  -0.000000
    24  H   -0.047434  -0.000031   0.000005   0.000001   0.000002   0.000001
              19         20         21         22         23         24
     1  N    0.000000   0.000000  -0.000000  -0.000000  -0.000000  -0.000150
     2  C   -0.000000  -0.000000   0.000000  -0.000000   0.000000   0.004301
     3  N    0.000000  -0.000000   0.000000  -0.000000   0.000000  -0.000225
     4  C   -0.000002   0.000002   0.000003  -0.000001  -0.000000   0.003527
     5  C   -0.000002  -0.000000  -0.000002  -0.000000   0.000000  -0.000125
     6  C    0.000088  -0.000033  -0.000009  -0.000046   0.000006  -0.055077
     7  C   -0.004609   0.003214   0.003237   0.000356   0.000030  -0.004640
     8  O   -0.031747  -0.033291  -0.003914   0.000680   0.003067   0.010646
     9  C    0.376965   0.393523  -0.028542  -0.033174  -0.025006  -0.000277
    10  C   -0.040459  -0.046751   0.387958   0.383742   0.366358   0.000021
    11  O    0.011714   0.000235   0.004922   0.000094   0.000009   0.000089
    12  C    0.000063  -0.000059  -0.000021   0.000012  -0.000000   0.386574
    13  N    0.000000  -0.000001   0.000000   0.000000  -0.000000  -0.047434
    14  H   -0.000000  -0.000000  -0.000000   0.000000  -0.000000  -0.000031
    15  H   -0.000000   0.000000  -0.000000  -0.000000  -0.000000   0.000005
    16  H    0.000002   0.000000  -0.000000  -0.000000   0.000000   0.000001
    17  H   -0.000000  -0.000000  -0.000000  -0.000000  -0.000000   0.000002
    18  H   -0.000001   0.000000   0.000005  -0.000000  -0.000000   0.000001
    19  H    0.606166  -0.043023  -0.005732   0.005170   0.000374   0.000041
    20  H   -0.043023   0.615105   0.004828  -0.005952  -0.000307  -0.000037
    21  H   -0.005732   0.004828   0.560200  -0.032135  -0.027192  -0.000002
    22  H    0.005170  -0.005952  -0.032135   0.592990  -0.028827   0.000034
    23  H    0.000374  -0.000307  -0.027192  -0.028827   0.602879  -0.000000
    24  H    0.000041  -0.000037  -0.000002   0.000034  -0.000000   0.573855
 Mulliken charges:
               1
     1  N   -0.625038
     2  C    0.633272
     3  N   -0.518448
     4  C    0.252450
     5  C   -0.342492
     6  C   -0.014342
     7  C    0.595614
     8  O   -0.483438
     9  C    0.046995
    10  C   -0.340357
    11  O   -0.505954
    12  C    0.101243
    13  N   -0.491015
    14  H    0.284359
    15  H    0.284158
    16  H    0.138248
    17  H    0.118042
    18  H    0.138202
    19  H    0.124992
    20  H    0.112547
    21  H    0.136396
    22  H    0.117057
    23  H    0.108610
    24  H    0.128901
 Sum of Mulliken charges =  -0.00000
 Mulliken charges with hydrogens summed into heavy atoms:
               1
     1  N   -0.056521
     2  C    0.633272
     3  N   -0.518448
     4  C    0.252450
     5  C    0.052000
     6  C   -0.014342
     7  C    0.595614
     8  O   -0.483438
     9  C    0.284534
    10  C    0.021706
    11  O   -0.505954
    12  C    0.230143
    13  N   -0.491015
 Electronic spatial extent (au):  <R**2>=           2999.8882
 Charge=             -0.0000 electrons
 Dipole moment (field-independent basis, Debye):
    X=             -0.5757    Y=             -1.4475    Z=              0.1112  Tot=              1.5617
 Quadrupole moment (field-independent basis, Debye-Ang):
   XX=            -56.2128   YY=            -77.5392   ZZ=            -75.2699
   XY=             -2.5967   XZ=             -1.2688   YZ=              0.2528
 Traceless Quadrupole moment (field-independent basis, Debye-Ang):
   XX=             13.4612   YY=             -7.8652   ZZ=             -5.5959
   XY=             -2.5967   XZ=             -1.2688   YZ=              0.2528
 Octapole moment (field-independent basis, Debye-Ang**2):
  XXX=            -43.9358  YYY=              0.1080  ZZZ=             -2.4772  XYY=             -6.1859
  XXY=            -35.2582  XXZ=              1.7585  XZZ=              8.1010  YZZ=              1.9598
  YYZ=              0.3514  XYZ=              2.8742
 Hexadecapole moment (field-independent basis, Debye-Ang**3):
 XXXX=          -2291.4870 YYYY=           -762.2806 ZZZZ=           -152.8852 XXXY=             74.5048
 XXXZ=            -53.9823 YYYX=             -2.4486 YYYZ=              1.4805 ZZZX=             -6.9596
 ZZZY=             -0.4339 XXYY=           -601.9684 XXZZ=           -528.6546 YYZZ=           -151.5448
 XXYZ=              1.1636 YYXZ=             -3.8032 ZZXY=              1.0305
 N-N= 7.810639159185D+02 E-N=-3.021359855641D+03  KE= 6.201849966049D+02
 Calling FoFJK, ICntrl=      2127 FMM=F ISym2X=0 I1Cent= 0 IOpClX= 0 NMat=1 NMatS=1 NMatT=0.
 ***** Axes restored to original set *****
 -------------------------------------------------------------------
 Center     Atomic                   Forces (Hartrees/Bohr)
 Number     Number              X              Y              Z
 -------------------------------------------------------------------
      1        7           0.019890032   -0.012187661   -0.000675164
      2        6          -0.011931504    0.007258805    0.000389663
      3        7           0.021714782   -0.007872044    0.001783506
      4        6          -0.027054322   -0.007681238   -0.010206363
      5        6           0.002778321    0.005329475    0.003248821
      6        6           0.011303187    0.006447968    0.005563771
      7        6          -0.000628445   -0.022062555   -0.009939914
      8        8          -0.015270646    0.013292404    0.005982967
      9        6           0.013354450   -0.009450986   -0.012962835
     10        6          -0.005052913   -0.002405833    0.001654133
     11        8          -0.001256406    0.019987822    0.008996757
     12        6          -0.027898043    0.010554709   -0.001989318
     13        7           0.024172403   -0.009134919    0.001735687
     14        1          -0.003046987    0.000372460   -0.000572977
     15        1          -0.001834477    0.002668202    0.000772390
     16        1           0.005148632   -0.001845002   -0.000537266
     17        1          -0.002465277    0.007461576    0.002751951
     18        1           0.004825659   -0.002496939    0.000877793
     19        1          -0.004440388   -0.002155085   -0.002987809
     20        1          -0.006004314    0.005539882    0.002534961
     21        1          -0.002014388   -0.001753241    0.000095720
     22        1          -0.000586796    0.003037128    0.001137524
     23        1           0.002879886   -0.001343792    0.002213137
     24        1           0.003417553   -0.001561134    0.000132868
 -------------------------------------------------------------------
 Cartesian Forces:  Max     0.027898043 RMS     0.009332333

 GradGradGradGradGradGradGradGradGradGradGradGradGradGradGradGradGradGrad
 Berny optimization.
 FormGI is forming the generalized inverse of G from B-inverse, IUseBI=4.
 Internal  Forces:  Max     0.028655634 RMS     0.006423602
 Search for a local minimum.
 Step number   1 out of a maximum of  117
 All quantities printed in internal units (Hartrees-Bohrs-Radians)
 Mixed Optimization -- RFO/linear search
 Second derivative matrix not updated -- first step.
 ITU=  0
     Eigenvalues ---    0.00300   0.00485   0.00748   0.01234   0.01336
     Eigenvalues ---    0.01370   0.01554   0.01974   0.02032   0.02032
     Eigenvalues ---    0.02077   0.02201   0.02237   0.02244   0.02388
     Eigenvalues ---    0.04848   0.05459   0.05493   0.05797   0.06969
     Eigenvalues ---    0.07221   0.11507   0.13885   0.16000   0.16000
     Eigenvalues ---    0.16000   0.16000   0.16000   0.16000   0.16000
     Eigenvalues ---    0.16000   0.16000   0.21969   0.23293   0.25000
     Eigenvalues ---    0.25000   0.25000   0.25000   0.25000   0.25000
     Eigenvalues ---    0.25000   0.25000   0.28949   0.30250   0.32237
     Eigenvalues ---    0.34553   0.34754   0.34765   0.34771   0.34823
     Eigenvalues ---    0.34855   0.34857   0.34864   0.35777   0.41815
     Eigenvalues ---    0.41820   0.43286   0.46826   0.46844   0.50169
     Eigenvalues ---    0.50341   0.53193   0.53309   0.53510   0.55708
     Eigenvalues ---    0.90460
 RFO step:  Lambda=-1.28710502D-02 EMin= 3.00421330D-03
 Linear search not attempted -- first point.
 Iteration  1 RMS(Cart)=  0.07921612 RMS(Int)=  0.00106718
 Iteration  2 RMS(Cart)=  0.00202187 RMS(Int)=  0.00013371
 Iteration  3 RMS(Cart)=  0.00000129 RMS(Int)=  0.00013370
 Iteration  4 RMS(Cart)=  0.00000000 RMS(Int)=  0.00013370
 Variable       Old X    -DE/DX   Delta X   Delta X   Delta X     New X
                                 (Linear)    (Quad)   (Total)
    R1        2.59695  -0.01758   0.00000  -0.03417  -0.03417   2.56278
    R2        1.89891   0.00009   0.00000   0.00019   0.00019   1.89910
    R3        1.89910   0.00003   0.00000   0.00007   0.00007   1.89918
    R4        2.54288   0.00272   0.00000   0.00545   0.00542   2.54829
    R5        2.54241   0.00144   0.00000   0.00288   0.00284   2.54525
    R6        2.56884  -0.02300   0.00000  -0.04191  -0.04191   2.52693
    R7        2.87468  -0.01114   0.00000  -0.03533  -0.03533   2.83935
    R8        2.67138  -0.00368   0.00000  -0.00863  -0.00860   2.66278
    R9        2.05911   0.00231   0.00000   0.00638   0.00638   2.06549
   R10        2.06048  -0.00000   0.00000  -0.00001  -0.00001   2.06047
   R11        2.05897   0.00237   0.00000   0.00657   0.00657   2.06553
   R12        2.83713  -0.01789   0.00000  -0.05336  -0.05336   2.78376
   R13        2.65842  -0.00466   0.00000  -0.01107  -0.01104   2.64739
   R14        2.56774  -0.01123   0.00000  -0.02061  -0.02061   2.54713
   R15        2.32722  -0.02189   0.00000  -0.02386  -0.02386   2.30336
   R16        2.69152   0.00095   0.00000   0.00219   0.00219   2.69372
   R17        2.90109  -0.00712   0.00000  -0.02356  -0.02356   2.87753
   R18        2.06407   0.00145   0.00000   0.00406   0.00406   2.06813
   R19        2.06058   0.00164   0.00000   0.00454   0.00454   2.06512
   R20        2.06076   0.00163   0.00000   0.00453   0.00453   2.06529
   R21        2.05963   0.00270   0.00000   0.00746   0.00746   2.06709
   R22        2.05907   0.00331   0.00000   0.00915   0.00915   2.06822
   R23        2.56466  -0.02866   0.00000  -0.05268  -0.05268   2.51198
   R24        2.04431   0.00203   0.00000   0.00548   0.00548   2.04979
    A1        2.06113   0.00184   0.00000   0.01067   0.01067   2.07180
    A2        2.05900   0.00224   0.00000   0.01295   0.01295   2.07195
    A3        2.16306  -0.00408   0.00000  -0.02362  -0.02362   2.13944
    A4        2.03570  -0.00183   0.00000  -0.00792  -0.00789   2.02780
    A5        2.03551  -0.00165   0.00000  -0.00725  -0.00722   2.02829
    A6        2.21198   0.00349   0.00000   0.01517   0.01511   2.22709
    A7        2.03266   0.00092   0.00000   0.00672   0.00668   2.03933
    A8        1.97953   0.01161   0.00000   0.04420   0.04418   2.02371
    A9        2.13681  -0.00807   0.00000  -0.03083  -0.03078   2.10603
   A10        2.16685  -0.00353   0.00000  -0.01338  -0.01340   2.15345
   A11        1.92204   0.00243   0.00000   0.01224   0.01234   1.93437
   A12        1.96217  -0.01145   0.00000  -0.06240  -0.06224   1.89993
   A13        1.92179   0.00238   0.00000   0.01184   0.01193   1.93372
   A14        1.88143   0.00547   0.00000   0.03538   0.03554   1.91698
   A15        1.89276  -0.00403   0.00000  -0.03090  -0.03088   1.86187
   A16        1.88170   0.00544   0.00000   0.03500   0.03515   1.91685
   A17        2.16379  -0.00756   0.00000  -0.02747  -0.02751   2.13628
   A18        2.01030   0.00776   0.00000   0.02694   0.02702   2.03732
   A19        2.10909  -0.00020   0.00000   0.00053   0.00049   2.10958
   A20        1.97255  -0.00840   0.00000  -0.03195  -0.03196   1.94059
   A21        2.16738   0.00615   0.00000   0.02340   0.02338   2.19077
   A22        2.14324   0.00225   0.00000   0.00858   0.00857   2.15181
   A23        2.12028  -0.02525   0.00000  -0.09606  -0.09606   2.02422
   A24        1.93672   0.00390   0.00000   0.00809   0.00824   1.94495
   A25        1.93854  -0.00262   0.00000  -0.02584  -0.02590   1.91264
   A26        1.88431  -0.00667   0.00000  -0.05468  -0.05466   1.82965
   A27        1.93628  -0.00150   0.00000  -0.00088  -0.00121   1.93507
   A28        1.90817   0.00415   0.00000   0.03592   0.03569   1.94386
   A29        1.85717   0.00263   0.00000   0.03813   0.03709   1.89426
   A30        1.93878  -0.00204   0.00000  -0.01101  -0.01106   1.92772
   A31        1.93914  -0.00172   0.00000  -0.00990  -0.00996   1.92918
   A32        1.93505  -0.00203   0.00000  -0.01257  -0.01265   1.92240
   A33        1.88379   0.00221   0.00000   0.01436   0.01433   1.89812
   A34        1.87957   0.00212   0.00000   0.01219   0.01212   1.89169
   A35        1.88518   0.00177   0.00000   0.00878   0.00870   1.89388
   A36        2.15406   0.00193   0.00000   0.00540   0.00544   2.15950
   A37        2.12472  -0.00420   0.00000  -0.02141  -0.02143   2.10329
   A38        2.00440   0.00227   0.00000   0.01601   0.01599   2.02039
   A39        2.02056  -0.00603   0.00000  -0.02341  -0.02346   1.99710
    D1        3.14100   0.00000   0.00000   0.00004   0.00004   3.14104
    D2       -0.00070  -0.00000   0.00000  -0.00011  -0.00011  -0.00081
    D3        0.00067   0.00001   0.00000   0.00030   0.00030   0.00097
    D4       -3.14102   0.00000   0.00000   0.00014   0.00014  -3.14088
    D5       -3.14151  -0.00001   0.00000  -0.00021  -0.00022   3.14146
    D6        0.00020  -0.00000   0.00000  -0.00004  -0.00004   0.00016
    D7        3.14158  -0.00001   0.00000  -0.00022  -0.00022   3.14136
    D8       -0.00012  -0.00001   0.00000  -0.00040  -0.00040  -0.00053
    D9        3.14134   0.00001   0.00000   0.00033   0.00032  -3.14152
   D10        0.00002   0.00002   0.00000   0.00052   0.00051   0.00053
   D11       -2.10307  -0.00098   0.00000  -0.01128  -0.01122  -2.11429
   D12       -0.00476   0.00003   0.00000   0.00064   0.00063  -0.00413
   D13        2.09372   0.00098   0.00000   0.01180   0.01175   2.10547
   D14        1.03825  -0.00099   0.00000  -0.01147  -0.01141   1.02684
   D15        3.13656   0.00002   0.00000   0.00045   0.00044   3.13700
   D16       -1.04814   0.00097   0.00000   0.01161   0.01156  -1.03658
   D17       -3.14038  -0.00000   0.00000  -0.00001  -0.00001  -3.14039
   D18       -0.00027  -0.00002   0.00000  -0.00051  -0.00052  -0.00079
   D19        0.00151   0.00000   0.00000   0.00019   0.00018   0.00169
   D20       -3.14157  -0.00001   0.00000  -0.00032  -0.00032   3.14129
   D21       -3.12691  -0.00017   0.00000  -0.00727  -0.00729  -3.13420
   D22        0.01058   0.00006   0.00000   0.00200   0.00202   0.01260
   D23        0.01625  -0.00016   0.00000  -0.00676  -0.00678   0.00947
   D24       -3.12945   0.00007   0.00000   0.00252   0.00253  -3.12692
   D25        0.00036   0.00000   0.00000   0.00005   0.00005   0.00040
   D26       -3.14058   0.00001   0.00000   0.00023   0.00023  -3.14034
   D27        3.14051  -0.00002   0.00000  -0.00047  -0.00047   3.14004
   D28       -0.00042  -0.00001   0.00000  -0.00028  -0.00029  -0.00071
   D29       -3.12933   0.00037   0.00000   0.01165   0.01162  -3.11771
   D30        0.01631   0.00013   0.00000   0.00248   0.00251   0.01882
   D31        1.44293  -0.00121   0.00000  -0.00202  -0.00197   1.44096
   D32       -0.71959  -0.00021   0.00000   0.01189   0.01220  -0.70739
   D33       -2.74947   0.00201   0.00000   0.01245   0.01209  -2.73738
   D34       -1.10269  -0.00067   0.00000  -0.00858  -0.00859  -1.11129
   D35        0.99464  -0.00039   0.00000  -0.00445  -0.00448   0.99015
   D36        3.09122  -0.00066   0.00000  -0.00835  -0.00836   3.08286
   D37        1.06112  -0.00232   0.00000  -0.03673  -0.03692   1.02420
   D38       -3.12474  -0.00204   0.00000  -0.03260  -0.03281   3.12564
   D39       -1.02816  -0.00230   0.00000  -0.03649  -0.03669  -1.06485
   D40        3.10401   0.00254   0.00000   0.03122   0.03145   3.13546
   D41       -1.08185   0.00282   0.00000   0.03536   0.03556  -1.04628
   D42        1.01474   0.00255   0.00000   0.03146   0.03168   1.04642
   D43       -0.00018   0.00001   0.00000   0.00038   0.00038   0.00021
   D44        3.14080   0.00001   0.00000   0.00020   0.00020   3.14099
         Item               Value     Threshold  Converged?
 Maximum Force            0.028656     0.000450     NO 
 RMS     Force            0.006424     0.000300     NO 
 Maximum Displacement     0.294716     0.001800     NO 
 RMS     Displacement     0.080590     0.001200     NO 
 Predicted change in Energy=-6.782813D-03
 GradGradGradGradGradGradGradGradGradGradGradGradGradGradGradGradGradGrad

                          Input orientation:                          
 ---------------------------------------------------------------------
 Center     Atomic      Atomic             Coordinates (Angstroms)
 Number     Number       Type             X           Y           Z
 ---------------------------------------------------------------------
      1          7           0       -3.949793    2.070013    0.065630
      2          6           0       -2.776856    1.389483    0.048786
      3          7           0       -2.806149    0.167266   -0.520227
      4          6           0       -1.656595   -0.515401   -0.544127
      5          6           0       -1.712086   -1.874345   -1.182686
      6          6           0       -0.482027    0.035470    0.005830
      7          6           0        0.804595   -0.681882   -0.001120
      8          8           0        1.772146    0.047365    0.589500
      9          6           0        3.070833   -0.539853    0.612057
     10          6           0        3.808409   -0.310023   -0.700135
     11          8           0        0.996419   -1.787499   -0.477034
     12          6           0       -0.588653    1.314902    0.566460
     13          7           0       -1.719082    2.013376    0.601940
     14          1           0       -3.971160    2.984800    0.481145
     15          1           0       -4.763783    1.639215   -0.336688
     16          1           0       -1.407133   -2.649231   -0.474712
     17          1           0       -2.731089   -2.063153   -1.521587
     18          1           0       -1.022895   -1.933860   -2.028968
     19          1           0        2.986285   -1.609055    0.829729
     20          1           0        3.582682   -0.054821    1.446922
     21          1           0        3.287543   -0.806158   -1.522927
     22          1           0        3.875574    0.759337   -0.920329
     23          1           0        4.822716   -0.716504   -0.638604
     24          1           0        0.277698    1.797556    1.005845
 ---------------------------------------------------------------------
                    Distance matrix (angstroms):
                    1          2          3          4          5
     1  N    0.000000
     2  C    1.356165   0.000000
     3  N    2.295995   1.348498   0.000000
     4  C    3.509263   2.288037   1.337191   0.000000
     5  C    4.703571   3.647305   2.409150   1.502520   0.000000
     6  C    4.020987   2.664852   2.386556   1.409085   2.563788
     7  C    5.493776   4.137612   3.745396   2.525871   3.025185
     8  O    6.091480   4.773581   4.712394   3.654870   4.355856
     9  C    7.509938   6.183452   6.026691   4.866819   5.279989
    10  C    8.151114   6.842143   6.634196   5.471086   5.758109
    11  O    6.296022   4.960575   4.275804   2.942995   2.800266
    12  C    3.481132   2.249840   2.723095   2.392470   3.806956
    13  N    2.294974   1.346888   2.418490   2.777064   4.277769
    14  H    1.004960   2.039199   3.209127   4.319700   5.610975
    15  H    1.005000   2.039322   2.456145   3.786822   4.730082
    16  H    5.387796   4.296673   3.145151   2.149484   1.093011
    17  H    4.592118   3.793265   2.446042   2.122617   1.090353
    18  H    5.383778   4.293955   3.141819   2.149036   1.093032
    19  H    7.888508   6.543309   6.207253   4.963858   5.118094
    20  H    7.947393   6.669672   6.688509   5.623738   6.185473
    21  H    7.948264   6.638378   6.251883   5.048474   5.123775
    22  H    7.995396   6.752118   6.719826   5.689585   6.182803
    23  H    9.231334   7.915882   7.680798   6.483120   6.658848
    24  H    4.339345   3.226885   3.807473   3.390232   4.715057
                    6          7          8          9         10
     6  C    0.000000
     7  C    1.473105   0.000000
     8  O    2.328542   1.347883   0.000000
     9  C    3.649839   2.352019   1.425455   0.000000
    10  C    4.361834   3.106413   2.436648   1.522725   0.000000
    11  O    2.396284   1.218884   2.259640   2.654417   3.184336
    12  C    1.400937   2.500087   2.679656   4.102930   4.855801
    13  N    2.407855   3.741262   4.006748   5.427924   6.135693
    14  H    4.593313   6.040279   6.451808   7.875911   8.530708
    15  H    4.585057   6.042096   6.790447   8.187164   8.798528
    16  H    2.879993   2.997748   4.302557   5.067813   5.720541
    17  H    3.434457   4.089106   5.402786   6.366724   6.820065
    18  H    2.882915   3.003221   4.312062   5.067236   5.267271
    19  H    3.925871   2.511918   2.067745   1.094405   2.168838
    20  H    4.313555   3.194965   2.005905   1.092815   2.173922
    21  H    4.153925   2.914854   2.736289   2.162416   1.092904
    22  H    4.513363   3.514680   2.685312   2.164188   1.093859
    23  H    5.396394   4.068524   3.376050   2.159735   1.094455
    24  H    2.163830   2.727492   2.338779   3.663353   4.451761
                   11         12         13         14         15
    11  O    0.000000
    12  C    3.636788   0.000000
    13  N    4.794245   1.329283   0.000000
    14  H    6.954839   3.773220   2.455629   0.000000
    15  H    6.703879   4.283989   3.207993   1.762867   0.000000
    16  H    2.553361   4.179510   4.795456   6.263402   5.447652
    17  H    3.880901   4.512342   4.706550   5.570506   4.386725
    18  H    2.550990   4.180822   4.794478   6.259884   5.442878
    19  H    2.387266   4.625907   5.942590   8.344523   8.483828
    20  H    3.659581   4.477878   5.753271   8.199545   8.701407
    21  H    2.702993   4.887672   6.126265   8.430684   8.497697
    22  H    3.869421   4.737987   5.932124   8.275751   8.703638
    23  H    3.976642   5.904381   7.196271   9.606547   9.876312
    24  H    3.945645   1.084702   2.048621   4.442708   5.219578
                   16         17         18         19         20
    16  H    0.000000
    17  H    1.786699   0.000000
    18  H    1.753599   1.786639   0.000000
    19  H    4.699538   6.198650   4.934691   0.000000
    20  H    5.943223   7.260106   6.068273   1.775461   0.000000
    21  H    5.151277   6.148493   4.484157   2.504075   3.077600
    22  H    6.302691   7.209436   5.698894   3.076169   2.520420
    23  H    6.524824   7.723542   6.130762   2.514981   2.514942
    24  H    4.980424   5.508701   4.982479   4.355739   3.814285
                   21         22         23         24
    21  H    0.000000
    22  H    1.777550   0.000000
    23  H    1.773929   1.776106   0.000000
    24  H    4.715208   4.211028   5.448110   0.000000
 Stoichiometry    C8H11N3O2
 Framework group  C1[X(C8H11N3O2)]
 Deg. of freedom    66
 Full point group                 C1      NOp   1
 Largest Abelian subgroup         C1      NOp   1
 Largest concise Abelian subgroup C1      NOp   1
                         Standard orientation:                         
 ---------------------------------------------------------------------
 Center     Atomic      Atomic             Coordinates (Angstroms)
 Number     Number       Type             X           Y           Z
 ---------------------------------------------------------------------
      1          7           0       -4.075758   -0.822501    0.189405
      2          6           0       -2.753166   -0.541867    0.083681
      3          7           0       -2.417504    0.763797    0.115633
      4          6           0       -1.116605    1.055545    0.012549
      5          6           0       -0.765282    2.515919    0.050557
      6          6           0       -0.158822    0.030944   -0.122967
      7          6           0        1.283288    0.308686   -0.237932
      8          8           0        1.990332   -0.831687   -0.366103
      9          6           0        3.405166   -0.682517   -0.455057
     10          6           0        4.037333   -0.538584    0.922745
     11          8           0        1.795381    1.414578   -0.216906
     12          6           0       -0.641306   -1.284152   -0.141802
     13          7           0       -1.928644   -1.599611   -0.040615
     14          1           0       -4.368331   -1.783724    0.169487
     15          1           0       -4.724921   -0.061052    0.283257
     16          1           0       -0.241167    2.813476   -0.861274
     17          1           0       -1.682215    3.096352    0.156398
     18          1           0       -0.091781    2.731440    0.884023
     19          1           0        3.644275    0.179349   -1.085721
     20          1           0        3.750809   -1.588391   -0.959208
     21          1           0        3.686430    0.374382    1.410391
     22          1           0        3.781583   -1.394834    1.553581
     23          1           0        5.126887   -0.485582    0.833877
     24          1           0        0.042432   -2.120197   -0.242347
 ---------------------------------------------------------------------
 Rotational constants (GHZ):           1.7823262           0.4564759           0.3777780
 Standard basis: 6-31G(d,p) (6D, 7F)
 There are   250 symmetry adapted cartesian basis functions of A   symmetry.
 There are   250 symmetry adapted basis functions of A   symmetry.
   250 basis functions,   441 primitive gaussians,   250 cartesian basis functions
    48 alpha electrons       48 beta electrons
       nuclear repulsion energy       791.3663269391 Hartrees.
 NAtoms=   24 NActive=   24 NUniq=   24 SFac= 1.00D+00 NAtFMM=   60 NAOKFM=F Big=F
 Integral buffers will be    131072 words long.
 Raffenetti 2 integral format.
 Two-electron integral symmetry is turned on.
 Nuclear repulsion after empirical dispersion term =      791.3245291164 Hartrees.
 One-electron integrals computed using PRISM.
 NBasis=   250 RedAO= T EigKep=  9.21D-04  NBF=   250
 NBsUse=   250 1.00D-06 EigRej= -1.00D+00 NBFU=   250
 Initial guess from the checkpoint file:  "pyrmd1_conf-2.chk"
 B after Tr=    -0.000000   -0.000000   -0.000000
         Rot=    0.999969    0.005108   -0.000036    0.005924 Ang=   0.90 deg.
 ExpMin= 1.61D-01 ExpMax= 5.48D+03 ExpMxC= 8.25D+02 IAcc=3 IRadAn=         5 AccDes= 0.00D+00
 Harris functional with IExCor=  402 and IRadAn=       5 diagonalized for initial guess.
 HarFok:  IExCor=  402 AccDes= 0.00D+00 IRadAn=         5 IDoV= 1 UseB2=F ITyADJ=14
 ICtDFT=  3500011 ScaDFX=  1.000000  1.000000  1.000000  1.000000
 FoFCou: FMM=F IPFlag=           0 FMFlag=      100000 FMFlg1=           0
         NFxFlg=           0 DoJE=T BraDBF=F KetDBF=T FulRan=T
         wScrn=  0.000000 ICntrl=       500 IOpCl=  0 I1Cent=   200000004 NGrid=           0
         NMat0=    1 NMatS0=      1 NMatT0=    0 NMatD0=    1 NMtDS0=    0 NMtDT0=    0
 Petite list used in FoFCou.
 Requested convergence on RMS density matrix=1.00D-08 within 128 cycles.
 Requested convergence on MAX density matrix=1.00D-06.
 Requested convergence on             energy=1.00D-06.
 No special actions if energy rises.
 Integral accuracy reduced to 1.0D-05 until final iterations.
 Initial convergence to 1.0D-05 achieved.  Increase integral accuracy.
 SCF Done:  E(RB3LYP) =  -626.275901654     A.U. after   12 cycles
            NFock= 12  Conv=0.47D-08     -V/T= 2.0092
 Calling FoFJK, ICntrl=      2127 FMM=F ISym2X=0 I1Cent= 0 IOpClX= 0 NMat=1 NMatS=1 NMatT=0.
 ***** Axes restored to original set *****
 -------------------------------------------------------------------
 Center     Atomic                   Forces (Hartrees/Bohr)
 Number     Number              X              Y              Z
 -------------------------------------------------------------------
      1        7           0.004364692   -0.003022355   -0.000297878
      2        6          -0.009793590    0.002589760   -0.001272771
      3        7           0.004212761   -0.000969141    0.000588495
      4        6          -0.006758858   -0.001699592   -0.002470243
      5        6          -0.002357255    0.000490730   -0.000297630
      6        6           0.005132104    0.000321301    0.001794948
      7        6          -0.007108794   -0.001536715   -0.003696627
      8        8          -0.001051905    0.004376593    0.002712717
      9        6           0.011546821   -0.004674479    0.001226901
     10        6          -0.000758127    0.000299523   -0.000062823
     11        8           0.001616120   -0.000421843    0.000686155
     12        6          -0.003597767    0.004610599    0.001273736
     13        7           0.004886468   -0.002207907    0.000183742
     14        1          -0.001608901    0.000437072   -0.000195871
     15        1          -0.001180273    0.001250556    0.000281992
     16        1           0.001116835    0.000168579   -0.000915762
     17        1          -0.000496458    0.000552937    0.000110908
     18        1           0.000645880   -0.000738840    0.001058184
     19        1          -0.000884647    0.000884337   -0.000885615
     20        1           0.000142823    0.000696274   -0.000363611
     21        1           0.000185603   -0.000179504    0.000671674
     22        1           0.000301930    0.000043087   -0.000038043
     23        1           0.000022778    0.000091551    0.000191872
     24        1           0.001421760   -0.001362524   -0.000284450
 -------------------------------------------------------------------
 Cartesian Forces:  Max     0.011546821 RMS     0.002836751

 GradGradGradGradGradGradGradGradGradGradGradGradGradGradGradGradGradGrad
 Berny optimization.
 Using GEDIIS/GDIIS optimizer.
 FormGI is forming the generalized inverse of G from B-inverse, IUseBI=4.
 Internal  Forces:  Max     0.010799599 RMS     0.001978321
 Search for a local minimum.
 Step number   2 out of a maximum of  117
 All quantities printed in internal units (Hartrees-Bohrs-Radians)
 Mixed Optimization -- RFO/linear search
 Update second derivatives using D2CorX and points    1    2
 DE= -6.24D-03 DEPred=-6.78D-03 R= 9.20D-01
 TightC=F SS=  1.41D+00  RLast= 2.30D-01 DXNew= 5.0454D-01 6.9030D-01
 Trust test= 9.20D-01 RLast= 2.30D-01 DXMaxT set to 5.05D-01
 ITU=  1  0
 Use linear search instead of GDIIS.
     Eigenvalues ---    0.00300   0.00485   0.00748   0.01228   0.01317
     Eigenvalues ---    0.01371   0.01565   0.01974   0.02032   0.02032
     Eigenvalues ---    0.02080   0.02200   0.02237   0.02246   0.02389
     Eigenvalues ---    0.04874   0.05547   0.05576   0.05624   0.07164
     Eigenvalues ---    0.07277   0.11741   0.13908   0.15082   0.16000
     Eigenvalues ---    0.16000   0.16000   0.16000   0.16000   0.16000
     Eigenvalues ---    0.16000   0.16112   0.21903   0.23244   0.24331
     Eigenvalues ---    0.25000   0.25000   0.25000   0.25000   0.25000
     Eigenvalues ---    0.25000   0.27885   0.28853   0.30128   0.33027
     Eigenvalues ---    0.34585   0.34754   0.34763   0.34776   0.34810
     Eigenvalues ---    0.34848   0.34859   0.34883   0.35764   0.41536
     Eigenvalues ---    0.43024   0.43405   0.46825   0.46843   0.49284
     Eigenvalues ---    0.50411   0.51750   0.53406   0.55552   0.58885
     Eigenvalues ---    0.90508
 RFO step:  Lambda=-1.08839534D-03 EMin= 3.00400673D-03
 Quartic linear search produced a step of -0.05391.
 Iteration  1 RMS(Cart)=  0.02377591 RMS(Int)=  0.00010040
 Iteration  2 RMS(Cart)=  0.00017360 RMS(Int)=  0.00003779
 Iteration  3 RMS(Cart)=  0.00000001 RMS(Int)=  0.00003779
 Variable       Old X    -DE/DX   Delta X   Delta X   Delta X     New X
                                 (Linear)    (Quad)   (Total)
    R1        2.56278  -0.00204   0.00184  -0.00854  -0.00670   2.55608
    R2        1.89910   0.00035  -0.00001   0.00073   0.00072   1.89982
    R3        1.89918   0.00031  -0.00000   0.00063   0.00063   1.89980
    R4        2.54829   0.00010  -0.00029   0.00080   0.00052   2.54881
    R5        2.54525   0.00408  -0.00015   0.00715   0.00700   2.55225
    R6        2.52693  -0.00128   0.00226  -0.00806  -0.00580   2.52113
    R7        2.83935  -0.00037   0.00190  -0.00611  -0.00420   2.83515
    R8        2.66278   0.00722   0.00046   0.01461   0.01507   2.67786
    R9        2.06549  -0.00040  -0.00034  -0.00019  -0.00054   2.06495
   R10        2.06047   0.00033   0.00000   0.00090   0.00090   2.06137
   R11        2.06553  -0.00037  -0.00035  -0.00009  -0.00044   2.06509
   R12        2.78376   0.00371   0.00288   0.00337   0.00625   2.79001
   R13        2.64739   0.00198   0.00059   0.00280   0.00339   2.65077
   R14        2.54713   0.00917   0.00111   0.01343   0.01454   2.56167
   R15        2.30336   0.00037   0.00129  -0.00287  -0.00158   2.30177
   R16        2.69372   0.01080  -0.00012   0.02466   0.02454   2.71826
   R17        2.87753  -0.00074   0.00127  -0.00572  -0.00445   2.87308
   R18        2.06813  -0.00097  -0.00022  -0.00208  -0.00230   2.06582
   R19        2.06512   0.00010  -0.00024   0.00090   0.00066   2.06578
   R20        2.06529  -0.00051  -0.00024  -0.00076  -0.00100   2.06429
   R21        2.06709   0.00007  -0.00040   0.00123   0.00082   2.06792
   R22        2.06822  -0.00000  -0.00049   0.00127   0.00078   2.06900
   R23        2.51198  -0.00050   0.00284  -0.00814  -0.00530   2.50668
   R24        2.04979   0.00041  -0.00030   0.00185   0.00156   2.05135
    A1        2.07180   0.00099  -0.00058   0.00738   0.00680   2.07860
    A2        2.07195   0.00113  -0.00070   0.00853   0.00783   2.07978
    A3        2.13944  -0.00213   0.00127  -0.01591  -0.01464   2.12480
    A4        2.02780   0.00141   0.00043   0.00442   0.00484   2.03264
    A5        2.02829   0.00232   0.00039   0.00794   0.00832   2.03661
    A6        2.22709  -0.00372  -0.00081  -0.01236  -0.01316   2.21393
    A7        2.03933   0.00281  -0.00036   0.01111   0.01076   2.05009
    A8        2.02371  -0.00202  -0.00238  -0.00146  -0.00384   2.01987
    A9        2.10603   0.00039   0.00166  -0.00269  -0.00103   2.10499
   A10        2.15345   0.00163   0.00072   0.00414   0.00487   2.15832
   A11        1.93437   0.00041  -0.00066   0.00295   0.00228   1.93665
   A12        1.89993  -0.00074   0.00336  -0.01076  -0.00740   1.89253
   A13        1.93372   0.00038  -0.00064   0.00264   0.00200   1.93572
   A14        1.91698   0.00062  -0.00192   0.01142   0.00950   1.92648
   A15        1.86187  -0.00127   0.00166  -0.01699  -0.01533   1.84655
   A16        1.91685   0.00062  -0.00189   0.01119   0.00929   1.92615
   A17        2.13628   0.00197   0.00148   0.00328   0.00477   2.14106
   A18        2.03732  -0.00273  -0.00146  -0.00596  -0.00743   2.02989
   A19        2.10958   0.00076  -0.00003   0.00268   0.00266   2.11224
   A20        1.94059   0.00351   0.00172   0.00875   0.01029   1.95089
   A21        2.19077   0.00022  -0.00126   0.00421   0.00276   2.19352
   A22        2.15181  -0.00373  -0.00046  -0.01279  -0.01344   2.13837
   A23        2.02422   0.00429   0.00518   0.00256   0.00774   2.03196
   A24        1.94495   0.00059  -0.00044   0.00167   0.00121   1.94617
   A25        1.91264  -0.00064   0.00140  -0.01074  -0.00935   1.90330
   A26        1.82965  -0.00005   0.00295  -0.00890  -0.00595   1.82370
   A27        1.93507  -0.00005   0.00006  -0.00016  -0.00010   1.93498
   A28        1.94386  -0.00056  -0.00192   0.00317   0.00125   1.94511
   A29        1.89426   0.00071  -0.00200   0.01472   0.01275   1.90702
   A30        1.92772  -0.00050   0.00060  -0.00429  -0.00369   1.92403
   A31        1.92918   0.00042   0.00054   0.00178   0.00232   1.93150
   A32        1.92240  -0.00026   0.00068  -0.00439  -0.00371   1.91869
   A33        1.89812   0.00026  -0.00077   0.00549   0.00472   1.90284
   A34        1.89169   0.00022  -0.00065   0.00158   0.00092   1.89261
   A35        1.89388  -0.00013  -0.00047   0.00002  -0.00044   1.89344
   A36        2.15950   0.00056  -0.00029   0.00344   0.00314   2.16264
   A37        2.10329  -0.00227   0.00116  -0.01615  -0.01499   2.08830
   A38        2.02039   0.00171  -0.00086   0.01271   0.01185   2.03224
   A39        1.99710   0.00269   0.00126   0.00645   0.00772   2.00482
    D1        3.14104  -0.00001  -0.00000  -0.00023  -0.00023   3.14081
    D2       -0.00081  -0.00001   0.00001  -0.00025  -0.00025  -0.00105
    D3        0.00097   0.00000  -0.00002   0.00016   0.00015   0.00112
    D4       -3.14088   0.00000  -0.00001   0.00014   0.00013  -3.14075
    D5        3.14146   0.00000   0.00001   0.00016   0.00018  -3.14155
    D6        0.00016   0.00000   0.00000   0.00018   0.00019   0.00035
    D7        3.14136  -0.00001   0.00001  -0.00027  -0.00025   3.14111
    D8       -0.00053  -0.00001   0.00002  -0.00029  -0.00026  -0.00079
    D9       -3.14152   0.00000  -0.00002   0.00030   0.00028  -3.14124
   D10        0.00053  -0.00001  -0.00003  -0.00023  -0.00026   0.00026
   D11       -2.11429  -0.00054   0.00060  -0.00805  -0.00744  -2.12173
   D12       -0.00413   0.00001  -0.00003   0.00098   0.00095  -0.00318
   D13        2.10547   0.00054  -0.00063   0.00954   0.00890   2.11438
   D14        1.02684  -0.00053   0.00062  -0.00750  -0.00688   1.01996
   D15        3.13700   0.00002  -0.00002   0.00153   0.00151   3.13851
   D16       -1.03658   0.00055  -0.00062   0.01009   0.00946  -1.02712
   D17       -3.14039   0.00002   0.00000   0.00122   0.00121  -3.13917
   D18       -0.00079   0.00001   0.00003   0.00039   0.00042  -0.00037
   D19        0.00169   0.00001  -0.00001   0.00064   0.00063   0.00232
   D20        3.14129   0.00000   0.00002  -0.00018  -0.00017   3.14113
   D21       -3.13420   0.00025   0.00039   0.01559   0.01604  -3.11815
   D22        0.01260  -0.00027  -0.00011  -0.01901  -0.01918  -0.00658
   D23        0.00947   0.00026   0.00037   0.01646   0.01689   0.02635
   D24       -3.12692  -0.00026  -0.00014  -0.01815  -0.01834   3.13792
   D25        0.00040  -0.00001  -0.00000  -0.00052  -0.00052  -0.00012
   D26       -3.14034   0.00001  -0.00001   0.00062   0.00060  -3.13974
   D27        3.14004  -0.00002   0.00003  -0.00133  -0.00130   3.13874
   D28       -0.00071   0.00000   0.00002  -0.00019  -0.00018  -0.00089
   D29       -3.11771  -0.00025  -0.00063  -0.01516  -0.01565  -3.13336
   D30        0.01882   0.00027  -0.00014   0.01860   0.01833   0.03715
   D31        1.44096   0.00010   0.00011   0.00071   0.00082   1.44177
   D32       -0.70739   0.00021  -0.00066   0.00730   0.00663  -0.70077
   D33       -2.73738  -0.00028  -0.00065  -0.00003  -0.00067  -2.73805
   D34       -1.11129  -0.00008   0.00046  -0.01629  -0.01582  -1.12711
   D35        0.99015   0.00019   0.00024  -0.01106  -0.01082   0.97933
   D36        3.08286   0.00013   0.00045  -0.01273  -0.01228   3.07057
   D37        1.02420  -0.00053   0.00199  -0.02901  -0.02701   0.99719
   D38        3.12564  -0.00026   0.00177  -0.02379  -0.02201   3.10363
   D39       -1.06485  -0.00032   0.00198  -0.02545  -0.02347  -1.08832
   D40        3.13546  -0.00005  -0.00170  -0.00826  -0.00996   3.12551
   D41       -1.04628   0.00023  -0.00192  -0.00303  -0.00496  -1.05124
   D42        1.04642   0.00017  -0.00171  -0.00470  -0.00642   1.04000
   D43        0.00021   0.00001  -0.00002   0.00045   0.00044   0.00064
   D44        3.14099  -0.00001  -0.00001  -0.00065  -0.00067   3.14033
         Item               Value     Threshold  Converged?
 Maximum Force            0.010800     0.000450     NO 
 RMS     Force            0.001978     0.000300     NO 
 Maximum Displacement     0.091329     0.001800     NO 
 RMS     Displacement     0.023662     0.001200     NO 
 Predicted change in Energy=-5.636363D-04
 GradGradGradGradGradGradGradGradGradGradGradGradGradGradGradGradGradGrad

                          Input orientation:                          
 ---------------------------------------------------------------------
 Center     Atomic      Atomic             Coordinates (Angstroms)
 Number     Number       Type             X           Y           Z
 ---------------------------------------------------------------------
      1          7           0       -3.969735    2.063721    0.074641
      2          6           0       -2.796292    1.391361    0.051399
      3          7           0       -2.816371    0.166756   -0.513514
      4          6           0       -1.669602   -0.514182   -0.547081
      5          6           0       -1.736091   -1.870859   -1.184179
      6          6           0       -0.484183    0.041883   -0.005203
      7          6           0        0.809381   -0.669623   -0.020552
      8          8           0        1.787221    0.051595    0.580496
      9          6           0        3.095442   -0.545611    0.612418
     10          6           0        3.844868   -0.316133   -0.690356
     11          8           0        1.003134   -1.781667   -0.478213
     12          6           0       -0.597671    1.323616    0.553302
     13          7           0       -1.728822    2.015220    0.594917
     14          1           0       -4.000034    2.980041    0.487137
     15          1           0       -4.788629    1.633691   -0.319285
     16          1           0       -1.419540   -2.647583   -0.483790
     17          1           0       -2.761622   -2.048755   -1.510604
     18          1           0       -1.050170   -1.937484   -2.032283
     19          1           0        2.994960   -1.614033    0.820828
     20          1           0        3.597452   -0.059795    1.453235
     21          1           0        3.335872   -0.822861   -1.513416
     22          1           0        3.910008    0.752807   -0.915314
[...]
                 (A) (A) (A) (A) (A) (A) (A) (A) (A) (A) (A) (A)
                 (A) (A) (A) (A) (A) (A) (A) (A) (A) (A) (A) (A)
                 (A) (A) (A) (A) (A) (A) (A) (A) (A) (A) (A) (A)
                 (A)
 The electronic state is 1-A.
 Alpha  occ. eigenvalues --  -19.66844 -19.61341 -14.77400 -14.75249 -14.75065
 Alpha  occ. eigenvalues --  -10.67740 -10.65651 -10.61091 -10.59825 -10.59543
 Alpha  occ. eigenvalues --  -10.55574 -10.53144 -10.52855  -1.22802  -1.13556
 Alpha  occ. eigenvalues --   -1.12197  -1.02234  -1.00325  -0.90327  -0.86396
 Alpha  occ. eigenvalues --   -0.82344  -0.76395  -0.73667  -0.71401  -0.65027
 Alpha  occ. eigenvalues --   -0.63536  -0.61288  -0.60489  -0.57111  -0.55971
 Alpha  occ. eigenvalues --   -0.54459  -0.52742  -0.52064  -0.50010  -0.48257
 Alpha  occ. eigenvalues --   -0.47459  -0.46591  -0.45338  -0.44879  -0.44385
 Alpha  occ. eigenvalues --   -0.41212  -0.39927  -0.39800  -0.37337  -0.37064
 Alpha  occ. eigenvalues --   -0.35337  -0.32300  -0.29236
 Alpha virt. eigenvalues --   -0.01189  -0.00299   0.06616   0.07389   0.08932
 Alpha virt. eigenvalues --    0.09385   0.10660   0.11215   0.11731   0.13025
 Alpha virt. eigenvalues --    0.13560   0.14623   0.15314   0.15606   0.16135
 Alpha virt. eigenvalues --    0.17077   0.17228   0.18797   0.19324   0.21845
 Alpha virt. eigenvalues --    0.22564   0.23615   0.24080   0.25150   0.25644
 Alpha virt. eigenvalues --    0.25978   0.26301   0.26781   0.27267   0.28885
 Alpha virt. eigenvalues --    0.29614   0.30961   0.31656   0.31848   0.33228
 Alpha virt. eigenvalues --    0.33415   0.34861   0.36172   0.36963   0.38120
 Alpha virt. eigenvalues --    0.38221   0.39335   0.40100   0.41078   0.42233
 Alpha virt. eigenvalues --    0.42670   0.43986   0.45033   0.45384   0.46097
 Alpha virt. eigenvalues --    0.46405   0.46897   0.47353   0.48022   0.48138
 Alpha virt. eigenvalues --    0.49038   0.49428   0.50464   0.50864   0.51947
 Alpha virt. eigenvalues --    0.52139   0.52667   0.53104   0.53766   0.55882
 Alpha virt. eigenvalues --    0.56340   0.56685   0.58265   0.59355   0.60346
 Alpha virt. eigenvalues --    0.61710   0.62344   0.63108   0.64585   0.65536
 Alpha virt. eigenvalues --    0.66171   0.66718   0.67684   0.68542   0.69787
 Alpha virt. eigenvalues --    0.70029   0.71297   0.72485   0.73468   0.74311
 Alpha virt. eigenvalues --    0.75326   0.77045   0.78189   0.78382   0.79652
 Alpha virt. eigenvalues --    0.81316   0.81695   0.83773   0.84990   0.86465
 Alpha virt. eigenvalues --    0.88442   0.89343   0.90763   0.92464   0.93896
 Alpha virt. eigenvalues --    0.94822   0.95556   0.97264   0.98622   1.00153
 Alpha virt. eigenvalues --    1.02281   1.02798   1.04651   1.06305   1.08816
 Alpha virt. eigenvalues --    1.09192   1.10242   1.12366   1.12654   1.13190
 Alpha virt. eigenvalues --    1.15392   1.19515   1.20190   1.21640   1.23263
 Alpha virt. eigenvalues --    1.24351   1.28293   1.30597   1.31485   1.32891
 Alpha virt. eigenvalues --    1.35139   1.36621   1.37641   1.38590   1.39629
 Alpha virt. eigenvalues --    1.42717   1.44678   1.45100   1.47812   1.48440
 Alpha virt. eigenvalues --    1.51248   1.52210   1.53293   1.53659   1.54825
 Alpha virt. eigenvalues --    1.55608   1.56686   1.57909   1.58321   1.58797
 Alpha virt. eigenvalues --    1.59326   1.59980   1.60180   1.61069   1.62471
 Alpha virt. eigenvalues --    1.63618   1.64331   1.64846   1.65807   1.68332
 Alpha virt. eigenvalues --    1.68680   1.70226   1.71444   1.73773   1.74241
 Alpha virt. eigenvalues --    1.75294   1.76098   1.78770   1.80138   1.81421
 Alpha virt. eigenvalues --    1.83109   1.83735   1.84053   1.85717   1.86518
 Alpha virt. eigenvalues --    1.87837   1.90212   1.90757   1.92581   1.94812
 Alpha virt. eigenvalues --    1.95390   1.96743   1.99567   2.00996   2.02167
 Alpha virt. eigenvalues --    2.03355   2.04433   2.06137   2.08268   2.09318
 Alpha virt. eigenvalues --    2.10025   2.11689   2.13350   2.14961   2.15943
 Alpha virt. eigenvalues --    2.17534   2.20442   2.21051   2.24216   2.27107
 Alpha virt. eigenvalues --    2.28787   2.29256   2.30013   2.30276   2.33081
 Alpha virt. eigenvalues --    2.34090   2.34349   2.35122   2.37211   2.37919
 Alpha virt. eigenvalues --    2.38760   2.41462   2.41835   2.42867   2.44150
 Alpha virt. eigenvalues --    2.44870   2.46149   2.47667   2.48695   2.49561
 Alpha virt. eigenvalues --    2.53620   2.54795   2.55975   2.57478   2.58816
 Alpha virt. eigenvalues --    2.59763   2.60618   2.61936   2.62897   2.64304
 Alpha virt. eigenvalues --    2.65272   2.67067   2.69564   2.70834   2.72864
 Alpha virt. eigenvalues --    2.73533   2.76200   2.77046   2.80622   2.81395
 Alpha virt. eigenvalues --    2.82764   2.83764   2.84485   2.85358   2.88517
 Alpha virt. eigenvalues --    2.91237   2.91589   2.92647   2.94551   2.95789
 Alpha virt. eigenvalues --    2.96307   2.97427   2.99021   3.00458   3.00508
 Alpha virt. eigenvalues --    3.02761   3.03711   3.04639   3.06107   3.06353
 Alpha virt. eigenvalues --    3.08226   3.08865   3.11917   3.12551   3.13505
 Alpha virt. eigenvalues --    3.15284   3.16155   3.16463   3.17050   3.18191
 Alpha virt. eigenvalues --    3.18723   3.20841   3.21147   3.22517   3.24343
 Alpha virt. eigenvalues --    3.24699   3.26061   3.26795   3.28095   3.29571
 Alpha virt. eigenvalues --    3.30105   3.30987   3.31532   3.32707   3.33469
 Alpha virt. eigenvalues --    3.35425   3.36036   3.36864   3.38274   3.38747
 Alpha virt. eigenvalues --    3.40056   3.41087   3.42110   3.43527   3.45142
 Alpha virt. eigenvalues --    3.47825   3.48651   3.49610   3.50782   3.54059
 Alpha virt. eigenvalues --    3.54593   3.55197   3.58766   3.61393   3.62192
 Alpha virt. eigenvalues --    3.66697   3.67273   3.68813   3.70399   3.74290
 Alpha virt. eigenvalues --    3.75369   3.76140   3.78505   3.79476   3.80749
 Alpha virt. eigenvalues --    3.84172   3.86152   3.87835   3.88838   3.90324
 Alpha virt. eigenvalues --    3.91090   3.92692   3.95280   3.96088   3.98555
 Alpha virt. eigenvalues --    4.00163   4.05961   4.10674   4.10740   4.12928
 Alpha virt. eigenvalues --    4.13460   4.18548   4.19098   4.22334   4.23926
 Alpha virt. eigenvalues --    4.24394   4.31253   4.33056   4.33430   4.36526
 Alpha virt. eigenvalues --    4.38227   4.40861   4.42250   4.44612   4.46673
 Alpha virt. eigenvalues --    4.51061   4.52639   4.54376   4.54491   4.57139
 Alpha virt. eigenvalues --    4.64542   4.66733   4.69095   4.70907   4.73406
 Alpha virt. eigenvalues --    4.73778   4.75239   4.77925   4.81053   4.83243
 Alpha virt. eigenvalues --    4.92711   4.95103   4.96294   4.96508   5.00030
 Alpha virt. eigenvalues --    5.02553   5.02882   5.04759   5.05214   5.11456
 Alpha virt. eigenvalues --    5.15408   5.15959   5.19134   5.19288   5.19451
 Alpha virt. eigenvalues --    5.27847   5.31339   5.32337   5.33585   5.34312
 Alpha virt. eigenvalues --    5.38012   5.39828   5.41986   5.42665   5.48328
 Alpha virt. eigenvalues --    5.49893   5.51491   5.56561   5.64916   5.68245
 Alpha virt. eigenvalues --    5.69844   5.79840   5.81960   5.89277   5.95222
 Alpha virt. eigenvalues --    5.96328   6.06878   6.11328   6.15791   6.20932
 Alpha virt. eigenvalues --    6.36823   6.37178   6.43463   6.58894   6.64831
 Alpha virt. eigenvalues --    6.73655   6.78912   6.90836   6.91698   7.06342
 Alpha virt. eigenvalues --    7.12648   7.28959   7.41896  22.43452  22.54712
 Alpha virt. eigenvalues --   22.58321  22.85594  22.98784  23.26784  23.36019
 Alpha virt. eigenvalues --   23.53065  32.08282  32.51077  32.85925  44.12215
 Alpha virt. eigenvalues --   44.36933
          Condensed to atoms (all electrons):
               1          2          3          4          5          6
     1  N    6.582682   0.391764  -0.109583   0.007331   0.000289  -0.004820
     2  C    0.391764   4.472526   0.501624  -0.096455   0.004123  -0.024337
     3  N   -0.109583   0.501624   6.540301   0.591929  -0.052317  -0.108168
     4  C    0.007331  -0.096455   0.591929   4.951392   0.254109   0.406342
     5  C    0.000289   0.004123  -0.052317   0.254109   5.101584  -0.065108
     6  C   -0.004820  -0.024337  -0.108168   0.406342  -0.065108   5.514593
     7  C   -0.000078   0.003172   0.002300  -0.037491  -0.031047   0.252521
     8  O   -0.000002  -0.000142  -0.000252  -0.006090   0.000068  -0.149651
     9  C   -0.000000  -0.000009   0.000020   0.000199  -0.000403   0.002535
    10  C    0.000000   0.000003  -0.000000  -0.000157   0.000038   0.000936
    11  O   -0.000001   0.000156   0.000155  -0.008793  -0.004271  -0.101242
    12  C    0.007100  -0.107288  -0.015462  -0.047964   0.002242   0.452395
    13  N   -0.110095   0.493766  -0.073219  -0.031300  -0.002354  -0.058647
    14  H    0.368947  -0.027663   0.006124  -0.001007   0.000026   0.000465
    15  H    0.369239  -0.028228   0.008429   0.000750  -0.000336   0.000840
    16  H    0.000005  -0.000560   0.000884  -0.040812   0.415209   0.001834
    17  H   -0.000266   0.000741   0.005905  -0.069382   0.421301   0.013623
    18  H    0.000002  -0.000569   0.000854  -0.038792   0.411981  -0.000468
    19  H    0.000000  -0.000004  -0.000001  -0.000092  -0.000020  -0.001721
    20  H    0.000000   0.000001  -0.000001   0.000053   0.000015   0.004158
    21  H    0.000000   0.000002   0.000000  -0.000079   0.000082   0.004287
    22  H   -0.000000  -0.000002  -0.000000   0.000006  -0.000009  -0.001366
    23  H   -0.000000  -0.000000   0.000000   0.000002   0.000002  -0.000034
    24  H    0.000016   0.005571  -0.001659   0.001474  -0.000137  -0.060040
               7          8          9         10         11         12
     1  N   -0.000078  -0.000002  -0.000000   0.000000  -0.000001   0.007100
     2  C    0.003172  -0.000142  -0.000009   0.000003   0.000156  -0.107288
     3  N    0.002300  -0.000252   0.000020  -0.000000   0.000155  -0.015462
     4  C   -0.037491  -0.006090   0.000199  -0.000157  -0.008793  -0.047964
     5  C   -0.031047   0.000068  -0.000403   0.000038  -0.004271   0.002242
     6  C    0.252521  -0.149651   0.002535   0.000936  -0.101242   0.452395
     7  C    4.548824   0.368854  -0.048030   0.001529   0.630543  -0.047047
     8  O    0.368854   8.027948   0.189056  -0.033127  -0.080133   0.021113
     9  C   -0.048030   0.189056   4.951465   0.273016   0.006041  -0.002104
    10  C    0.001529  -0.033127   0.273016   5.082780  -0.014660   0.000451
    11  O    0.630543  -0.080133   0.006041  -0.014660   7.933245   0.004481
    12  C   -0.047047   0.021113  -0.002104   0.000451   0.004481   4.817262
    13  N    0.004606   0.000082   0.000011  -0.000009  -0.000289   0.543431
    14  H   -0.000003   0.000000  -0.000000   0.000000   0.000000   0.001010
    15  H   -0.000009   0.000000  -0.000000   0.000000   0.000000  -0.001067
    16  H   -0.005837  -0.000060  -0.000092   0.000017  -0.001302   0.000936
    17  H    0.000767   0.000041  -0.000007   0.000001   0.002293  -0.000560
    18  H   -0.003410  -0.000076   0.000103  -0.000045  -0.000802   0.000736
    19  H   -0.015654  -0.031077   0.438504  -0.059656   0.008558   0.000579
    20  H    0.004742  -0.033291   0.403781  -0.036989   0.001124  -0.000535
    21  H    0.003877  -0.003678  -0.041904   0.418126   0.005074  -0.000117
    22  H   -0.003152   0.003077  -0.033754   0.397575   0.000451   0.000105
    23  H    0.000501   0.004773  -0.040159   0.402688   0.000248  -0.000009
    24  H   -0.009545   0.012712  -0.000274  -0.000105   0.000229   0.431897
              13         14         15         16         17         18
     1  N   -0.110095   0.368947   0.369239   0.000005  -0.000266   0.000002
     2  C    0.493766  -0.027663  -0.028228  -0.000560   0.000741  -0.000569
     3  N   -0.073219   0.006124   0.008429   0.000884   0.005905   0.000854
     4  C   -0.031300  -0.001007   0.000750  -0.040812  -0.069382  -0.038792
     5  C   -0.002354   0.000026  -0.000336   0.415209   0.421301   0.411981
     6  C   -0.058647   0.000465   0.000840   0.001834   0.013623  -0.000468
     7  C    0.004606  -0.000003  -0.000009  -0.005837   0.000767  -0.003410
     8  O    0.000082   0.000000   0.000000  -0.000060   0.000041  -0.000076
     9  C    0.000011  -0.000000  -0.000000  -0.000092  -0.000007   0.000103
    10  C   -0.000009   0.000000   0.000000   0.000017   0.000001  -0.000045
    11  O   -0.000289   0.000000   0.000000  -0.001302   0.002293  -0.000802
    12  C    0.543431   0.001010  -0.001067   0.000936  -0.000560   0.000736
    13  N    6.531803   0.008022   0.006159   0.000168   0.000388   0.000170
    14  H    0.008022   0.399687  -0.022756  -0.000001   0.000003  -0.000001
    15  H    0.006159  -0.022756   0.400012   0.000007   0.000129   0.000007
    16  H    0.000168  -0.000001   0.000007   0.511334  -0.021537  -0.027906
    17  H    0.000388   0.000003   0.000129  -0.021537   0.520437  -0.021535
    18  H    0.000170  -0.000001   0.000007  -0.027906  -0.021535   0.512922
    19  H    0.000009  -0.000000  -0.000000   0.000063  -0.000002  -0.000013
    20  H   -0.000000   0.000000   0.000000   0.000001  -0.000000  -0.000000
    21  H    0.000003  -0.000000   0.000000  -0.000005  -0.000000   0.000051
    22  H    0.000004  -0.000000  -0.000000   0.000000  -0.000000   0.000001
    23  H    0.000000  -0.000000  -0.000000  -0.000000  -0.000000  -0.000001
    24  H   -0.025460  -0.000119   0.000017   0.000019   0.000007   0.000015
              19         20         21         22         23         24
     1  N    0.000000   0.000000   0.000000  -0.000000  -0.000000   0.000016
     2  C   -0.000004   0.000001   0.000002  -0.000002  -0.000000   0.005571
     3  N   -0.000001  -0.000001   0.000000  -0.000000   0.000000  -0.001659
     4  C   -0.000092   0.000053  -0.000079   0.000006   0.000002   0.001474
     5  C   -0.000020   0.000015   0.000082  -0.000009   0.000002  -0.000137
     6  C   -0.001721   0.004158   0.004287  -0.001366  -0.000034  -0.060040
     7  C   -0.015654   0.004742   0.003877  -0.003152   0.000501  -0.009545
     8  O   -0.031077  -0.033291  -0.003678   0.003077   0.004773   0.012712
     9  C    0.438504   0.403781  -0.041904  -0.033754  -0.040159  -0.000274
    10  C   -0.059656  -0.036989   0.418126   0.397575   0.402688  -0.000105
    11  O    0.008558   0.001124   0.005074   0.000451   0.000248   0.000229
    12  C    0.000579  -0.000535  -0.000117   0.000105  -0.000009   0.431897
    13  N    0.000009  -0.000000   0.000003   0.000004   0.000000  -0.025460
    14  H   -0.000000   0.000000  -0.000000  -0.000000  -0.000000  -0.000119
    15  H   -0.000000   0.000000   0.000000  -0.000000  -0.000000   0.000017
    16  H    0.000063   0.000001  -0.000005   0.000000  -0.000000   0.000019
    17  H   -0.000002  -0.000000  -0.000000  -0.000000  -0.000000   0.000007
    18  H   -0.000013  -0.000000   0.000051   0.000001  -0.000001   0.000015
    19  H    0.532383  -0.029120  -0.005108   0.007479   0.001549   0.000256
    20  H   -0.029120   0.550447   0.005185  -0.005734  -0.002835  -0.000294
    21  H   -0.005108   0.005185   0.493535  -0.025499  -0.022302  -0.000004
    22  H    0.007479  -0.005734  -0.025499   0.538365  -0.020182   0.000169
    23  H    0.001549  -0.002835  -0.022302  -0.020182   0.535865   0.000001
    24  H    0.000256  -0.000294  -0.000004   0.000169   0.000001   0.475418
 Mulliken charges:
               1
     1  N   -0.502530
     2  C    0.411806
     3  N   -0.297864
     4  C    0.164825
     5  C   -0.455068
     6  C   -0.078926
     7  C    0.379065
     8  O   -0.290146
     9  C   -0.097993
    10  C   -0.432410
    11  O   -0.381105
    12  C   -0.061587
    13  N   -0.287251
    14  H    0.267267
    15  H    0.266804
    16  H    0.167637
    17  H    0.147651
    18  H    0.166777
    19  H    0.153088
    20  H    0.139294
    21  H    0.168474
    22  H    0.142464
    23  H    0.139892
    24  H    0.169836
 Sum of Mulliken charges =  -0.00000
 Mulliken charges with hydrogens summed into heavy atoms:
               1
     1  N    0.031540
     2  C    0.411806
     3  N   -0.297864
     4  C    0.164825
     5  C    0.026998
     6  C   -0.078926
     7  C    0.379065
     8  O   -0.290146
     9  C    0.194390
    10  C    0.018419
    11  O   -0.381105
    12  C    0.108250
    13  N   -0.287251
 Electronic spatial extent (au):  <R**2>=           2924.8024
 Charge=             -0.0000 electrons
 Dipole moment (field-independent basis, Debye):
    X=             -0.7901    Y=             -1.2515    Z=              0.1681  Tot=              1.4896
 Quadrupole moment (field-independent basis, Debye-Ang):
   XX=            -57.1916   YY=            -78.7042   ZZ=            -77.2729
   XY=             -2.3220   XZ=             -1.2141   YZ=              0.2502
 Traceless Quadrupole moment (field-independent basis, Debye-Ang):
   XX=             13.8646   YY=             -7.6480   ZZ=             -6.2166
   XY=             -2.3220   XZ=             -1.2141   YZ=              0.2502
 Octapole moment (field-independent basis, Debye-Ang**2):
  XXX=            -50.0661  YYY=              0.7182  ZZZ=             -2.8037  XYY=             -3.8530
  XXY=            -34.0137  XXZ=              2.9416  XZZ=              8.0456  YZZ=              1.6725
  YYZ=              0.2271  XYZ=              2.8105
 Hexadecapole moment (field-independent basis, Debye-Ang**3):
 XXXX=          -2252.8792 YYYY=           -768.4570 ZZZZ=           -163.5365 XXXY=             72.1624
 XXXZ=            -55.1481 YYYX=             -6.2083 YYYZ=              1.7723 ZZZX=             -7.5578
 ZZZY=             -0.6492 XXYY=           -601.5685 XXZZ=           -532.1202 YYZZ=           -154.4420
 XXYZ=              0.6092 YYXZ=             -4.1105 ZZXY=              0.7186
 N-N= 7.891027668937D+02 E-N=-3.039559607767D+03  KE= 6.230052837019D+02
 Unable to Open any file for archive entry.
 1\1\GINC-COMPUTE-0-33\SP\RM062X\def2TZVP\C8H11N3O2\ZTAN64\14-Aug-2024\
 0\\# M062X/def2tzvp int=(grid=ultrafine) nmr=giao guess=read geom=chec
 k\\pyrmd1.xyz\\0,1\N,0,-3.9685734003,2.0660840425,0.0671674133\C,0,-2.
 7966515462,1.3924567008,0.0496962472\N,0,-2.8127214426,0.1695677496,-0
 .5182295256\C,0,-1.6662064828,-0.512145353,-0.5454689596\C,0,-1.728166
 8452,-1.8683026538,-1.1866752645\C,0,-0.4830876415,0.040680234,0.00637
 58889\C,0,0.806602631,-0.6739781508,-0.0022958475\O,0,1.7877512976,0.0
 543275016,0.590975262\C,0,3.1010341537,-0.5464908809,0.6132241802\C,0,
 3.8333796911,-0.3198956352,-0.6992244743\O,0,1.0011694134,-1.781601461
 9,-0.4727519162\C,0,-0.6009293538,1.3219865056,0.5665894356\N,0,-1.732
 0434419,2.0145017927,0.6022809184\H,0,-4.0035855271,2.9814798748,0.481
 7186761\H,0,-4.787055464,1.6401983411,-0.3323888378\H,0,-1.4161346534,
 -2.645332566,-0.484340231\H,0,-2.7482110505,-2.0508690631,-1.525656426
 3\H,0,-1.0313118227,-1.933351932,-2.0261275882\H,0,2.9980419265,-1.612
 740034,0.8267316349\H,0,3.6085577241,-0.0557691689,1.4466326082\H,0,3.
 3185677018,-0.832868616,-1.5143078942\H,0,3.8920867736,0.7474600706,-0
 .9306676332\H,0,4.8521482326,-0.7149431246,-0.6310940414\H,0,0.2729391
 267,1.7965458267,1.0025363751\\Version=ES64L-G16RevC.01\State=1-A\HF=-
 626.2035995\RMSD=2.024e-09\Dipole=-0.1563682,0.5462234,0.1436327\Quadr
 upole=9.5751405,-4.9187532,-4.6563872,-3.5282972,1.4274898,-0.7334367\
 PG=C01 [X(C8H11N3O2)]\\@
 The archive entry for this job was punched.


 SOME PEOPLE TRY TO PULL THE WOOL OVER YOUR EYES
 USING THE WRONG YARN.
 Job cpu time:       0 days  0 hours 36 minutes 16.8 seconds.
 Elapsed time:       0 days  0 hours  2 minutes 25.2 seconds.
 File lengths (MBytes):  RWF=    126 Int=      0 D2E=      0 Chk=     21 Scr=      1
 Normal termination of Gaussian 16 at Wed Aug 14 20:22:26 2024.
 
 
-----Kestrel cluster job statistics-----
Time info:

real	11m21.867s
user	177m52.238s
sys	0m20.411s
 
Disk space usage:
21M	/scratch/362986.kestrel.chem.wisc.edu
