 Entering Gaussian System, Link 0=/share/apps/gaussian/g16/g16
 Initial command:
 /share/apps/gaussian/g16/l1.exe "/scratch/362997.kestrel.chem.wisc.edu/Gau-22815.inp" -scrdir="/scratch/362997.kestrel.chem.wisc.edu/"
 Entering Link 1 = /share/apps/gaussian/g16/l1.exe PID=     22816.
  
 Copyright (c) 1988-2019, Gaussian, Inc.  All Rights Reserved.
  
 This is part of the Gaussian(R) 16 program.  It is based on
 the Gaussian(R) 09 system (copyright 2009, Gaussian, Inc.),
 the Gaussian(R) 03 system (copyright 2003, Gaussian, Inc.),
 the Gaussian(R) 98 system (copyright 1998, Gaussian, Inc.),
 the Gaussian(R) 94 system (copyright 1995, Gaussian, Inc.),
 the Gaussian 92(TM) system (copyright 1992, Gaussian, Inc.),
 the Gaussian 90(TM) system (copyright 1990, Gaussian, Inc.),
 the Gaussian 88(TM) system (copyright 1988, Gaussian, Inc.),
 the Gaussian 86(TM) system (copyright 1986, Carnegie Mellon
 University), and the Gaussian 82(TM) system (copyright 1983,
 Carnegie Mellon University). Gaussian is a federally registered
 trademark of Gaussian, Inc.
  
 This software contains proprietary and confidential information,
 including trade secrets, belonging to Gaussian, Inc.
  
 This software is provided under written license and may be
 used, copied, transmitted, or stored only in accord with that
 written license.
  
 The following legend is applicable only to US Government
 contracts under FAR:
  
                    RESTRICTED RIGHTS LEGEND
  
 Use, reproduction and disclosure by the US Government is
 subject to restrictions as set forth in subparagraphs (a)
 and (c) of the Commercial Computer Software - Restricted
 Rights clause in FAR 52.227-19.
  
 Gaussian, Inc.
 340 Quinnipiac St., Bldg. 40, Wallingford CT 06492
  
  
 ---------------------------------------------------------------
 Warning -- This program may not be used in any manner that
 competes with the business of Gaussian, Inc. or will provide
 assistance to any competitor of Gaussian, Inc.  The licensee
 of this program is prohibited from giving any competitor of
 Gaussian, Inc. access to this program.  By using this program,
 the user acknowledges that Gaussian, Inc. is engaged in the
 business of creating and licensing software in the field of
 computational chemistry and represents and warrants to the
 licensee that it is not a competitor of Gaussian, Inc. and that
 it will not use this program in any manner prohibited above.
 ---------------------------------------------------------------
  

 Cite this work as:
 Gaussian 16, Revision C.01,
 M. J. Frisch, G. W. Trucks, H. B. Schlegel, G. E. Scuseria, 
 M. A. Robb, J. R. Cheeseman, G. Scalmani, V. Barone, 
 G. A. Petersson, H. Nakatsuji, X. Li, M. Caricato, A. V. Marenich, 
 J. Bloino, B. G. Janesko, R. Gomperts, B. Mennucci, H. P. Hratchian, 
 J. V. Ortiz, A. F. Izmaylov, J. L. Sonnenberg, D. Williams-Young, 
 F. Ding, F. Lipparini, F. Egidi, J. Goings, B. Peng, A. Petrone, 
 T. Henderson, D. Ranasinghe, V. G. Zakrzewski, J. Gao, N. Rega, 
 G. Zheng, W. Liang, M. Hada, M. Ehara, K. Toyota, R. Fukuda, 
 J. Hasegawa, M. Ishida, T. Nakajima, Y. Honda, O. Kitao, H. Nakai, 
 T. Vreven, K. Throssell, J. A. Montgomery, Jr., J. E. Peralta, 
 F. Ogliaro, M. J. Bearpark, J. J. Heyd, E. N. Brothers, K. N. Kudin, 
 V. N. Staroverov, T. A. Keith, R. Kobayashi, J. Normand, 
 K. Raghavachari, A. P. Rendell, J. C. Burant, S. S. Iyengar, 
 J. Tomasi, M. Cossi, J. M. Millam, M. Klene, C. Adamo, R. Cammi, 
 J. W. Ochterski, R. L. Martin, K. Morokuma, O. Farkas, 
 J. B. Foresman, and D. J. Fox, Gaussian, Inc., Wallingford CT, 2019.
 
 ******************************************
 Gaussian 16:  ES64L-G16RevC.01  3-Jul-2019
                14-Aug-2024 
 ******************************************
 %nprocs=16
 Will use up to   16 processors via shared memory.
 %mem=16GB
 %chk=pyrmd7_conf-1.chk
 ----------------------------------------------------------------------
 # B3LYP/6-31G(d,p) symmetry=loose empiricaldispersion=GD3BJ int=(grid=
 ultrafine) opt freq=noraman
 ----------------------------------------------------------------------
 1/18=20,19=15,26=4,38=1/1,3;
 2/9=110,12=2,17=4,18=3,40=1/2;
 3/5=1,6=6,7=101,11=2,25=1,30=1,71=1,74=-5,75=-5,124=41/1,2,3;
 4//1;
 5/5=2,38=5/2;
 6/7=2,8=2,9=2,10=2,28=1/1;
 7//1,2,3,16;
 1/18=20,19=15,26=4/3(2);
 2/9=110/2;
 99//99;
 2/9=110/2;
 3/5=1,6=6,7=101,11=2,25=1,30=1,71=1,74=-5,75=-5,124=41/1,2,3;
 4/5=5,16=3,69=1/1;
 5/5=2,38=5/2;
 7//1,2,3,16;
 1/18=20,19=15,26=4/3(-5);
 2/9=110/2;
 6/7=2,8=2,9=2,10=2,19=2,28=1/1;
 99/9=1/99;
 ----------
 pyrmd7.xyz
 ----------
 Symbolic Z-matrix:
 Charge =  0 Multiplicity = 1
 Cl                   -2.4018    3.1719   -0.1715 
 C                    -1.0722    2.0805   -0.054 
 N                     0.1735    2.6155    0.0149 
 C                     1.2092    1.7438    0.107 
 C                     1.0227    0.3586    0.1312 
 C                     2.1998   -0.5981    0.235 
 C                    -0.2974   -0.1033    0.0554 
 O                    -0.5365   -1.4653    0.0755 
 C                    -1.8808   -1.9373   -0.0017 
 N                    -1.3538    0.7536   -0.0377 
 H                     2.196     2.181     0.1613 
 H                     3.1576   -0.0792    0.2842 
 H                     2.2122   -1.2683   -0.6256 
 H                     2.0965   -1.221     1.1244 
 H                    -1.8868   -3.0267    0.0267 
 H                    -2.3602   -1.6264   -0.9315 
 H                    -2.4783   -1.5796    0.8386 
 

 GradGradGradGradGradGradGradGradGradGradGradGradGradGradGradGradGradGrad
 Berny optimization.
 Initialization pass.
                           ----------------------------
                           !    Initial Parameters    !
                           ! (Angstroms and Degrees)  !
 --------------------------                            --------------------------
 ! Name  Definition              Value          Derivative Info.                !
 --------------------------------------------------------------------------------
 ! R1    R(1,2)                  1.7242         estimate D2E/DX2                !
 ! R2    R(2,3)                  1.3575         estimate D2E/DX2                !
 ! R3    R(2,10)                 1.3565         estimate D2E/DX2                !
 ! R4    R(3,4)                  1.3568         estimate D2E/DX2                !
 ! R5    R(4,5)                  1.3979         estimate D2E/DX2                !
 ! R6    R(4,11)                 1.0807         estimate D2E/DX2                !
 ! R7    R(5,6)                  1.5204         estimate D2E/DX2                !
 ! R8    R(5,7)                  1.4006         estimate D2E/DX2                !
 ! R9    R(6,12)                 1.0904         estimate D2E/DX2                !
 ! R10   R(6,13)                 1.0909         estimate D2E/DX2                !
 ! R11   R(6,14)                 1.0907         estimate D2E/DX2                !
 ! R12   R(7,8)                  1.383          estimate D2E/DX2                !
 ! R13   R(7,10)                 1.3634         estimate D2E/DX2                !
 ! R14   R(8,9)                  1.4268         estimate D2E/DX2                !
 ! R15   R(9,15)                 1.0898         estimate D2E/DX2                !
 ! R16   R(9,16)                 1.0913         estimate D2E/DX2                !
 ! R17   R(9,17)                 1.0914         estimate D2E/DX2                !
 ! A1    A(1,2,3)              117.4929         estimate D2E/DX2                !
 ! A2    A(1,2,10)             117.3807         estimate D2E/DX2                !
 ! A3    A(3,2,10)             125.1264         estimate D2E/DX2                !
 ! A4    A(2,3,4)              116.7894         estimate D2E/DX2                !
 ! A5    A(3,4,5)              122.4081         estimate D2E/DX2                !
 ! A6    A(3,4,11)             116.1364         estimate D2E/DX2                !
 ! A7    A(5,4,11)             121.4555         estimate D2E/DX2                !
 ! A8    A(4,5,6)              121.4272         estimate D2E/DX2                !
 ! A9    A(4,5,7)              116.8457         estimate D2E/DX2                !
 ! A10   A(6,5,7)              121.7271         estimate D2E/DX2                !
 ! A11   A(5,6,12)             112.5617         estimate D2E/DX2                !
 ! A12   A(5,6,13)             109.9705         estimate D2E/DX2                !
 ! A13   A(5,6,14)             109.9802         estimate D2E/DX2                !
 ! A14   A(12,6,13)            108.5404         estimate D2E/DX2                !
 ! A15   A(12,6,14)            108.5512         estimate D2E/DX2                !
 ! A16   A(13,6,14)            107.0684         estimate D2E/DX2                !
 ! A17   A(5,7,8)              119.1397         estimate D2E/DX2                !
 ! A18   A(5,7,10)             121.7826         estimate D2E/DX2                !
 ! A19   A(8,7,10)             119.0777         estimate D2E/DX2                !
 ! A20   A(7,8,9)              119.2015         estimate D2E/DX2                !
 ! A21   A(8,9,15)             109.5397         estimate D2E/DX2                !
 ! A22   A(8,9,16)             111.4522         estimate D2E/DX2                !
 ! A23   A(8,9,17)             111.4525         estimate D2E/DX2                !
 ! A24   A(15,9,16)            107.7319         estimate D2E/DX2                !
 ! A25   A(15,9,17)            107.7318         estimate D2E/DX2                !
 ! A26   A(16,9,17)            108.7914         estimate D2E/DX2                !
 ! A27   A(2,10,7)             117.0479         estimate D2E/DX2                !
 ! D1    D(1,2,3,4)            179.9999         estimate D2E/DX2                !
 ! D2    D(10,2,3,4)            -0.0008         estimate D2E/DX2                !
 ! D3    D(1,2,10,7)          -179.9993         estimate D2E/DX2                !
 ! D4    D(3,2,10,7)             0.0014         estimate D2E/DX2                !
 ! D5    D(2,3,4,5)             -0.0001         estimate D2E/DX2                !
 ! D6    D(2,3,4,11)          -179.9956         estimate D2E/DX2                !
 ! D7    D(3,4,5,6)           -179.9989         estimate D2E/DX2                !
 ! D8    D(3,4,5,7)              0.0004         estimate D2E/DX2                !
 ! D9    D(11,4,5,6)            -0.0036         estimate D2E/DX2                !
 ! D10   D(11,4,5,7)           179.9957         estimate D2E/DX2                !
 ! D11   D(4,5,6,12)            -0.0538         estimate D2E/DX2                !
 ! D12   D(4,5,6,13)          -121.2074         estimate D2E/DX2                !
 ! D13   D(4,5,6,14)           121.1205         estimate D2E/DX2                !
 ! D14   D(7,5,6,12)           179.947          estimate D2E/DX2                !
 ! D15   D(7,5,6,13)            58.7934         estimate D2E/DX2                !
 ! D16   D(7,5,6,14)           -58.8788         estimate D2E/DX2                !
 ! D17   D(4,5,7,8)           -179.999          estimate D2E/DX2                !
 ! D18   D(4,5,7,10)             0.0002         estimate D2E/DX2                !
 ! D19   D(6,5,7,8)              0.0003         estimate D2E/DX2                !
 ! D20   D(6,5,7,10)           179.9994         estimate D2E/DX2                !
 ! D21   D(5,7,8,9)           -179.9975         estimate D2E/DX2                !
 ! D22   D(10,7,8,9)             0.0033         estimate D2E/DX2                !
 ! D23   D(5,7,10,2)            -0.001          estimate D2E/DX2                !
 ! D24   D(8,7,10,2)           179.9982         estimate D2E/DX2                !
 ! D25   D(7,8,9,15)           179.9979         estimate D2E/DX2                !
 ! D26   D(7,8,9,16)            60.8749         estimate D2E/DX2                !
 ! D27   D(7,8,9,17)           -60.879          estimate D2E/DX2                !
 --------------------------------------------------------------------------------
 Trust Radius=3.00D-01 FncErr=1.00D-07 GrdErr=1.00D-06 EigMax=2.50D+02 EigMin=1.00D-04
 Number of steps in this run=     81 maximum allowed number of steps=    102.
 GradGradGradGradGradGradGradGradGradGradGradGradGradGradGradGradGradGrad

                          Input orientation:                          
 ---------------------------------------------------------------------
 Center     Atomic      Atomic             Coordinates (Angstroms)
 Number     Number       Type             X           Y           Z
 ---------------------------------------------------------------------
      1         17           0       -2.401800    3.171900   -0.171500
      2          6           0       -1.072200    2.080500   -0.054000
      3          7           0        0.173500    2.615500    0.014900
      4          6           0        1.209200    1.743800    0.107000
      5          6           0        1.022700    0.358600    0.131200
      6          6           0        2.199800   -0.598100    0.235000
      7          6           0       -0.297400   -0.103300    0.055400
      8          8           0       -0.536500   -1.465300    0.075500
      9          6           0       -1.880800   -1.937300   -0.001700
     10          7           0       -1.353800    0.753600   -0.037700
     11          1           0        2.196000    2.181000    0.161300
     12          1           0        3.157600   -0.079200    0.284200
     13          1           0        2.212200   -1.268300   -0.625600
     14          1           0        2.096500   -1.221000    1.124400
     15          1           0       -1.886800   -3.026700    0.026700
     16          1           0       -2.360200   -1.626400   -0.931500
     17          1           0       -2.478300   -1.579600    0.838600
 ---------------------------------------------------------------------
                    Distance matrix (angstroms):
                    1          2          3          4          5
     1  Cl   0.000000
     2  C    1.724180   0.000000
     3  N    2.641306   1.357476   0.000000
     4  C    3.893116   2.311725   1.356841   0.000000
     5  C    4.442239   2.718059   2.414180   1.397908   0.000000
     6  C    5.962622   4.238443   3.805465   2.546010   1.520399
     7  C    3.899605   2.319756   2.759576   2.384174   1.400629
     8  O    5.004396   3.588376   4.142548   3.653325   2.400170
     9  C    5.138502   4.098693   4.994839   4.807329   3.703935
    10  N    2.639011   1.356550   2.408751   2.751437   2.415016
    11  H    4.715125   3.276826   2.073820   1.080679   2.167644
    12  H    6.456333   4.761291   4.029737   2.674134   2.184691
    13  H    6.419547   4.725301   4.432882   3.258137   2.152780
    14  H    6.419629   4.725377   4.432567   3.257674   2.152819
    15  H    6.223114   5.172386   6.006613   5.687648   4.465016
    16  H    4.858293   4.021201   5.030808   5.017703   4.063689
    17  H    4.858282   4.021217   5.030844   5.017757   4.063746
                    6          7          8          9         10
     6  C    0.000000
     7  C    2.552076   0.000000
     8  O    2.874859   1.382974   0.000000
     9  C    4.301253   2.423628   1.426845   0.000000
    10  N    3.811762   1.363424   2.367343   2.742256   0.000000
    11  H    2.780080   3.383236   4.557348   5.797177   3.831208
    12  H    1.090440   3.462651   3.951102   5.377709   4.598903
    13  H    1.090850   2.849400   2.843537   4.193979   4.141263
    14  H    1.090737   2.850048   2.844743   4.195248   4.141750
    15  H    4.758339   3.327654   2.064864   1.089787   3.818233
    16  H    4.817855   2.747535   2.089470   1.091335   2.734249
    17  H    4.817914   2.747579   2.089491   1.091357   2.734268
                   11         12         13         14         15
    11  H    0.000000
    12  H    2.459326   0.000000
    13  H    3.537958   1.770728   0.000000
    14  H    3.537099   1.770756   1.754458   0.000000
    15  H    6.618724   5.848080   4.507690   4.509121   0.000000
    16  H    6.037339   5.858146   4.596591   4.924759   1.761560
    17  H    6.037378   5.858492   4.923574   4.597725   1.761577
                   16         17
    16  H    0.000000
    17  H    1.774653   0.000000
 Stoichiometry    C6H7ClN2O
 Framework group  C1[X(C6H7ClN2O)]
 Deg. of freedom    45
 Full point group                 C1      NOp   1
 Largest Abelian subgroup         C1      NOp   1
 Largest concise Abelian subgroup C1      NOp   1
                         Standard orientation:                         
 ---------------------------------------------------------------------
 Center     Atomic      Atomic             Coordinates (Angstroms)
 Number     Number       Type             X           Y           Z
 ---------------------------------------------------------------------
      1         17           0        2.968065    0.443969    0.000004
      2          6           0        1.352021   -0.157030   -0.000000
      3          7           0        1.184401   -1.504117   -0.000009
      4          6           0       -0.093053   -1.961423   -0.000009
      5          6           0       -1.196188   -1.102796    0.000001
      6          6           0       -2.618649   -1.639656    0.000025
      7          6           0       -0.927741    0.271866    0.000003
      8          8           0       -1.984214    1.164324    0.000033
      9          6           0       -1.712253    2.565011   -0.000018
     10          7           0        0.347391    0.754532   -0.000008
     11          1           0       -0.214264   -3.035283    0.000057
     12          1           0       -2.654506   -2.729506   -0.000912
     13          1           0       -3.154804   -1.274213   -0.876869
     14          1           0       -3.154406   -1.275576    0.877589
     15          1           0       -2.650978    3.118572   -0.000022
     16          1           0       -1.150913    2.862569   -0.887356
     17          1           0       -1.150873    2.862640    0.887297
 ---------------------------------------------------------------------
 Rotational constants (GHZ):           1.7372296           0.8455994           0.5728022
 Standard basis: 6-31G(d,p) (6D, 7F)
 There are   189 symmetry adapted cartesian basis functions of A   symmetry.
 There are   189 symmetry adapted basis functions of A   symmetry.
   189 basis functions,   353 primitive gaussians,   189 cartesian basis functions
    41 alpha electrons       41 beta electrons
       nuclear repulsion energy       585.1220638175 Hartrees.
 NAtoms=   17 NActive=   17 NUniq=   17 SFac= 1.00D+00 NAtFMM=   60 NAOKFM=F Big=F
 Integral buffers will be    131072 words long.
 Raffenetti 2 integral format.
 Two-electron integral symmetry is turned on.
 Nuclear repulsion after empirical dispersion term =      585.0917279096 Hartrees.
 One-electron integrals computed using PRISM.
 NBasis=   189 RedAO= T EigKep=  1.14D-03  NBF=   189
 NBsUse=   189 1.00D-06 EigRej= -1.00D+00 NBFU=   189
 ExpMin= 1.43D-01 ExpMax= 2.52D+04 ExpMxC= 3.78D+03 IAcc=3 IRadAn=         5 AccDes= 0.00D+00
 Harris functional with IExCor=  402 and IRadAn=       5 diagonalized for initial guess.
 HarFok:  IExCor=  402 AccDes= 0.00D+00 IRadAn=         5 IDoV= 1 UseB2=F ITyADJ=14
 ICtDFT=  3500011 ScaDFX=  1.000000  1.000000  1.000000  1.000000
 FoFCou: FMM=F IPFlag=           0 FMFlag=      100000 FMFlg1=           0
         NFxFlg=           0 DoJE=T BraDBF=F KetDBF=T FulRan=T
         wScrn=  0.000000 ICntrl=       500 IOpCl=  0 I1Cent=   200000004 NGrid=           0
         NMat0=    1 NMatS0=      1 NMatT0=    0 NMatD0=    1 NMtDS0=    0 NMtDT0=    0
 Petite list used in FoFCou.
 Requested convergence on RMS density matrix=1.00D-08 within 128 cycles.
 Requested convergence on MAX density matrix=1.00D-06.
 Requested convergence on             energy=1.00D-06.
 No special actions if energy rises.
 Integral accuracy reduced to 1.0D-05 until final iterations.
 Initial convergence to 1.0D-05 achieved.  Increase integral accuracy.
 SCF Done:  E(RB3LYP) =  -877.811808336     A.U. after   15 cycles
            NFock= 15  Conv=0.39D-08     -V/T= 2.0065

 **********************************************************************

            Population analysis using the SCF Density.

 **********************************************************************

 Orbital symmetries:
       Occupied  (A) (A) (A) (A) (A) (A) (A) (A) (A) (A) (A) (A)
                 (A) (A) (A) (A) (A) (A) (A) (A) (A) (A) (A) (A)
                 (A) (A) (A) (A) (A) (A) (A) (A) (A) (A) (A) (A)
                 (A) (A) (A) (A) (A)
       Virtual   (A) (A) (A) (A) (A) (A) (A) (A) (A) (A) (A) (A)
                 (A) (A) (A) (A) (A) (A) (A) (A) (A) (A) (A) (A)
                 (A) (A) (A) (A) (A) (A) (A) (A) (A) (A) (A) (A)
                 (A) (A) (A) (A) (A) (A) (A) (A) (A) (A) (A) (A)
                 (A) (A) (A) (A) (A) (A) (A) (A) (A) (A) (A) (A)
                 (A) (A) (A) (A) (A) (A) (A) (A) (A) (A) (A) (A)
                 (A) (A) (A) (A) (A) (A) (A) (A) (A) (A) (A) (A)
                 (A) (A) (A) (A) (A) (A) (A) (A) (A) (A) (A) (A)
                 (A) (A) (A) (A) (A) (A) (A) (A) (A) (A) (A) (A)
                 (A) (A) (A) (A) (A) (A) (A) (A) (A) (A) (A) (A)
                 (A) (A) (A) (A) (A) (A) (A) (A) (A) (A) (A) (A)
                 (A) (A) (A) (A) (A) (A) (A) (A) (A) (A) (A) (A)
                 (A) (A) (A) (A)
 The electronic state is 1-A.
 Alpha  occ. eigenvalues -- -101.55341 -19.20374 -14.35462 -14.34618 -10.31850
 Alpha  occ. eigenvalues --  -10.30985 -10.24888 -10.24669 -10.22251 -10.19954
 Alpha  occ. eigenvalues --   -9.47058  -7.23465  -7.22502  -7.22399  -1.08295
 Alpha  occ. eigenvalues --   -0.98963  -0.88712  -0.86749  -0.80787  -0.73184
 Alpha  occ. eigenvalues --   -0.70184  -0.64715  -0.62611  -0.54958  -0.53921
 Alpha  occ. eigenvalues --   -0.48367  -0.47168  -0.45503  -0.44212  -0.44080
 Alpha  occ. eigenvalues --   -0.41915  -0.41725  -0.40450  -0.36374  -0.35886
 Alpha  occ. eigenvalues --   -0.33334  -0.32049  -0.31594  -0.29370  -0.26186
 Alpha  occ. eigenvalues --   -0.25277
 Alpha virt. eigenvalues --   -0.04125  -0.02997   0.04328   0.09545   0.11028
 Alpha virt. eigenvalues --    0.11327   0.11331   0.13795   0.15272   0.16414
 Alpha virt. eigenvalues --    0.16892   0.18130   0.20811   0.21961   0.24693
 Alpha virt. eigenvalues --    0.28920   0.31391   0.33106   0.35517   0.40745
 Alpha virt. eigenvalues --    0.42276   0.43100   0.45107   0.46361   0.48778
 Alpha virt. eigenvalues --    0.50035   0.51837   0.53006   0.53575   0.55271
 Alpha virt. eigenvalues --    0.55878   0.57947   0.60814   0.60953   0.63127
 Alpha virt. eigenvalues --    0.63508   0.65864   0.70251   0.71845   0.74325
 Alpha virt. eigenvalues --    0.77853   0.78201   0.81414   0.82206   0.82402
 Alpha virt. eigenvalues --    0.83710   0.84309   0.84971   0.85989   0.87956
 Alpha virt. eigenvalues --    0.88005   0.88807   0.90040   0.94137   0.94981
 Alpha virt. eigenvalues --    0.97196   0.98457   0.99213   1.03503   1.04713
 Alpha virt. eigenvalues --    1.07989   1.09414   1.12106   1.15080   1.21842
 Alpha virt. eigenvalues --    1.25735   1.26359   1.26652   1.31509   1.32652
 Alpha virt. eigenvalues --    1.37441   1.39664   1.43940   1.48286   1.49373
 Alpha virt. eigenvalues --    1.55879   1.56331   1.58394   1.64616   1.69474
 Alpha virt. eigenvalues --    1.71132   1.75918   1.77354   1.78429   1.79445
 Alpha virt. eigenvalues --    1.83508   1.89380   1.89570   1.90314   1.92121
 Alpha virt. eigenvalues --    1.97835   2.02503   2.03069   2.03936   2.04215
 Alpha virt. eigenvalues --    2.05463   2.08889   2.11366   2.12019   2.13201
 Alpha virt. eigenvalues --    2.15390   2.20990   2.21595   2.26131   2.29079
 Alpha virt. eigenvalues --    2.31593   2.32108   2.36746   2.43583   2.44493
 Alpha virt. eigenvalues --    2.48657   2.51635   2.55259   2.56627   2.59716
 Alpha virt. eigenvalues --    2.60653   2.63908   2.65359   2.67506   2.70140
 Alpha virt. eigenvalues --    2.72022   2.76448   2.76663   2.84322   2.85999
 Alpha virt. eigenvalues --    2.86205   2.93868   3.02369   3.03956   3.17247
 Alpha virt. eigenvalues --    3.18624   3.22599   3.23171   3.40847   3.42187
 Alpha virt. eigenvalues --    3.43845   3.44724   3.55342   3.98082   3.99210
 Alpha virt. eigenvalues --    4.14210   4.15430   4.20538   4.33593   4.41512
 Alpha virt. eigenvalues --    4.45368   4.49970   4.66113
          Condensed to atoms (all electrons):
               1          2          3          4          5          6
     1  Cl  16.815163   0.289849  -0.078245   0.004259   0.000313   0.000014
     2  C    0.289849   4.799091   0.408030  -0.060663  -0.033264   0.000491
     3  N   -0.078245   0.408030   6.806122   0.440717  -0.025615   0.005317
     4  C    0.004259  -0.060663   0.440717   4.778246   0.485101  -0.046764
     5  C    0.000313  -0.033264  -0.025615   0.485101   4.974180   0.333685
     6  C    0.000014   0.000491   0.005317  -0.046764   0.333685   4.993719
     7  C    0.003126  -0.039170  -0.039697  -0.028506   0.476001  -0.049472
     8  O   -0.000076   0.002597  -0.000036   0.001864  -0.081620   0.001908
     9  C   -0.000032   0.000237   0.000030  -0.000022   0.006153  -0.000301
    10  N   -0.079814   0.384759  -0.054596  -0.039170  -0.050336   0.005980
    11  H   -0.000190   0.005772  -0.049374   0.393547  -0.063835  -0.004785
    12  H   -0.000000  -0.000011   0.000089  -0.004008  -0.026658   0.372434
    13  H   -0.000000   0.000024  -0.000116   0.000783  -0.027313   0.377965
    14  H   -0.000000   0.000024  -0.000116   0.000776  -0.027303   0.377983
    15  H   -0.000001  -0.000002   0.000000   0.000004   0.000063  -0.000047
    16  H    0.000031  -0.000106  -0.000001   0.000004  -0.000147   0.000031
    17  H    0.000031  -0.000106  -0.000001   0.000004  -0.000146   0.000031
               7          8          9         10         11         12
     1  Cl   0.003126  -0.000076  -0.000032  -0.079814  -0.000190  -0.000000
     2  C   -0.039170   0.002597   0.000237   0.384759   0.005772  -0.000011
     3  N   -0.039697  -0.000036   0.000030  -0.054596  -0.049374   0.000089
     4  C   -0.028506   0.001864  -0.000022  -0.039170   0.393547  -0.004008
     5  C    0.476001  -0.081620   0.006153  -0.050336  -0.063835  -0.026658
     6  C   -0.049472   0.001908  -0.000301   0.005980  -0.004785   0.372434
     7  C    4.513342   0.301741  -0.029056   0.380845   0.003856   0.003966
     8  O    0.301741   8.201611   0.233936  -0.070545  -0.000045   0.000228
     9  C   -0.029056   0.233936   4.711385  -0.004504   0.000003   0.000000
    10  N    0.380845  -0.070545  -0.004504   6.988646  -0.000336  -0.000106
    11  H    0.003856  -0.000045   0.000003  -0.000336   0.591970   0.005104
    12  H    0.003966   0.000228   0.000000  -0.000106   0.005104   0.592021
    13  H   -0.005044   0.002950  -0.000036  -0.000049   0.000043  -0.028773
    14  H   -0.005036   0.002938  -0.000036  -0.000049   0.000044  -0.028770
    15  H    0.003276  -0.029328   0.388465   0.000457  -0.000000  -0.000000
    16  H   -0.005379  -0.031324   0.383532   0.006562   0.000000   0.000000
    17  H   -0.005378  -0.031324   0.383530   0.006561   0.000000   0.000000
              13         14         15         16         17
     1  Cl  -0.000000  -0.000000  -0.000001   0.000031   0.000031
     2  C    0.000024   0.000024  -0.000002  -0.000106  -0.000106
     3  N   -0.000116  -0.000116   0.000000  -0.000001  -0.000001
     4  C    0.000783   0.000776   0.000004   0.000004   0.000004
     5  C   -0.027313  -0.027303   0.000063  -0.000147  -0.000146
     6  C    0.377965   0.377983  -0.000047   0.000031   0.000031
     7  C   -0.005044  -0.005036   0.003276  -0.005379  -0.005378
     8  O    0.002950   0.002938  -0.029328  -0.031324  -0.031324
     9  C   -0.000036  -0.000036   0.388465   0.383532   0.383530
    10  N   -0.000049  -0.000049   0.000457   0.006562   0.006561
    11  H    0.000043   0.000044  -0.000000   0.000000   0.000000
    12  H   -0.028773  -0.028770  -0.000000   0.000000   0.000000
    13  H    0.574578  -0.031343   0.000002  -0.000025   0.000012
    14  H   -0.031343   0.574533   0.000002   0.000012  -0.000025
    15  H    0.000002   0.000002   0.587030  -0.036432  -0.036433
    16  H   -0.000025   0.000012  -0.036432   0.590455  -0.038327
    17  H    0.000012  -0.000025  -0.036433  -0.038327   0.590460
 Mulliken charges:
               1
     1  Cl   0.045573
     2  C    0.242446
     3  N   -0.412509
     4  C    0.073829
     5  C    0.060739
     6  C   -0.368190
     7  C    0.520586
     8  O   -0.505474
     9  C   -0.073283
    10  N   -0.474303
    11  H    0.118227
    12  H    0.114483
    13  H    0.136342
    14  H    0.136365
    15  H    0.122945
    16  H    0.131114
    17  H    0.131111
 Sum of Mulliken charges =  -0.00000
 Mulliken charges with hydrogens summed into heavy atoms:
               1
     1  Cl   0.045573
     2  C    0.242446
     3  N   -0.412509
     4  C    0.192056
     5  C    0.060739
     6  C    0.019000
     7  C    0.520586
     8  O   -0.505474
     9  C    0.311886
    10  N   -0.474303
 Electronic spatial extent (au):  <R**2>=           1860.3796
 Charge=             -0.0000 electrons
 Dipole moment (field-independent basis, Debye):
    X=             -3.4220    Y=              0.3629    Z=              0.0000  Tot=              3.4412
 Quadrupole moment (field-independent basis, Debye-Ang):
   XX=            -66.2475   YY=            -57.3799   ZZ=            -64.2936
   XY=              1.5148   XZ=              0.0000   YZ=             -0.0002
 Traceless Quadrupole moment (field-independent basis, Debye-Ang):
   XX=             -3.6072   YY=              5.2605   ZZ=             -1.6532
   XY=              1.5148   XZ=              0.0000   YZ=             -0.0002
 Octapole moment (field-independent basis, Debye-Ang**2):
  XXX=             -3.2526  YYY=             16.1941  ZZZ=              0.0016  XYY=            -22.4914
  XXY=             10.5236  XXZ=              0.0004  XZZ=              0.1826  YZZ=              4.5368
  YYZ=             -0.0012  XYZ=              0.0006
 Hexadecapole moment (field-independent basis, Debye-Ang**3):
 XXXX=          -1451.7949 YYYY=           -750.0073 ZZZZ=            -75.4361 XXXY=             15.4122
 XXXZ=             -0.0018 YYYX=            -25.1500 YYYZ=              0.0059 ZZZX=             -0.0049
 ZZZY=             -0.0029 XXYY=           -369.8382 XXZZ=           -259.0485 YYZZ=           -155.1051
 XXYZ=             -0.0030 YYXZ=              0.0037 ZZXY=             -2.5729
 N-N= 5.850917279096D+02 E-N=-3.235122092951D+03  KE= 8.721616199949D+02
 Calling FoFJK, ICntrl=      2127 FMM=F ISym2X=0 I1Cent= 0 IOpClX= 0 NMat=1 NMatS=1 NMatT=0.
 ***** Axes restored to original set *****
 -------------------------------------------------------------------
 Center     Atomic                   Forces (Hartrees/Bohr)
 Number     Number              X              Y              Z
 -------------------------------------------------------------------
      1       17          -0.004143119    0.002666342   -0.000346623
      2        6           0.045147259   -0.031463089    0.003838519
      3        7          -0.016605950   -0.004936333   -0.000975480
      4        6          -0.034905056   -0.004073289   -0.002213960
      5        6           0.024117170   -0.005380917    0.001752913
      6        6          -0.011119014    0.002692326   -0.000891939
      7        6          -0.035199588    0.002843254   -0.002419714
      8        8           0.014672103    0.024499493    0.000329692
      9        6          -0.010701797    0.005120753   -0.000838750
     10        7           0.013950690    0.002159706    0.000874183
     11        1           0.003754765    0.000654941    0.000228862
     12        1          -0.000605720    0.002974403   -0.000109023
     13        1           0.000852736   -0.002177535   -0.001491813
     14        1           0.000635345   -0.002124718    0.001770169
     15        1           0.010211532   -0.000755347    0.000701428
     16        1           0.000011382    0.003633940   -0.000793409
     17        1          -0.000072738    0.003666070    0.000584944
 -------------------------------------------------------------------
 Cartesian Forces:  Max     0.045147259 RMS     0.012474425

 GradGradGradGradGradGradGradGradGradGradGradGradGradGradGradGradGradGrad
 Berny optimization.
 FormGI is forming the generalized inverse of G from B-inverse, IUseBI=4.
 Internal  Forces:  Max     0.038058436 RMS     0.009507600
 Search for a local minimum.
 Step number   1 out of a maximum of   81
 All quantities printed in internal units (Hartrees-Bohrs-Radians)
 Mixed Optimization -- RFO/linear search
 Second derivative matrix not updated -- first step.
 ITU=  0
     Eigenvalues ---    0.00496   0.01337   0.01412   0.01917   0.02074
     Eigenvalues ---    0.02104   0.02161   0.02195   0.02253   0.02260
     Eigenvalues ---    0.06908   0.07306   0.09971   0.10249   0.16000
     Eigenvalues ---    0.16000   0.16000   0.16000   0.16000   0.16000
     Eigenvalues ---    0.16000   0.23300   0.25000   0.25000   0.25000
     Eigenvalues ---    0.25000   0.25000   0.25000   0.30328   0.33131
     Eigenvalues ---    0.34656   0.34659   0.34715   0.34728   0.34762
     Eigenvalues ---    0.34837   0.35912   0.41446   0.43337   0.44761
     Eigenvalues ---    0.48563   0.49884   0.51534   0.52927   0.53570
 RFO step:  Lambda=-1.59810703D-02 EMin= 4.96105163D-03
 Linear search not attempted -- first point.
 Iteration  1 RMS(Cart)=  0.06455622 RMS(Int)=  0.00067672
 Iteration  2 RMS(Cart)=  0.00083269 RMS(Int)=  0.00010939
 Iteration  3 RMS(Cart)=  0.00000035 RMS(Int)=  0.00010939
 Variable       Old X    -DE/DX   Delta X   Delta X   Delta X     New X
                                 (Linear)    (Quad)   (Total)
    R1        3.25823   0.00491   0.00000   0.01413   0.01413   3.27236
    R2        2.56526  -0.03087   0.00000  -0.05786  -0.05778   2.50747
    R3        2.56351  -0.02642   0.00000  -0.04996  -0.04988   2.51363
    R4        2.56406  -0.01639   0.00000  -0.02929  -0.02930   2.53476
    R5        2.64166  -0.01038   0.00000  -0.01941  -0.01949   2.62217
    R6        2.04219   0.00371   0.00000   0.00988   0.00988   2.05206
    R7        2.87314  -0.00883   0.00000  -0.02767  -0.02767   2.84547
    R8        2.64680  -0.00439   0.00000  -0.00733  -0.00740   2.63941
    R9        2.06063   0.00088   0.00000   0.00242   0.00242   2.06305
   R10        2.06141   0.00252   0.00000   0.00695   0.00695   2.06836
   R11        2.06119   0.00260   0.00000   0.00715   0.00715   2.06834
   R12        2.61344  -0.03806   0.00000  -0.07587  -0.07587   2.53757
   R13        2.57650  -0.03328   0.00000  -0.06216  -0.06215   2.51435
   R14        2.69635  -0.00332   0.00000  -0.00771  -0.00771   2.68863
   R15        2.05940   0.00072   0.00000   0.00197   0.00197   2.06137
   R16        2.06232   0.00171   0.00000   0.00471   0.00471   2.06703
   R17        2.06237   0.00169   0.00000   0.00467   0.00467   2.06703
    A1        2.05064  -0.00757   0.00000  -0.02467  -0.02473   2.02590
    A2        2.04868  -0.00942   0.00000  -0.03162  -0.03169   2.01699
    A3        2.18387   0.01699   0.00000   0.05629   0.05642   2.24029
    A4        2.03836  -0.01005   0.00000  -0.04196  -0.04188   1.99648
    A5        2.13642   0.00589   0.00000   0.03067   0.03058   2.16700
    A6        2.02696  -0.00200   0.00000  -0.00998  -0.00993   2.01703
    A7        2.11980  -0.00389   0.00000  -0.02069  -0.02064   2.09915
    A8        2.11930   0.01054   0.00000   0.03556   0.03565   2.15495
    A9        2.03934  -0.01376   0.00000  -0.04359  -0.04376   1.99559
   A10        2.12454   0.00322   0.00000   0.00803   0.00811   2.13265
   A11        1.96457  -0.00503   0.00000  -0.03096  -0.03090   1.93367
   A12        1.91935   0.00227   0.00000   0.01406   0.01400   1.93334
   A13        1.91952   0.00226   0.00000   0.01394   0.01388   1.93340
   A14        1.89439   0.00091   0.00000   0.00298   0.00303   1.89742
   A15        1.89458   0.00090   0.00000   0.00285   0.00290   1.89748
   A16        1.86870  -0.00116   0.00000  -0.00177  -0.00196   1.86674
   A17        2.07938  -0.00594   0.00000  -0.02372  -0.02369   2.05569
   A18        2.12551   0.00836   0.00000   0.03419   0.03413   2.15964
   A19        2.07830  -0.00242   0.00000  -0.01047  -0.01044   2.06786
   A20        2.08046  -0.01653   0.00000  -0.06215  -0.06215   2.01831
   A21        1.91183  -0.01371   0.00000  -0.07826  -0.07864   1.83319
   A22        1.94521  -0.00016   0.00000  -0.00074  -0.00097   1.94424
   A23        1.94521  -0.00016   0.00000  -0.00075  -0.00098   1.94424
   A24        1.88028   0.00708   0.00000   0.03988   0.03951   1.91979
   A25        1.88027   0.00708   0.00000   0.03988   0.03951   1.91978
   A26        1.89877   0.00046   0.00000   0.00326   0.00315   1.90192
   A27        2.04287  -0.00742   0.00000  -0.03561  -0.03549   2.00738
    D1        3.14159  -0.00000   0.00000  -0.00001  -0.00001   3.14158
    D2       -0.00001   0.00000   0.00000   0.00001   0.00001  -0.00000
    D3       -3.14158   0.00000   0.00000   0.00000   0.00000  -3.14158
    D4        0.00002  -0.00000   0.00000  -0.00002  -0.00002   0.00000
    D5       -0.00000   0.00000   0.00000   0.00001   0.00001   0.00001
    D6       -3.14152  -0.00000   0.00000  -0.00008  -0.00008   3.14159
    D7       -3.14157  -0.00000   0.00000  -0.00002  -0.00002   3.14159
    D8        0.00001  -0.00000   0.00000  -0.00002  -0.00002  -0.00002
    D9       -0.00006   0.00000   0.00000   0.00007   0.00007   0.00001
   D10        3.14152   0.00000   0.00000   0.00007   0.00007   3.14159
   D11       -0.00094   0.00001   0.00000   0.00013   0.00013  -0.00081
   D12       -2.11547   0.00065   0.00000   0.00734   0.00743  -2.10804
   D13        2.11395  -0.00066   0.00000  -0.00733  -0.00742   2.10653
   D14        3.14067   0.00001   0.00000   0.00013   0.00013   3.14080
   D15        1.02614   0.00065   0.00000   0.00734   0.00743   1.03357
   D16       -1.02763  -0.00066   0.00000  -0.00733  -0.00742  -1.03505
   D17       -3.14158  -0.00000   0.00000  -0.00001  -0.00001  -3.14158
   D18        0.00000   0.00000   0.00000   0.00002   0.00002   0.00002
   D19        0.00000  -0.00000   0.00000  -0.00001  -0.00001  -0.00000
   D20        3.14158   0.00000   0.00000   0.00002   0.00002  -3.14159
   D21       -3.14155   0.00000   0.00000   0.00000   0.00000  -3.14155
   D22        0.00006  -0.00000   0.00000  -0.00002  -0.00002   0.00004
   D23       -0.00002   0.00000   0.00000   0.00000   0.00000  -0.00001
   D24        3.14156   0.00000   0.00000   0.00003   0.00003   3.14159
   D25        3.14156   0.00000   0.00000   0.00000   0.00000   3.14156
   D26        1.06247   0.00018   0.00000   0.00157   0.00134   1.06381
   D27       -1.06254  -0.00018   0.00000  -0.00157  -0.00134  -1.06388
         Item               Value     Threshold  Converged?
 Maximum Force            0.038058     0.000450     NO 
 RMS     Force            0.009508     0.000300     NO 
 Maximum Displacement     0.215174     0.001800     NO 
 RMS     Displacement     0.064936     0.001200     NO 
 Predicted change in Energy=-8.369313D-03
 GradGradGradGradGradGradGradGradGradGradGradGradGradGradGradGradGradGrad

                          Input orientation:                          
 ---------------------------------------------------------------------
 Center     Atomic      Atomic             Coordinates (Angstroms)
 Number     Number       Type             X           Y           Z
 ---------------------------------------------------------------------
      1         17           0       -2.417335    3.058703   -0.169533
      2          6           0       -1.058346    1.992087   -0.050740
      3          7           0        0.133773    2.571218    0.013423
      4          6           0        1.161665    1.714305    0.104613
      5          6           0        1.025031    0.333726    0.132004
      6          6           0        2.190435   -0.614210    0.234765
      7          6           0       -0.295219   -0.115673    0.055879
      8          8           0       -0.507301   -1.441478    0.076807
      9          6           0       -1.868216   -1.848616   -0.003205
     10          7           0       -1.347241    0.693770   -0.035667
     11          1           0        2.146753    2.168081    0.158288
     12          1           0        3.133131   -0.065654    0.282284
     13          1           0        2.219533   -1.288460   -0.626939
     14          1           0        2.103429   -1.241062    1.127771
     15          1           0       -1.839740   -2.938640    0.027497
     16          1           0       -2.331095   -1.512663   -0.935586
     17          1           0       -2.449554   -1.465735    0.840539
 ---------------------------------------------------------------------
                    Distance matrix (angstroms):
                    1          2          3          4          5
     1  Cl   0.000000
     2  C    1.731656   0.000000
     3  N    2.603702   1.326898   0.000000
     4  C    3.832989   2.242710   1.341335   0.000000
     5  C    4.400716   2.669085   2.411384   1.387594   0.000000
     6  C    5.906377   4.174790   3.798132   2.548978   1.505759
     7  C    3.825029   2.244188   2.721253   2.339595   1.396715
     8  O    4.894950   3.479840   4.064077   3.570040   2.345727
     9  C    4.940746   3.925448   4.852130   4.678270   3.626538
    10  N    2.599217   1.330156   2.391783   2.712155   2.405290
    11  H    4.661714   3.216726   2.058056   1.085906   2.150304
    12  H    6.385406   4.681205   4.002690   2.662048   2.150854
    13  H    6.372408   4.673166   4.433687   3.266627   2.152747
    14  H    6.372463   4.673218   4.433374   3.266186   2.152778
    15  H    6.028312   4.992871   5.852648   5.537534   4.350427
    16  H    4.635910   3.832246   4.863566   4.867721   3.976491
    17  H    4.635927   3.832279   4.863608   4.867766   3.976534
                    6          7          8          9         10
     6  C    0.000000
     7  C    2.541459   0.000000
     8  O    2.826146   1.342824   0.000000
     9  C    4.248886   2.341133   1.422763   0.000000
    10  N    3.781414   1.330537   2.297266   2.595417   0.000000
    11  H    2.783685   3.345033   4.481021   5.681541   3.797263
    12  H    1.091718   3.436182   3.897160   5.317324   4.555387
    13  H    1.094529   2.857560   2.820336   4.172830   4.123192
    14  H    1.094520   2.858140   2.821453   4.173990   4.123625
    15  H    4.657064   3.217995   2.004824   1.090828   3.666189
    16  H    4.756172   2.660710   2.087159   1.093825   2.578016
    17  H    4.756212   2.660736   2.087157   1.093826   2.578040
                   11         12         13         14         15
    11  H    0.000000
    12  H    2.444972   0.000000
    13  H    3.545356   1.776683   0.000000
    14  H    3.544578   1.776716   1.759186   0.000000
    15  H    6.479802   5.748775   4.430472   4.431811   0.000000
    16  H    5.898776   5.782284   4.566590   4.898592   1.789516
    17  H    5.898824   5.782581   4.897478   4.567563   1.789513
                   16         17
    16  H    0.000000
    17  H    1.780689   0.000000
 Stoichiometry    C6H7ClN2O
 Framework group  C1[X(C6H7ClN2O)]
 Deg. of freedom    45
 Full point group                 C1      NOp   1
 Largest Abelian subgroup         C1      NOp   1
 Largest concise Abelian subgroup C1      NOp   1
                         Standard orientation:                         
 ---------------------------------------------------------------------
 Center     Atomic      Atomic             Coordinates (Angstroms)
 Number     Number       Type             X           Y           Z
 ---------------------------------------------------------------------
      1         17           0        2.924116    0.356402    0.000003
      2          6           0        1.286276   -0.205838   -0.000005
      3          7           0        1.121595   -1.522477   -0.000007
      4          6           0       -0.159335   -1.920468   -0.000001
      5          6           0       -1.244073   -1.055159   -0.000001
      6          6           0       -2.676535   -1.519231    0.000002
      7          6           0       -0.900477    0.298634    0.000012
      8          8           0       -1.898018    1.197570    0.000026
      9          6           0       -1.496722    2.562567   -0.000020
     10          7           0        0.353766    0.742709    0.000003
     11          1           0       -0.316225   -2.994981   -0.000003
     12          1           0       -2.730635   -2.609607   -0.000821
     13          1           0       -3.207235   -1.140632   -0.879210
     14          1           0       -3.206869   -1.141916    0.879976
     15          1           0       -2.427630    3.131176   -0.000035
     16          1           0       -0.909777    2.805924   -0.890372
     17          1           0       -0.909776    2.805980    0.890317
 ---------------------------------------------------------------------
 Rotational constants (GHZ):           1.8005155           0.8793677           0.5952089
 Standard basis: 6-31G(d,p) (6D, 7F)
 There are   189 symmetry adapted cartesian basis functions of A   symmetry.
 There are   189 symmetry adapted basis functions of A   symmetry.
   189 basis functions,   353 primitive gaussians,   189 cartesian basis functions
    41 alpha electrons       41 beta electrons
       nuclear repulsion energy       594.3744975287 Hartrees.
 NAtoms=   17 NActive=   17 NUniq=   17 SFac= 1.00D+00 NAtFMM=   60 NAOKFM=F Big=F
 Integral buffers will be    131072 words long.
 Raffenetti 2 integral format.
 Two-electron integral symmetry is turned on.
 Nuclear repulsion after empirical dispersion term =      594.3438100962 Hartrees.
 One-electron integrals computed using PRISM.
 NBasis=   189 RedAO= T EigKep=  1.08D-03  NBF=   189
 NBsUse=   189 1.00D-06 EigRej= -1.00D+00 NBFU=   189
 Initial guess from the checkpoint file:  "pyrmd7_conf-1.chk"
 B after Tr=     0.000000    0.000000    0.000000
         Rot=    0.999817    0.000000    0.000000    0.019129 Ang=   2.19 deg.
 ExpMin= 1.43D-01 ExpMax= 2.52D+04 ExpMxC= 3.78D+03 IAcc=3 IRadAn=         5 AccDes= 0.00D+00
 Harris functional with IExCor=  402 and IRadAn=       5 diagonalized for initial guess.
 HarFok:  IExCor=  402 AccDes= 0.00D+00 IRadAn=         5 IDoV= 1 UseB2=F ITyADJ=14
 ICtDFT=  3500011 ScaDFX=  1.000000  1.000000  1.000000  1.000000
 FoFCou: FMM=F IPFlag=           0 FMFlag=      100000 FMFlg1=           0
         NFxFlg=           0 DoJE=T BraDBF=F KetDBF=T FulRan=T
         wScrn=  0.000000 ICntrl=       500 IOpCl=  0 I1Cent=   200000004 NGrid=           0
         NMat0=    1 NMatS0=      1 NMatT0=    0 NMatD0=    1 NMtDS0=    0 NMtDT0=    0
 Petite list used in FoFCou.
 Requested convergence on RMS density matrix=1.00D-08 within 128 cycles.
 Requested convergence on MAX density matrix=1.00D-06.
 Requested convergence on             energy=1.00D-06.
 No special actions if energy rises.
 Integral accuracy reduced to 1.0D-05 until final iterations.
 Initial convergence to 1.0D-05 achieved.  Increase integral accuracy.
 SCF Done:  E(RB3LYP) =  -877.819258105     A.U. after   12 cycles
            NFock= 12  Conv=0.89D-08     -V/T= 2.0059
 Calling FoFJK, ICntrl=      2127 FMM=F ISym2X=0 I1Cent= 0 IOpClX= 0 NMat=1 NMatS=1 NMatT=0.
 ***** Axes restored to original set *****
 -------------------------------------------------------------------
 Center     Atomic                   Forces (Hartrees/Bohr)
 Number     Number              X              Y              Z
 -------------------------------------------------------------------
      1       17          -0.008203814    0.006078648   -0.000708054
      2        6           0.008049380   -0.000169568    0.000541914
      3        7          -0.007600102   -0.001094743   -0.000476729
      4        6           0.002164695   -0.002179382    0.000200365
      5        6           0.013483894    0.002277218    0.000840087
      6        6          -0.003891735    0.001136802   -0.000304139
      7        6          -0.008007226   -0.007344296   -0.000338945
      8        8           0.004963287    0.005047947    0.000197086
      9        6          -0.007776565   -0.009357786   -0.000269916
     10        7           0.002966055    0.004582171    0.000076450
     11        1           0.001900985   -0.000224316    0.000131790
     12        1           0.000352742    0.000232505    0.000023171
     13        1           0.000371277   -0.000206697    0.000069418
     14        1           0.000377663   -0.000211782   -0.000000310
     15        1          -0.000280892    0.000039404   -0.000019956
     16        1           0.000496757    0.000724038    0.001043939
     17        1           0.000633600    0.000669837   -0.001006170
 -------------------------------------------------------------------
 Cartesian Forces:  Max     0.013483894 RMS     0.003953272

 GradGradGradGradGradGradGradGradGradGradGradGradGradGradGradGradGradGrad
 Berny optimization.
 Using GEDIIS/GDIIS optimizer.
 FormGI is forming the generalized inverse of G from B-inverse, IUseBI=4.
 Internal  Forces:  Max     0.012367398 RMS     0.002967578
 Search for a local minimum.
 Step number   2 out of a maximum of   81
 All quantities printed in internal units (Hartrees-Bohrs-Radians)
 Mixed Optimization -- RFO/linear search
 Update second derivatives using D2CorX and points    1    2
 DE= -7.45D-03 DEPred=-8.37D-03 R= 8.90D-01
 TightC=F SS=  1.41D+00  RLast= 2.17D-01 DXNew= 5.0454D-01 6.5136D-01
 Trust test= 8.90D-01 RLast= 2.17D-01 DXMaxT set to 5.05D-01
 ITU=  1  0
 Use linear search instead of GDIIS.
     Eigenvalues ---    0.00496   0.01337   0.01388   0.01917   0.02076
     Eigenvalues ---    0.02104   0.02161   0.02194   0.02253   0.02260
     Eigenvalues ---    0.07076   0.07171   0.10041   0.10687   0.15664
     Eigenvalues ---    0.16000   0.16000   0.16000   0.16000   0.16000
     Eigenvalues ---    0.16100   0.22635   0.24352   0.25000   0.25000
     Eigenvalues ---    0.25000   0.25000   0.28698   0.29930   0.32802
     Eigenvalues ---    0.34658   0.34677   0.34721   0.34759   0.34764
     Eigenvalues ---    0.34840   0.35852   0.40969   0.42552   0.44495
     Eigenvalues ---    0.49426   0.49975   0.51337   0.53146   0.60139
 RFO step:  Lambda=-1.46839806D-03 EMin= 4.96105158D-03
 Quartic linear search produced a step of -0.08663.
 Iteration  1 RMS(Cart)=  0.03025796 RMS(Int)=  0.00033194
 Iteration  2 RMS(Cart)=  0.00056601 RMS(Int)=  0.00001529
 Iteration  3 RMS(Cart)=  0.00000024 RMS(Int)=  0.00001529
 Variable       Old X    -DE/DX   Delta X   Delta X   Delta X     New X
                                 (Linear)    (Quad)   (Total)
    R1        3.27236   0.01023  -0.00122   0.03076   0.02954   3.30189
    R2        2.50747  -0.00365   0.00501  -0.01755  -0.01256   2.49492
    R3        2.51363   0.00151   0.00432  -0.00711  -0.00279   2.51084
    R4        2.53476   0.00593   0.00254   0.00443   0.00696   2.54172
    R5        2.62217   0.00021   0.00169  -0.00282  -0.00112   2.62105
    R6        2.05206   0.00164  -0.00086   0.00602   0.00516   2.05723
    R7        2.84547  -0.00277   0.00240  -0.01361  -0.01121   2.83426
    R8        2.63941   0.01002   0.00064   0.01934   0.01999   2.65940
    R9        2.06305   0.00042  -0.00021   0.00156   0.00135   2.06440
   R10        2.06836   0.00008  -0.00060   0.00154   0.00093   2.06929
   R11        2.06834   0.00009  -0.00062   0.00159   0.00098   2.06932
   R12        2.53757   0.00315   0.00657  -0.00824  -0.00167   2.53590
   R13        2.51435   0.00357   0.00538  -0.00510   0.00029   2.51464
   R14        2.68863   0.00891   0.00067   0.01811   0.01877   2.70741
   R15        2.06137  -0.00005  -0.00017   0.00025   0.00008   2.06145
   R16        2.06703  -0.00088  -0.00041  -0.00141  -0.00182   2.06521
   R17        2.06703  -0.00088  -0.00040  -0.00142  -0.00182   2.06521
    A1        2.02590   0.00153   0.00214   0.00164   0.00379   2.02969
    A2        2.01699   0.00060   0.00274  -0.00309  -0.00033   2.01666
    A3        2.24029  -0.00213  -0.00489   0.00145  -0.00345   2.23683
    A4        1.99648   0.00260   0.00363  -0.00116   0.00245   1.99893
    A5        2.16700   0.00013  -0.00265   0.00698   0.00434   2.17134
    A6        2.01703   0.00096   0.00086   0.00340   0.00426   2.02129
    A7        2.09915  -0.00109   0.00179  -0.01039  -0.00860   2.09055
    A8        2.15495   0.00143  -0.00309   0.01101   0.00791   2.16286
    A9        1.99559  -0.00095   0.00379  -0.00973  -0.00592   1.98967
   A10        2.13265  -0.00048  -0.00070  -0.00128  -0.00200   2.13065
   A11        1.93367  -0.00029   0.00268  -0.00858  -0.00590   1.92777
   A12        1.93334   0.00055  -0.00121   0.00631   0.00509   1.93844
   A13        1.93340   0.00055  -0.00120   0.00625   0.00505   1.93844
   A14        1.89742  -0.00022  -0.00026  -0.00125  -0.00151   1.89590
   A15        1.89748  -0.00023  -0.00025  -0.00135  -0.00160   1.89588
   A16        1.86674  -0.00039   0.00017  -0.00134  -0.00117   1.86557
   A17        2.05569  -0.00239   0.00205  -0.01415  -0.01210   2.04359
   A18        2.15964  -0.00382  -0.00296  -0.00548  -0.00842   2.15121
   A19        2.06786   0.00621   0.00090   0.01963   0.02053   2.08838
   A20        2.01831   0.01237   0.00538   0.03283   0.03821   2.05652
   A21        1.83319   0.00118   0.00681  -0.00733  -0.00049   1.83271
   A22        1.94424  -0.00092   0.00008  -0.00656  -0.00650   1.93774
   A23        1.94424  -0.00092   0.00008  -0.00656  -0.00650   1.93774
   A24        1.91979   0.00061  -0.00342   0.01346   0.01007   1.92985
   A25        1.91978   0.00061  -0.00342   0.01346   0.01007   1.92985
   A26        1.90192  -0.00046  -0.00027  -0.00567  -0.00600   1.89592
   A27        2.00738   0.00418   0.00307   0.00794   0.01100   2.01839
    D1        3.14158   0.00000   0.00000   0.00003   0.00003  -3.14158
    D2       -0.00000  -0.00000  -0.00000  -0.00000  -0.00000  -0.00000
    D3       -3.14158  -0.00000  -0.00000  -0.00002  -0.00002   3.14158
    D4        0.00000   0.00000   0.00000   0.00001   0.00001   0.00001
    D5        0.00001  -0.00000  -0.00000  -0.00001  -0.00001  -0.00000
    D6        3.14159  -0.00000   0.00001  -0.00004  -0.00003   3.14156
    D7        3.14159   0.00000   0.00000   0.00002   0.00002  -3.14158
    D8       -0.00002   0.00000   0.00000   0.00001   0.00001  -0.00000
    D9        0.00001   0.00000  -0.00001   0.00005   0.00004   0.00005
   D10        3.14159   0.00000  -0.00001   0.00005   0.00004  -3.14156
   D11       -0.00081   0.00000  -0.00001   0.00023   0.00022  -0.00059
   D12       -2.10804   0.00011  -0.00064   0.00333   0.00268  -2.10535
   D13        2.10653  -0.00011   0.00064  -0.00302  -0.00238   2.10415
   D14        3.14080   0.00000  -0.00001   0.00024   0.00023   3.14102
   D15        1.03357   0.00011  -0.00064   0.00333   0.00269   1.03626
   D16       -1.03505  -0.00011   0.00064  -0.00302  -0.00238  -1.03743
   D17       -3.14158  -0.00000   0.00000  -0.00000  -0.00000  -3.14158
   D18        0.00002  -0.00000  -0.00000  -0.00001  -0.00001   0.00001
   D19       -0.00000  -0.00000   0.00000  -0.00001  -0.00001  -0.00001
   D20       -3.14159  -0.00000  -0.00000  -0.00001  -0.00001   3.14159
   D21       -3.14155  -0.00000  -0.00000  -0.00001  -0.00001  -3.14156
   D22        0.00004  -0.00000   0.00000  -0.00001  -0.00001   0.00003
   D23       -0.00001  -0.00000  -0.00000  -0.00000  -0.00000  -0.00002
   D24        3.14159  -0.00000  -0.00000  -0.00001  -0.00001   3.14158
   D25        3.14156  -0.00000  -0.00000   0.00000   0.00000   3.14156
   D26        1.06381  -0.00095  -0.00012  -0.00827  -0.00832   1.05549
   D27       -1.06388   0.00095   0.00012   0.00828   0.00833  -1.05555
         Item               Value     Threshold  Converged?
 Maximum Force            0.012367     0.000450     NO 
 RMS     Force            0.002968     0.000300     NO 
 Maximum Displacement     0.101848     0.001800     NO 
 RMS     Displacement     0.030493     0.001200     NO 
 Predicted change in Energy=-8.044372D-04
 GradGradGradGradGradGradGradGradGradGradGradGradGradGradGradGradGradGrad

                          Input orientation:                          
 ---------------------------------------------------------------------
 Center     Atomic      Atomic             Coordinates (Angstroms)
 Number     Number       Type             X           Y           Z
 ---------------------------------------------------------------------
      1         17           0       -2.409440    3.112598   -0.170436
      2          6           0       -1.046072    2.026351   -0.050816
      3          7           0        0.146356    2.589389    0.013779
      4          6           0        1.169618    1.721228    0.104937
      5          6           0        1.027137    0.341829    0.131912
      6          6           0        2.176339   -0.616513    0.233868
      7          6           0       -0.307633   -0.097357    0.054558
      8          8           0       -0.517065   -1.422687    0.075653
      9          6           0       -1.870071   -1.887361   -0.002285
     10          7           0       -1.344506    0.731701   -0.036483
     11          1           0        2.162933    2.163366    0.159423
     12          1           0        3.123061   -0.073548    0.282023
     13          1           0        2.203648   -1.291400   -0.628024
     14          1           0        2.087344   -1.244201    1.126724
     15          1           0       -1.797460   -2.975294    0.031309
     16          1           0       -2.343210   -1.562599   -0.932349
     17          1           0       -2.461280   -1.515804    0.838407
 ---------------------------------------------------------------------
                    Distance matrix (angstroms):
                    1          2          3          4          5
     1  Cl   0.000000
     2  C    1.747288   0.000000
     3  N    2.615296   1.320253   0.000000
     4  C    3.849856   2.242017   1.345020   0.000000
     5  C    4.424776   2.677537   2.416870   1.387001   0.000000
     6  C    5.924449   4.177285   3.800932   2.548558   1.499826
     7  C    3.843440   2.250896   2.725137   2.343514   1.407295
     8  O    4.920412   3.491662   4.067027   3.567907   2.345472
     9  C    5.031778   3.999808   4.909941   4.719441   3.658020
    10  N    2.611647   1.328678   2.382477   2.705546   2.409367
    11  H    4.681500   3.218803   2.066227   1.088637   2.146808
    12  H    6.400376   4.679961   4.002995   2.658670   2.141954
    13  H    6.394151   4.679885   4.439019   3.268391   2.151538
    14  H    6.394168   4.679894   4.438749   3.268033   2.151553
    15  H    6.121899   5.058436   5.894440   5.555744   4.357955
    16  H    4.737338   3.916660   4.932758   4.919293   4.014815
    17  H    4.737358   3.916681   4.932786   4.919326   4.014846
                    6          7          8          9         10
     6  C    0.000000
     7  C    2.543971   0.000000
     8  O    2.815914   1.341941   0.000000
     9  C    4.247853   2.376670   1.432698   0.000000
    10  N    3.779831   1.330689   2.310546   2.671493   0.000000
    11  H    2.780908   3.350457   4.477631   5.718362   3.793438
    12  H    1.092435   3.438309   3.887581   5.319974   4.550718
    13  H    1.095023   2.863248   2.813304   4.164362   4.127016
    14  H    1.095036   2.863687   2.814170   4.165267   4.127328
    15  H    4.625576   3.240779   2.012950   1.090870   3.735181
    16  H    4.762506   2.695273   2.090562   1.092863   2.657781
    17  H    4.762531   2.695294   2.090559   1.092861   2.657799
                   11         12         13         14         15
    11  H    0.000000
    12  H    2.437347   0.000000
    13  H    3.543605   1.776702   0.000000
    14  H    3.543006   1.776698   1.759232   0.000000
    15  H    6.488987   5.717912   4.390796   4.391847   0.000000
    16  H    5.948118   5.794143   4.565094   4.896016   1.795045
    17  H    5.948164   5.794354   4.895134   4.565838   1.795042
                   16         17
    16  H    0.000000
    17  H    1.775305   0.000000
 Stoichiometry    C6H7ClN2O
 Framework group  C1[X(C6H7ClN2O)]
 Deg. of freedom    45
 Full point group                 C1      NOp   1
 Largest Abelian subgroup         C1      NOp   1
 Largest concise Abelian subgroup C1      NOp   1
                         Standard orientation:                         
 ---------------------------------------------------------------------
 Center     Atomic      Atomic             Coordinates (Angstroms)
 Number     Number       Type             X           Y           Z
 ---------------------------------------------------------------------
      1         17           0        2.942907    0.395964   -0.000001
      2          6           0        1.298751   -0.195446    0.000011
      3          7           0        1.149090   -1.507189    0.000004
      4          6           0       -0.129947   -1.923295   -0.000007
      5          6           0       -1.229294   -1.077596   -0.000008
      6          6           0       -2.651558   -1.553668   -0.000001
      7          6           0       -0.899083    0.290410    0.000005
      8          8           0       -1.917071    1.164770    0.000016
      9          6           0       -1.598940    2.561700   -0.000014
     10          7           0        0.353840    0.738646    0.000005
     11          1           0       -0.277507   -3.001885   -0.000047
     12          1           0       -2.688654   -2.645472   -0.000598
     13          1           0       -3.190019   -1.184930   -0.879301
     14          1           0       -3.189690   -1.185921    0.879931
     15          1           0       -2.563584    3.071072   -0.000027
     16          1           0       -1.021738    2.832355   -0.887670
     17          1           0       -1.021747    2.832392    0.887635
 ---------------------------------------------------------------------
 Rotational constants (GHZ):           1.7925743           0.8665760           0.5884545
 Standard basis: 6-31G(d,p) (6D, 7F)
 There are   189 symmetry adapted cartesian basis functions of A   symmetry.
 There are   189 symmetry adapted basis functions of A   symmetry.
   189 basis functions,   353 primitive gaussians,   189 cartesian basis functions
    41 alpha electrons       41 beta electrons
       nuclear repulsion energy       592.1768753258 Hartrees.
 NAtoms=   17 NActive=   17 NUniq=   17 SFac= 1.00D+00 NAtFMM=   60 NAOKFM=F Big=F
 Integral buffers will be    131072 words long.
 Raffenetti 2 integral format.
 Two-electron integral symmetry is turned on.
 Nuclear repulsion after empirical dispersion term =      592.1463178125 Hartrees.
 One-electron integrals computed using PRISM.
 NBasis=   189 RedAO= T EigKep=  1.10D-03  NBF=   189
 NBsUse=   189 1.00D-06 EigRej= -1.00D+00 NBFU=   189
 Initial guess from the checkpoint file:  "pyrmd7_conf-1.chk"
 B after Tr=    -0.000000    0.000000   -0.000000
         Rot=    0.999964    0.000001    0.000000   -0.008457 Ang=   0.97 deg.
 ExpMin= 1.43D-01 ExpMax= 2.52D+04 ExpMxC= 3.78D+03 IAcc=3 IRadAn=         5 AccDes= 0.00D+00
 Harris functional with IExCor=  402 and IRadAn=       5 diagonalized for initial guess.
 HarFok:  IExCor=  402 AccDes= 0.00D+00 IRadAn=         5 IDoV= 1 UseB2=F ITyADJ=14
 ICtDFT=  3500011 ScaDFX=  1.000000  1.000000  1.000000  1.000000
 FoFCou: FMM=F IPFlag=           0 FMFlag=      100000 FMFlg1=           0
         NFxFlg=           0 DoJE=T BraDBF=F KetDBF=T FulRan=T
         wScrn=  0.000000 ICntrl=       500 IOpCl=  0 I1Cent=   200000004 NGrid=           0
         NMat0=    1 NMatS0=      1 NMatT0=    0 NMatD0=    1 NMtDS0=    0 NMtDT0=    0
 Petite list used in FoFCou.
 Requested convergence on RMS density matrix=1.00D-08 within 128 cycles.
 Requested convergence on MAX density matrix=1.00D-06.
 Requested convergence on             energy=1.00D-06.
 No special actions if energy rises.
 Integral accuracy reduced to 1.0D-05 until final iterations.
 Initial convergence to 1.0D-05 achieved.  Increase integral accuracy.
 SCF Done:  E(RB3LYP) =  -877.820058969     A.U. after   11 cycles
            NFock= 11  Conv=0.70D-08     -V/T= 2.0060
 Calling FoFJK, ICntrl=      2127 FMM=F ISym2X=0 I1Cent= 0 IOpClX= 0 NMat=1 NMatS=1 NMatT=0.
 ***** Axes restored to original set *****
 -------------------------------------------------------------------
 Center     Atomic                   Forces (Hartrees/Bohr)
 Number     Number              X              Y              Z
 -------------------------------------------------------------------
      1       17          -0.002814633    0.001928576   -0.000238083
      2        6           0.002714211    0.000510700    0.000166090
      3        7          -0.002264012    0.000399824   -0.000160870
      4        6           0.003590018   -0.001450156    0.000274694
      5        6           0.002604091    0.002203362    0.000115948
      6        6          -0.000454048    0.000497853   -0.000040390
      7        6          -0.003575663   -0.003456438   -0.000145159
      8        8           0.001793123    0.001755520    0.000072625
      9        6          -0.001887635   -0.000984930   -0.000100485
     10        7          -0.000627313   -0.002384148    0.000021476
     11        1          -0.000158564   -0.000072542   -0.000007662
     12        1           0.000441570   -0.000366758    0.000040316
     13        1           0.000036681    0.000095003    0.000196299
     14        1           0.000062554    0.000086142   -0.000198893
     15        1          -0.000356721    0.000787503   -0.000044707
     16        1           0.000450486    0.000224173   -0.000004967
     17        1           0.000445855    0.000226315    0.000053767
 -------------------------------------------------------------------
 Cartesian Forces:  Max     0.003590018 RMS     0.001366483

 GradGradGradGradGradGradGradGradGradGradGradGradGradGradGradGradGradGrad
 Berny optimization.
 Using GEDIIS/GDIIS optimizer.
 FormGI is forming the generalized inverse of G from B-inverse, IUseBI=4.
 Internal  Forces:  Max     0.003837125 RMS     0.000977063
 Search for a local minimum.
 Step number   3 out of a maximum of   81
 All quantities printed in internal units (Hartrees-Bohrs-Radians)
 Mixed Optimization -- En-DIIS/RFO-DIIS
 Update second derivatives using D2CorX and points    1    2    3
 DE= -8.01D-04 DEPred=-8.04D-04 R= 9.96D-01
 TightC=F SS=  1.41D+00  RLast= 7.11D-02 DXNew= 8.4853D-01 2.1321D-01
 Trust test= 9.96D-01 RLast= 7.11D-02 DXMaxT set to 5.05D-01
 ITU=  1  1  0
 Use linear search instead of GDIIS.
     Eigenvalues ---    0.00496   0.01337   0.01385   0.01917   0.02076
     Eigenvalues ---    0.02104   0.02162   0.02195   0.02253   0.02260
     Eigenvalues ---    0.07099   0.07131   0.09894   0.10695   0.15069
     Eigenvalues ---    0.16000   0.16000   0.16000   0.16000   0.16048
     Eigenvalues ---    0.16316   0.22815   0.23901   0.25000   0.25000
     Eigenvalues ---    0.25000   0.25523   0.26932   0.30789   0.33875
     Eigenvalues ---    0.34658   0.34692   0.34719   0.34740   0.34762
     Eigenvalues ---    0.35278   0.36135   0.39158   0.42509   0.44461
     Eigenvalues ---    0.49523   0.51262   0.52651   0.53471   0.58846
 RFO step:  Lambda=-2.16299921D-04 EMin= 4.96104624D-03
 Quartic linear search produced a step of  0.02556.
 Iteration  1 RMS(Cart)=  0.01150776 RMS(Int)=  0.00005468
 Iteration  2 RMS(Cart)=  0.00007451 RMS(Int)=  0.00000642
 Iteration  3 RMS(Cart)=  0.00000000 RMS(Int)=  0.00000642
 Variable       Old X    -DE/DX   Delta X   Delta X   Delta X     New X
                                 (Linear)    (Quad)   (Total)
    R1        3.30189   0.00341   0.00076   0.01444   0.01520   3.31709
    R2        2.49492   0.00018  -0.00032  -0.00217  -0.00250   2.49242
    R3        2.51084   0.00187  -0.00007   0.00235   0.00228   2.51311
    R4        2.54172   0.00276   0.00018   0.00571   0.00589   2.54761
    R5        2.62105  -0.00044  -0.00003  -0.00134  -0.00137   2.61969
    R6        2.05723  -0.00017   0.00013   0.00030   0.00043   2.05766
    R7        2.83426  -0.00013  -0.00029  -0.00228  -0.00257   2.83169
    R8        2.65940   0.00384   0.00051   0.01103   0.01155   2.67095
    R9        2.06440   0.00020   0.00003   0.00080   0.00084   2.06524
   R10        2.06929  -0.00021   0.00002  -0.00040  -0.00038   2.06892
   R11        2.06932  -0.00022   0.00002  -0.00040  -0.00038   2.06894
   R12        2.53590  -0.00205  -0.00004  -0.00577  -0.00581   2.53009
   R13        2.51464  -0.00016   0.00001  -0.00131  -0.00131   2.51333
   R14        2.70741   0.00120   0.00048   0.00515   0.00563   2.71304
   R15        2.06145  -0.00081   0.00000  -0.00235  -0.00234   2.05910
   R16        2.06521  -0.00012  -0.00005  -0.00052  -0.00056   2.06465
   R17        2.06521  -0.00012  -0.00005  -0.00051  -0.00056   2.06465
    A1        2.02969   0.00056   0.00010   0.00244   0.00253   2.03223
    A2        2.01666  -0.00025  -0.00001  -0.00151  -0.00152   2.01514
    A3        2.23683  -0.00031  -0.00009  -0.00093  -0.00102   2.23582
    A4        1.99893   0.00103   0.00006   0.00399   0.00405   2.00298
    A5        2.17134  -0.00101   0.00011  -0.00331  -0.00320   2.16814
    A6        2.02129   0.00051   0.00011   0.00256   0.00267   2.02396
    A7        2.09055   0.00051  -0.00022   0.00075   0.00053   2.09108
    A8        2.16286  -0.00008   0.00020   0.00106   0.00126   2.16413
    A9        1.98967   0.00033  -0.00015   0.00024   0.00009   1.98976
   A10        2.13065  -0.00025  -0.00005  -0.00130  -0.00135   2.12930
   A11        1.92777   0.00079  -0.00015   0.00435   0.00419   1.93196
   A12        1.93844  -0.00007   0.00013   0.00013   0.00026   1.93870
   A13        1.93844  -0.00007   0.00013   0.00012   0.00025   1.93869
   A14        1.89590  -0.00030  -0.00004  -0.00159  -0.00163   1.89428
   A15        1.89588  -0.00030  -0.00004  -0.00161  -0.00165   1.89423
   A16        1.86557  -0.00008  -0.00003  -0.00169  -0.00172   1.86384
   A17        2.04359   0.00163  -0.00031   0.00475   0.00444   2.04803
   A18        2.15121  -0.00006  -0.00022  -0.00066  -0.00087   2.15034
   A19        2.08838  -0.00157   0.00052  -0.00409  -0.00357   2.08481
   A20        2.05652  -0.00351   0.00098  -0.01068  -0.00971   2.04682
   A21        1.83271   0.00078  -0.00001   0.00426   0.00425   1.83696
   A22        1.93774  -0.00073  -0.00017  -0.00588  -0.00606   1.93168
   A23        1.93774  -0.00073  -0.00017  -0.00588  -0.00606   1.93168
   A24        1.92985   0.00015   0.00026   0.00351   0.00377   1.93363
   A25        1.92985   0.00015   0.00026   0.00352   0.00378   1.93363
   A26        1.89592   0.00038  -0.00015   0.00056   0.00037   1.89629
   A27        2.01839   0.00003   0.00028   0.00067   0.00094   2.01933
    D1       -3.14158  -0.00000   0.00000  -0.00003  -0.00003   3.14158
    D2       -0.00000   0.00000  -0.00000   0.00002   0.00002   0.00002
    D3        3.14158   0.00000  -0.00000   0.00004   0.00004  -3.14156
    D4        0.00001  -0.00000   0.00000  -0.00001  -0.00001  -0.00000
    D5       -0.00000  -0.00000  -0.00000  -0.00002  -0.00002  -0.00002
    D6        3.14156   0.00000  -0.00000   0.00002   0.00002   3.14157
    D7       -3.14158   0.00000   0.00000   0.00002   0.00002  -3.14156
    D8       -0.00000   0.00000   0.00000   0.00001   0.00001   0.00001
    D9        0.00005  -0.00000   0.00000  -0.00002  -0.00002   0.00003
   D10       -3.14156  -0.00000   0.00000  -0.00003  -0.00002  -3.14158
   D11       -0.00059   0.00000   0.00001   0.00020   0.00020  -0.00039
   D12       -2.10535  -0.00010   0.00007  -0.00079  -0.00073  -2.10608
   D13        2.10415   0.00010  -0.00006   0.00116   0.00110   2.10525
   D14        3.14102   0.00000   0.00001   0.00020   0.00021   3.14123
   D15        1.03626  -0.00010   0.00007  -0.00079  -0.00072   1.03554
   D16       -1.03743   0.00010  -0.00006   0.00117   0.00111  -1.03632
   D17       -3.14158  -0.00000  -0.00000  -0.00001  -0.00001  -3.14159
   D18        0.00001  -0.00000  -0.00000  -0.00000  -0.00000   0.00001
   D19       -0.00001  -0.00000  -0.00000  -0.00001  -0.00001  -0.00002
   D20        3.14159  -0.00000  -0.00000  -0.00001  -0.00001   3.14158
   D21       -3.14156  -0.00000  -0.00000  -0.00001  -0.00001  -3.14157
   D22        0.00003  -0.00000  -0.00000  -0.00001  -0.00001   0.00002
   D23       -0.00002   0.00000  -0.00000   0.00000   0.00000  -0.00001
   D24        3.14158   0.00000  -0.00000   0.00001   0.00001   3.14158
   D25        3.14156  -0.00000   0.00000   0.00001   0.00001   3.14157
   D26        1.05549  -0.00026  -0.00021  -0.00363  -0.00382   1.05167
   D27       -1.05555   0.00026   0.00021   0.00364   0.00383  -1.05172
         Item               Value     Threshold  Converged?
 Maximum Force            0.003837     0.000450     NO 
 RMS     Force            0.000977     0.000300     NO 
 Maximum Displacement     0.039947     0.001800     NO 
 RMS     Displacement     0.011530     0.001200     NO 
 Predicted change in Energy=-1.083707D-04
 GradGradGradGradGradGradGradGradGradGradGradGradGradGradGradGradGradGrad

                          Input orientation:                          
 ---------------------------------------------------------------------
 Center     Atomic      Atomic             Coordinates (Angstroms)
 Number     Number       Type             X           Y           Z
 ---------------------------------------------------------------------
      1         17           0       -2.425940    3.100010   -0.171174
      2          6           0       -1.050353    2.016278   -0.050863
      3          7           0        0.139240    2.582239    0.013464
      4          6           0        1.170923    1.719271    0.105040
      5          6           0        1.033716    0.340070    0.132378
      6          6           0        2.184279   -0.614502    0.234338
      7          6           0       -0.305146   -0.106212    0.054951
      8          8           0       -0.514854   -1.428387    0.075955
      9          6           0       -1.875358   -1.880050   -0.002806
     10          7           0       -1.343960    0.719296   -0.036128
     11          1           0        2.162543    2.165781    0.159310
     12          1           0        3.132277   -0.072902    0.282819
     13          1           0        2.213019   -1.289960   -0.626807
     14          1           0        2.096589   -1.243023    1.126491
     15          1           0       -1.818599   -2.967714    0.029735
     16          1           0       -2.340320   -1.543653   -0.932508
     17          1           0       -2.458357   -1.496842    0.838004
 ---------------------------------------------------------------------
                    Distance matrix (angstroms):
                    1          2          3          4          5
     1  Cl   0.000000
     2  C    1.755331   0.000000
     3  N    2.623419   1.318933   0.000000
     4  C    3.862662   2.246462   1.348136   0.000000
     5  C    4.436059   2.680782   2.416929   1.386278   0.000000
     6  C    5.934320   4.179137   3.801332   2.547568   1.498466
     7  C    3.850813   2.251998   2.725247   2.348122   1.413404
     8  O    4.921351   3.488346   4.064095   3.570776   2.351317
     9  C    5.013231   3.983004   4.896009   4.716627   3.661955
    10  N    2.618533   1.329882   2.381785   2.710077   2.413617
    11  H    4.694271   3.223232   2.070860   1.088864   2.146671
    12  H    6.416171   4.687261   4.010062   2.662780   2.144094
    13  H    6.403075   4.681081   4.438967   3.267573   2.150376
    14  H    6.403057   4.681074   4.438770   3.267324   2.150383
    15  H    6.101352   5.043499   5.885184   5.559743   4.368944
    16  H    4.706439   3.887728   4.905719   4.904285   4.008306
    17  H    4.706436   3.887746   4.905740   4.904314   4.008332
                    6          7          8          9         10
     6  C    0.000000
     7  C    2.547111   0.000000
     8  O    2.823617   1.338867   0.000000
     9  C    4.258932   2.369684   1.435678   0.000000
    10  N    3.781618   1.329998   2.304890   2.653318   0.000000
    11  H    2.781380   3.355939   4.482571   5.718363   3.798168
    12  H    1.092878   3.445129   3.896370   5.331395   4.556973
    13  H    1.094824   2.864822   2.820342   4.177608   4.127724
    14  H    1.094836   2.865112   2.820926   4.178214   4.127924
    15  H    4.647849   3.237186   2.017775   1.089630   3.718019
    16  H    4.764121   2.680159   2.088687   1.092566   2.630051
    17  H    4.764137   2.680176   2.088685   1.092565   2.630067
                   11         12         13         14         15
    11  H    0.000000
    12  H    2.442814   0.000000
    13  H    3.544385   1.775862   0.000000
    14  H    3.543972   1.775843   1.757786   0.000000
    15  H    6.497619   5.740659   4.415864   4.416575   0.000000
    16  H    5.935297   5.795641   4.570636   4.900614   1.796123
    17  H    5.935330   5.795776   4.900022   4.571124   1.796122
                   16         17
    16  H    0.000000
    17  H    1.775060   0.000000
 Stoichiometry    C6H7ClN2O
 Framework group  C1[X(C6H7ClN2O)]
 Deg. of freedom    45
 Full point group                 C1      NOp   1
 Largest Abelian subgroup         C1      NOp   1
 Largest concise Abelian subgroup C1      NOp   1
                         Standard orientation:                         
 ---------------------------------------------------------------------
 Center     Atomic      Atomic             Coordinates (Angstroms)
 Number     Number       Type             X           Y           Z
 ---------------------------------------------------------------------
      1         17           0        2.948286    0.377382    0.000016
      2          6           0        1.292981   -0.206700   -0.000017
      3          7           0        1.132189   -1.515795   -0.000011
      4          6           0       -0.151698   -1.927017   -0.000020
      5          6           0       -1.243881   -1.073259   -0.000010
      6          6           0       -2.669088   -1.536059    0.000019
      7          6           0       -0.901711    0.298102   -0.000002
      8          8           0       -1.906729    1.182695    0.000013
      9          6           0       -1.557476    2.575244   -0.000012
     10          7           0        0.354342    0.735395   -0.000012
     11          1           0       -0.307086   -3.004737   -0.000035
     12          1           0       -2.720630   -2.627721   -0.000362
     13          1           0       -3.204550   -1.162074   -0.878648
     14          1           0       -3.204299   -1.162742    0.879138
     15          1           0       -2.507435    3.108978   -0.000018
     16          1           0       -0.971757    2.826067   -0.887549
     17          1           0       -0.971751    2.826097    0.887511
 ---------------------------------------------------------------------
 Rotational constants (GHZ):           1.7875601           0.8669077           0.5880616
 Standard basis: 6-31G(d,p) (6D, 7F)
 There are   189 symmetry adapted cartesian basis functions of A   symmetry.
 There are   189 symmetry adapted basis functions of A   symmetry.
   189 basis functions,   353 primitive gaussians,   189 cartesian basis functions
    41 alpha electrons       41 beta electrons
[...]
   Eigenvalues:  -313.0964  -181.0779   236.4482
      4  C    Isotropic =     2.9613   Anisotropy =   186.6345
   XX=   -19.1810   YX=   -56.7075   ZX=     0.0040
   XY=   -38.4460   YY=   -99.3193   ZY=     0.0031
   XZ=     0.0075   YZ=     0.0056   ZZ=   127.3844
   Eigenvalues:  -121.4522     2.9518   127.3844
      5  C    Isotropic =    49.5861   Anisotropy =   180.4550
   XX=   -33.4177   YX=   -44.0768   ZX=     0.0038
   XY=   -29.1372   YY=    12.2866   ZY=     0.0008
   XZ=     0.0033   YZ=     0.0016   ZZ=   169.8894
   Eigenvalues:   -53.7199    32.5888   169.8894
      6  C    Isotropic =   171.8553   Anisotropy =    22.3751
   XX=   181.9703   YX=     8.5365   ZX=     0.0014
   XY=     9.5867   YY=   169.6715   ZY=    -0.0001
   XZ=    -0.0023   YZ=     0.0019   ZZ=   163.9242
   Eigenvalues:   163.9242   164.8698   186.7721
      7  C    Isotropic =    -5.8434   Anisotropy =   160.5148
   XX=   -62.4301   YX=    62.0380   ZX=     0.0042
   XY=    21.6671   YY=   -56.2665   ZY=    -0.0005
   XZ=     0.0054   YZ=    -0.0060   ZZ=   101.1665
   Eigenvalues:  -101.3142   -17.3824   101.1665
      8  O    Isotropic =   188.1281   Anisotropy =   119.8359
   XX=   177.7567   YX=  -102.8606   ZX=     0.0037
   XY=   -47.8866   YY=   118.6089   ZY=     0.0020
   XZ=     0.0043   YZ=    -0.0039   ZZ=   268.0187
   Eigenvalues:    67.2149   229.1506   268.0187
      9  C    Isotropic =   128.5713   Anisotropy =    72.3004
   XX=   101.1755   YX=     8.7810   ZX=     0.0001
   XY=    16.6657   YY=   174.6301   ZY=    -0.0013
   XZ=    -0.0002   YZ=    -0.0009   ZZ=   109.9082
   Eigenvalues:    99.0341   109.9082   176.7716
     10  N    Isotropic =   -51.7871   Anisotropy =   398.8415
   XX=  -219.5282   YX=    58.6146   ZX=     0.0076
   XY=    31.7448   YY=  -149.9405   ZY=    -0.0046
   XZ=     0.0033   YZ=    -0.0164   ZZ=   214.1072
   Eigenvalues:  -241.7590  -127.7096   214.1072
     11  H    Isotropic =    23.0261   Anisotropy =     8.2697
   XX=    27.5614   YX=    -3.0050   ZX=    -0.0002
   XY=    -2.1491   YY=    21.7479   ZY=     0.0000
   XZ=    -0.0002   YZ=     0.0003   ZZ=    19.7690
   Eigenvalues:    19.7690    20.7700    28.5392
     12  H    Isotropic =    29.8690   Anisotropy =     8.6209
   XX=    29.2674   YX=     2.3294   ZX=     0.0001
   XY=     0.5324   YY=    35.2937   ZY=     0.0012
   XZ=     0.0004   YZ=     0.0018   ZZ=    25.0457
   Eigenvalues:    25.0457    28.9450    35.6162
     13  H    Isotropic =    29.6951   Anisotropy =     8.3872
   XX=    30.8353   YX=    -0.4480   ZX=     3.9614
   XY=     0.4470   YY=    28.4774   ZY=    -1.2131
   XZ=     5.7223   YZ=    -1.3809   ZZ=    29.7726
   Eigenvalues:    25.1467    28.6520    35.2866
     14  H    Isotropic =    29.6953   Anisotropy =     8.3883
   XX=    30.8343   YX=    -0.4466   ZX=    -3.9617
   XY=     0.4477   YY=    28.4756   ZY=     1.2119
   XZ=    -5.7229   YZ=     1.3794   ZZ=    29.7759
   Eigenvalues:    25.1477    28.6506    35.2875
     15  H    Isotropic =    28.0107   Anisotropy =     7.7057
   XX=    28.2815   YX=    -1.5387   ZX=    -0.0001
   XY=    -3.4151   YY=    31.8872   ZY=    -0.0000
   XZ=     0.0000   YZ=    -0.0001   ZZ=    23.8634
   Eigenvalues:    23.8634    27.0208    33.1479
     16  H    Isotropic =    27.8965   Anisotropy =     8.0930
   XX=    26.5478   YX=     0.5267   ZX=    -1.6124
   XY=     2.3061   YY=    30.3189   ZY=    -3.7166
   XZ=    -1.4111   YZ=    -3.7479   ZZ=    26.8229
   Eigenvalues:    24.2992    26.0985    33.2918
     17  H    Isotropic =    27.8965   Anisotropy =     8.0930
   XX=    26.5479   YX=     0.5269   ZX=     1.6124
   XY=     2.3062   YY=    30.3191   ZY=     3.7165
   XZ=     1.4111   YZ=     3.7478   ZZ=    26.8226
   Eigenvalues:    24.2992    26.0985    33.2918
 End of Minotr F.D. properties file   721 does not exist.
 End of Minotr F.D. properties file   722 does not exist.
 End of Minotr F.D. properties file   788 does not exist.

 **********************************************************************

            Population analysis using the SCF Density.

 **********************************************************************

 Orbital symmetries:
       Occupied  (A) (A) (A) (A) (A) (A) (A) (A) (A) (A) (A) (A)
                 (A) (A) (A) (A) (A) (A) (A) (A) (A) (A) (A) (A)
                 (A) (A) (A) (A) (A) (A) (A) (A) (A) (A) (A) (A)
                 (A) (A) (A) (A) (A)
       Virtual   (A) (A) (A) (A) (A) (A) (A) (A) (A) (A) (A) (A)
                 (A) (A) (A) (A) (A) (A) (A) (A) (A) (A) (A) (A)
                 (A) (A) (A) (A) (A) (A) (A) (A) (A) (A) (A) (A)
                 (A) (A) (A) (A) (A) (A) (A) (A) (A) (A) (A) (A)
                 (A) (A) (A) (A) (A) (A) (A) (A) (A) (A) (A) (A)
                 (A) (A) (A) (A) (A) (A) (A) (A) (A) (A) (A) (A)
                 (A) (A) (A) (A) (A) (A) (A) (A) (A) (A) (A) (A)
                 (A) (A) (A) (A) (A) (A) (A) (A) (A) (A) (A) (A)
                 (A) (A) (A) (A) (A) (A) (A) (A) (A) (A) (A) (A)
                 (A) (A) (A) (A) (A) (A) (A) (A) (A) (A) (A) (A)
                 (A) (A) (A) (A) (A) (A) (A) (A) (A) (A) (A) (A)
                 (A) (A) (A) (A) (A) (A) (A) (A) (A) (A) (A) (A)
                 (A) (A) (A) (A) (A) (A) (A) (A) (A) (A) (A) (A)
                 (A) (A) (A) (A) (A) (A) (A) (A) (A) (A) (A) (A)
                 (A) (A) (A) (A) (A) (A) (A) (A) (A) (A) (A) (A)
                 (A) (A) (A) (A) (A) (A) (A) (A) (A) (A) (A) (A)
                 (A) (A) (A) (A) (A) (A) (A) (A) (A) (A) (A) (A)
                 (A) (A) (A) (A) (A) (A) (A) (A) (A) (A) (A) (A)
                 (A) (A) (A) (A) (A) (A) (A) (A) (A) (A) (A) (A)
                 (A) (A) (A) (A) (A) (A) (A) (A) (A) (A) (A) (A)
                 (A) (A) (A) (A) (A) (A) (A) (A) (A) (A) (A) (A)
                 (A) (A) (A) (A) (A) (A) (A) (A) (A) (A) (A) (A)
                 (A) (A) (A) (A) (A) (A) (A) (A) (A) (A) (A) (A)
                 (A) (A) (A) (A) (A) (A) (A) (A) (A) (A) (A) (A)
                 (A) (A) (A) (A) (A) (A) (A) (A) (A) (A) (A) (A)
                 (A) (A) (A) (A) (A) (A) (A) (A) (A) (A) (A) (A)
                 (A) (A) (A) (A) (A)
 The electronic state is 1-A.
 Alpha  occ. eigenvalues -- -102.64195 -19.68638 -14.77109 -14.76395 -10.67271
 Alpha  occ. eigenvalues --  -10.66565 -10.60254 -10.60111 -10.57367 -10.55266
 Alpha  occ. eigenvalues --   -9.80479  -7.52672  -7.52172  -7.52126  -1.22901
 Alpha  occ. eigenvalues --   -1.11908  -1.00892  -0.95980  -0.90893  -0.83390
 Alpha  occ. eigenvalues --   -0.79835  -0.73430  -0.72122  -0.63271  -0.62352
 Alpha  occ. eigenvalues --   -0.58047  -0.54617  -0.52579  -0.52346  -0.50743
 Alpha  occ. eigenvalues --   -0.49357  -0.48233  -0.47192  -0.44617  -0.44087
 Alpha  occ. eigenvalues --   -0.39859  -0.39302  -0.38188  -0.36490  -0.34107
 Alpha  occ. eigenvalues --   -0.31123
 Alpha virt. eigenvalues --   -0.00862   0.00274   0.06358   0.07876   0.08511
 Alpha virt. eigenvalues --    0.10248   0.11503   0.12379   0.13389   0.13938
 Alpha virt. eigenvalues --    0.15000   0.15412   0.17395   0.17852   0.19615
 Alpha virt. eigenvalues --    0.20984   0.22533   0.23073   0.23572   0.25598
 Alpha virt. eigenvalues --    0.25766   0.26663   0.28038   0.29361   0.30318
 Alpha virt. eigenvalues --    0.31862   0.32173   0.33686   0.33696   0.34160
 Alpha virt. eigenvalues --    0.35787   0.38992   0.39144   0.39785   0.40208
 Alpha virt. eigenvalues --    0.41506   0.41514   0.41953   0.43429   0.43635
 Alpha virt. eigenvalues --    0.44221   0.46298   0.46476   0.46983   0.48024
 Alpha virt. eigenvalues --    0.49278   0.49418   0.50674   0.51562   0.53466
 Alpha virt. eigenvalues --    0.54529   0.55153   0.55691   0.57784   0.58852
 Alpha virt. eigenvalues --    0.58931   0.61687   0.62103   0.63581   0.65353
 Alpha virt. eigenvalues --    0.66303   0.66652   0.66783   0.67586   0.68217
 Alpha virt. eigenvalues --    0.71032   0.73096   0.74008   0.76513   0.77006
 Alpha virt. eigenvalues --    0.80222   0.82356   0.83246   0.83661   0.85696
 Alpha virt. eigenvalues --    0.87236   0.88129   0.91627   0.92285   0.95727
 Alpha virt. eigenvalues --    0.99749   0.99781   1.02164   1.04040   1.04278
 Alpha virt. eigenvalues --    1.07256   1.08673   1.11183   1.13107   1.14604
 Alpha virt. eigenvalues --    1.16111   1.20117   1.21961   1.25577   1.27039
 Alpha virt. eigenvalues --    1.31062   1.31438   1.33289   1.36748   1.38298
 Alpha virt. eigenvalues --    1.40629   1.43785   1.44281   1.47669   1.47891
 Alpha virt. eigenvalues --    1.50750   1.52204   1.52625   1.52908   1.54777
 Alpha virt. eigenvalues --    1.54958   1.56451   1.56860   1.58431   1.60103
 Alpha virt. eigenvalues --    1.61082   1.63826   1.65640   1.66569   1.68091
 Alpha virt. eigenvalues --    1.69025   1.69412   1.73349   1.78841   1.79275
 Alpha virt. eigenvalues --    1.80097   1.80708   1.83439   1.84582   1.86250
 Alpha virt. eigenvalues --    1.87506   1.87628   1.88874   1.90829   1.91700
 Alpha virt. eigenvalues --    1.93595   1.93897   1.94635   1.96685   1.99511
 Alpha virt. eigenvalues --    2.02317   2.06083   2.07043   2.07490   2.10090
 Alpha virt. eigenvalues --    2.11107   2.11457   2.13329   2.14448   2.15802
 Alpha virt. eigenvalues --    2.16979   2.19102   2.22302   2.23458   2.24039
 Alpha virt. eigenvalues --    2.25502   2.25876   2.27748   2.28837   2.29652
 Alpha virt. eigenvalues --    2.30545   2.32496   2.34192   2.34353   2.36141
 Alpha virt. eigenvalues --    2.39186   2.39367   2.41042   2.42844   2.43792
 Alpha virt. eigenvalues --    2.46618   2.50140   2.51578   2.51640   2.54721
 Alpha virt. eigenvalues --    2.55876   2.58719   2.63193   2.64920   2.65621
 Alpha virt. eigenvalues --    2.67834   2.70898   2.71266   2.75443   2.79606
 Alpha virt. eigenvalues --    2.81625   2.82843   2.87744   2.90976   2.91242
 Alpha virt. eigenvalues --    2.91922   2.92094   2.94289   2.98544   2.98591
 Alpha virt. eigenvalues --    2.98877   3.02424   3.02839   3.04538   3.05586
 Alpha virt. eigenvalues --    3.05974   3.07855   3.08188   3.09531   3.10639
 Alpha virt. eigenvalues --    3.13688   3.15884   3.18646   3.20783   3.22727
 Alpha virt. eigenvalues --    3.23274   3.23368   3.24243   3.24467   3.26462
 Alpha virt. eigenvalues --    3.27839   3.30800   3.31684   3.32447   3.33890
 Alpha virt. eigenvalues --    3.35031   3.36332   3.37851   3.39204   3.39618
 Alpha virt. eigenvalues --    3.43798   3.44283   3.46403   3.50024   3.50953
 Alpha virt. eigenvalues --    3.55603   3.57539   3.57723   3.61091   3.65419
 Alpha virt. eigenvalues --    3.66774   3.68157   3.71895   3.73244   3.74278
 Alpha virt. eigenvalues --    3.77717   3.80660   3.83723   3.87899   3.89040
 Alpha virt. eigenvalues --    3.94329   3.99141   4.00680   4.02146   4.06914
 Alpha virt. eigenvalues --    4.12886   4.13685   4.15736   4.18491   4.21764
 Alpha virt. eigenvalues --    4.26130   4.30054   4.34163   4.36146   4.39787
 Alpha virt. eigenvalues --    4.44828   4.45887   4.47778   4.48870   4.57472
 Alpha virt. eigenvalues --    4.59663   4.64033   4.71233   4.75082   4.77093
 Alpha virt. eigenvalues --    4.78010   4.87035   4.89470   4.97727   4.99857
 Alpha virt. eigenvalues --    5.00181   5.00896   5.05118   5.11911   5.16139
 Alpha virt. eigenvalues --    5.23031   5.26369   5.32976   5.33740   5.36951
 Alpha virt. eigenvalues --    5.41920   5.41951   5.48809   5.54311   5.56784
 Alpha virt. eigenvalues --    5.68325   5.72035   5.75116   5.88069   5.88155
 Alpha virt. eigenvalues --    5.99469   6.12050   6.26003   6.61237   6.62934
 Alpha virt. eigenvalues --    6.76921   6.81323   7.13129   7.36405  10.81664
 Alpha virt. eigenvalues --   10.88257  11.39290  22.42723  22.51479  22.79753
 Alpha virt. eigenvalues --   22.94564  23.02865  23.37732  25.81968  32.44287
 Alpha virt. eigenvalues --   32.70310  44.31984
          Condensed to atoms (all electrons):
               1          2          3          4          5          6
     1  Cl  16.836097   0.406475  -0.092670  -0.002701   0.007950   0.000145
     2  C    0.406475   4.559112   0.535984  -0.082708  -0.038292   0.002142
     3  N   -0.092670   0.535984   6.484894   0.491406  -0.052204   0.006161
     4  C   -0.002701  -0.082708   0.491406   4.790665   0.524296  -0.055231
     5  C    0.007950  -0.038292  -0.052204   0.524296   5.365424   0.273736
     6  C    0.000145   0.002142   0.006161  -0.055231   0.273736   5.039865
     7  C   -0.005289  -0.060728  -0.037290  -0.057212   0.361577  -0.086418
     8  O   -0.000240   0.000233  -0.000687   0.001452  -0.134936   0.010117
     9  C   -0.000142  -0.000377   0.000262  -0.000762   0.008930  -0.000699
    10  N   -0.092240   0.514807  -0.071389  -0.016061  -0.070801   0.005946
    11  H   -0.000479   0.005528  -0.032106   0.443232  -0.084781  -0.003983
    12  H   -0.000001  -0.000060   0.000227  -0.011703  -0.058186   0.416787
    13  H   -0.000003   0.000068  -0.000156   0.001010  -0.031116   0.413693
    14  H   -0.000003   0.000068  -0.000156   0.001002  -0.031116   0.413688
    15  H   -0.000004   0.000007   0.000018   0.000117   0.001541  -0.000643
    16  H    0.000102   0.000108  -0.000013  -0.000053  -0.001087   0.000169
    17  H    0.000102   0.000108  -0.000013  -0.000053  -0.001087   0.000169
               7          8          9         10         11         12
     1  Cl  -0.005289  -0.000240  -0.000142  -0.092240  -0.000479  -0.000001
     2  C   -0.060728   0.000233  -0.000377   0.514807   0.005528  -0.000060
     3  N   -0.037290  -0.000687   0.000262  -0.071389  -0.032106   0.000227
     4  C   -0.057212   0.001452  -0.000762  -0.016061   0.443232  -0.011703
     5  C    0.361577  -0.134936   0.008930  -0.070801  -0.084781  -0.058186
     6  C   -0.086418   0.010117  -0.000699   0.005946  -0.003983   0.416787
     7  C    4.705748   0.415095  -0.055586   0.465520   0.012644   0.021110
     8  O    0.415095   7.940678   0.218382  -0.085645  -0.000138   0.000542
     9  C   -0.055586   0.218382   4.861104  -0.011434   0.000054   0.000017
    10  N    0.465520  -0.085645  -0.011434   6.635319  -0.001549  -0.000091
    11  H    0.012644  -0.000138   0.000054  -0.001549   0.510829   0.002914
    12  H    0.021110   0.000542   0.000017  -0.000091   0.002914   0.533431
    13  H   -0.017521   0.003950  -0.000044  -0.000174  -0.000098  -0.023500
    14  H   -0.017508   0.003945  -0.000044  -0.000174  -0.000098  -0.023498
    15  H    0.002217  -0.030454   0.396115   0.001760   0.000000  -0.000000
    16  H   -0.008466  -0.034989   0.418660   0.006855   0.000001   0.000006
    17  H   -0.008467  -0.034989   0.418664   0.006854   0.000001   0.000006
              13         14         15         16         17
     1  Cl  -0.000003  -0.000003  -0.000004   0.000102   0.000102
     2  C    0.000068   0.000068   0.000007   0.000108   0.000108
     3  N   -0.000156  -0.000156   0.000018  -0.000013  -0.000013
     4  C    0.001010   0.001002   0.000117  -0.000053  -0.000053
     5  C   -0.031116  -0.031116   0.001541  -0.001087  -0.001087
     6  C    0.413693   0.413688  -0.000643   0.000169   0.000169
     7  C   -0.017521  -0.017508   0.002217  -0.008466  -0.008467
     8  O    0.003950   0.003945  -0.030454  -0.034989  -0.034989
     9  C   -0.000044  -0.000044   0.396115   0.418660   0.418664
    10  N   -0.000174  -0.000174   0.001760   0.006855   0.006854
    11  H   -0.000098  -0.000098   0.000000   0.000001   0.000001
    12  H   -0.023500  -0.023498  -0.000000   0.000006   0.000006
    13  H    0.526627  -0.035031   0.000006  -0.000162   0.000087
    14  H   -0.035031   0.526626   0.000006   0.000087  -0.000162
    15  H    0.000006   0.000006   0.527835  -0.024312  -0.024312
    16  H   -0.000162   0.000087  -0.024312   0.527287  -0.039953
    17  H    0.000087  -0.000162  -0.024312  -0.039953   0.527284
 Mulliken charges:
               1
     1  Cl  -0.057100
     2  C    0.157525
     3  N   -0.232270
     4  C   -0.026697
     5  C   -0.039848
     6  C   -0.435644
     7  C    0.370573
     8  O   -0.272315
     9  C   -0.253101
    10  N   -0.287503
    11  H    0.148028
    12  H    0.141998
    13  H    0.162364
    14  H    0.162368
    15  H    0.150103
    16  H    0.155759
    17  H    0.155760
 Sum of Mulliken charges =  -0.00000
 Mulliken charges with hydrogens summed into heavy atoms:
               1
     1  Cl  -0.057100
     2  C    0.157525
     3  N   -0.232270
     4  C    0.121331
     5  C   -0.039848
     6  C    0.031086
     7  C    0.370573
     8  O   -0.272315
     9  C    0.208521
    10  N   -0.287503
 Electronic spatial extent (au):  <R**2>=           1818.0234
 Charge=              0.0000 electrons
 Dipole moment (field-independent basis, Debye):
    X=             -3.8194    Y=              0.4808    Z=              0.0000  Tot=              3.8495
 Quadrupole moment (field-independent basis, Debye-Ang):
   XX=            -67.4990   YY=            -58.2967   ZZ=            -65.2564
   XY=              1.7852   XZ=              0.0000   YZ=             -0.0001
 Traceless Quadrupole moment (field-independent basis, Debye-Ang):
   XX=             -3.8150   YY=              5.3874   ZZ=             -1.5724
   XY=              1.7852   XZ=              0.0000   YZ=             -0.0001
 Octapole moment (field-independent basis, Debye-Ang**2):
  XXX=             -7.0798  YYY=             16.0503  ZZZ=              0.0007  XYY=            -21.5407
  XXY=              8.6606  XXZ=              0.0006  XZZ=              0.4277  YZZ=              5.0896
  YYZ=              0.0001  XYZ=              0.0004
 Hexadecapole moment (field-independent basis, Debye-Ang**3):
 XXXX=          -1443.6921 YYYY=           -746.4780 ZZZZ=            -80.8081 XXXY=             14.5780
 XXXZ=              0.0039 YYYX=            -19.0452 YYYZ=              0.0013 ZZZX=             -0.0010
 ZZZY=             -0.0007 XXYY=           -370.9045 XXZZ=           -258.2200 YYZZ=           -155.4354
 XXYZ=             -0.0006 YYXZ=              0.0012 ZZXY=             -2.5965
 N-N= 5.917942418801D+02 E-N=-3.251263559979D+03  KE= 8.751848055483D+02
 Unable to Open any file for archive entry.
 1\1\GINC-COMPUTE-0-28\SP\RM062X\def2TZVP\C6H7Cl1N2O1\ZTAN64\14-Aug-202
 4\0\\# M062X/def2tzvp int=(grid=ultrafine) nmr=giao guess=read geom=ch
 eck\\pyrmd7.xyz\\0,1\Cl,0,-2.4248387629,3.1006935046,-0.1710972157\C,0
 ,-1.0479812782,2.0178144158,-0.0508052495\N,0,0.1398907293,2.584424914
 4,0.0134096329\C,0,1.1720078622,1.7202400183,0.1050741228\C,0,1.032582
 3046,0.3425534089,0.1322350649\C,0,2.1820530606,-0.614755304,0.2341941
 886\C,0,-0.3056123292,-0.1054365841,0.0549021281\O,0,-0.5129458974,-1.
 4284767569,0.076098143\C,0,-1.8744705419,-1.8809731817,-0.0026922743\N
 ,0,-1.3444060398,0.7201610304,-0.0361925695\H,0,2.1621354787,2.1679902
 46,0.1592219895\H,0,3.1320042694,-0.0769472458,0.2830976802\H,0,2.2089
 392389,-1.2901050068,-0.6271161569\H,0,2.0922907733,-1.2434525823,1.12
 60258734\H,0,-1.8154070692,-2.968296305,0.0300121492\H,0,-2.3392264148
 ,-1.5463010522,-0.9328217326\H,0,-2.4573153834,-1.4994335198,0.8386542
 259\\Version=ES64L-G16RevC.01\State=1-A\HF=-877.7702076\RMSD=3.181e-09
 \Dipole=0.6400259,-1.3703651,0.0789045\Quadrupole=3.2370777,-2.0781165
 ,-1.1589612,2.5159804,0.2271267,0.1917901\PG=C01 [X(C6H7Cl1N2O1)]\\@
 The archive entry for this job was punched.


 ERROR IS THE FORCE THAT WELDS MEN TOGETHER....
 TRUTH IS COMMUNICATED TO MEN ONLY BY DEEDS OF TRUTH.
           TOLSTOI,MY RELIGION
 Job cpu time:       0 days  0 hours 17 minutes 51.8 seconds.
 Elapsed time:       0 days  0 hours  1 minutes 12.0 seconds.
 File lengths (MBytes):  RWF=     77 Int=      0 D2E=      0 Chk=     13 Scr=      1
 Normal termination of Gaussian 16 at Wed Aug 14 20:35:39 2024.
 
 
-----Kestrel cluster job statistics-----
Time info:

real	6m42.293s
user	104m44.625s
sys	0m13.031s
 
Disk space usage:
13M	/scratch/362997.kestrel.chem.wisc.edu
