 Entering Gaussian System, Link 0=/share/apps/gaussian/g16/g16
 Initial command:
 /share/apps/gaussian/g16/l1.exe "/scratch/362999.kestrel.chem.wisc.edu/Gau-115999.inp" -scrdir="/scratch/362999.kestrel.chem.wisc.edu/"
 Entering Link 1 = /share/apps/gaussian/g16/l1.exe PID=    116000.
  
 Copyright (c) 1988-2019, Gaussian, Inc.  All Rights Reserved.
  
 This is part of the Gaussian(R) 16 program.  It is based on
 the Gaussian(R) 09 system (copyright 2009, Gaussian, Inc.),
 the Gaussian(R) 03 system (copyright 2003, Gaussian, Inc.),
 the Gaussian(R) 98 system (copyright 1998, Gaussian, Inc.),
 the Gaussian(R) 94 system (copyright 1995, Gaussian, Inc.),
 the Gaussian 92(TM) system (copyright 1992, Gaussian, Inc.),
 the Gaussian 90(TM) system (copyright 1990, Gaussian, Inc.),
 the Gaussian 88(TM) system (copyright 1988, Gaussian, Inc.),
 the Gaussian 86(TM) system (copyright 1986, Carnegie Mellon
 University), and the Gaussian 82(TM) system (copyright 1983,
 Carnegie Mellon University). Gaussian is a federally registered
 trademark of Gaussian, Inc.
  
 This software contains proprietary and confidential information,
 including trade secrets, belonging to Gaussian, Inc.
  
 This software is provided under written license and may be
 used, copied, transmitted, or stored only in accord with that
 written license.
  
 The following legend is applicable only to US Government
 contracts under FAR:
  
                    RESTRICTED RIGHTS LEGEND
  
 Use, reproduction and disclosure by the US Government is
 subject to restrictions as set forth in subparagraphs (a)
 and (c) of the Commercial Computer Software - Restricted
 Rights clause in FAR 52.227-19.
  
 Gaussian, Inc.
 340 Quinnipiac St., Bldg. 40, Wallingford CT 06492
  
  
 ---------------------------------------------------------------
 Warning -- This program may not be used in any manner that
 competes with the business of Gaussian, Inc. or will provide
 assistance to any competitor of Gaussian, Inc.  The licensee
 of this program is prohibited from giving any competitor of
 Gaussian, Inc. access to this program.  By using this program,
 the user acknowledges that Gaussian, Inc. is engaged in the
 business of creating and licensing software in the field of
 computational chemistry and represents and warrants to the
 licensee that it is not a competitor of Gaussian, Inc. and that
 it will not use this program in any manner prohibited above.
 ---------------------------------------------------------------
  

 Cite this work as:
 Gaussian 16, Revision C.01,
 M. J. Frisch, G. W. Trucks, H. B. Schlegel, G. E. Scuseria, 
 M. A. Robb, J. R. Cheeseman, G. Scalmani, V. Barone, 
 G. A. Petersson, H. Nakatsuji, X. Li, M. Caricato, A. V. Marenich, 
 J. Bloino, B. G. Janesko, R. Gomperts, B. Mennucci, H. P. Hratchian, 
 J. V. Ortiz, A. F. Izmaylov, J. L. Sonnenberg, D. Williams-Young, 
 F. Ding, F. Lipparini, F. Egidi, J. Goings, B. Peng, A. Petrone, 
 T. Henderson, D. Ranasinghe, V. G. Zakrzewski, J. Gao, N. Rega, 
 G. Zheng, W. Liang, M. Hada, M. Ehara, K. Toyota, R. Fukuda, 
 J. Hasegawa, M. Ishida, T. Nakajima, Y. Honda, O. Kitao, H. Nakai, 
 T. Vreven, K. Throssell, J. A. Montgomery, Jr., J. E. Peralta, 
 F. Ogliaro, M. J. Bearpark, J. J. Heyd, E. N. Brothers, K. N. Kudin, 
 V. N. Staroverov, T. A. Keith, R. Kobayashi, J. Normand, 
 K. Raghavachari, A. P. Rendell, J. C. Burant, S. S. Iyengar, 
 J. Tomasi, M. Cossi, J. M. Millam, M. Klene, C. Adamo, R. Cammi, 
 J. W. Ochterski, R. L. Martin, K. Morokuma, O. Farkas, 
 J. B. Foresman, and D. J. Fox, Gaussian, Inc., Wallingford CT, 2019.
 
 ******************************************
 Gaussian 16:  ES64L-G16RevC.01  3-Jul-2019
                14-Aug-2024 
 ******************************************
 %nprocs=16
 Will use up to   16 processors via shared memory.
 %mem=16GB
 %chk=pyrz1_conf-2.chk
 ----------------------------------------------------------------------
 # B3LYP/6-31G(d,p) symmetry=loose empiricaldispersion=GD3BJ int=(grid=
 ultrafine) opt freq=noraman
 ----------------------------------------------------------------------
 1/18=20,19=15,26=4,38=1/1,3;
 2/9=110,12=2,17=4,18=3,40=1/2;
 3/5=1,6=6,7=101,11=2,25=1,30=1,71=1,74=-5,75=-5,124=41/1,2,3;
 4//1;
 5/5=2,38=5/2;
 6/7=2,8=2,9=2,10=2,28=1/1;
 7//1,2,3,16;
 1/18=20,19=15,26=4/3(2);
 2/9=110/2;
 99//99;
 2/9=110/2;
 3/5=1,6=6,7=101,11=2,25=1,30=1,71=1,74=-5,75=-5,124=41/1,2,3;
 4/5=5,16=3,69=1/1;
 5/5=2,38=5/2;
 7//1,2,3,16;
 1/18=20,19=15,26=4/3(-5);
 2/9=110/2;
 6/7=2,8=2,9=2,10=2,19=2,28=1/1;
 99/9=1/99;
 ---------
 pyrz1.xyz
 ---------
 Symbolic Z-matrix:
 Charge =  0 Multiplicity = 1
 Cl                    3.3873   -2.1785    1.1971 
 C                     2.0438   -1.2714    0.596 
 C                     2.233    -0.0437   -0.0561 
 C                     3.6101    0.5639   -0.2754 
 N                     1.1786    0.6735   -0.5308 
 C                    -0.0746    0.1682   -0.3571 
 C                    -1.2113    0.981    -0.8905 
 O                    -2.4194    0.4048   -0.6746 
 C                    -3.6088    1.0445   -1.1181 
 O                    -1.0701    2.0625   -1.4669 
 C                    -0.2543   -1.0623    0.2971 
 N                     0.7963   -1.7804    0.7721 
 H                     4.2301   -0.1106   -0.8666 
 H                     3.5618    1.5203   -0.799 
 H                     4.1055    0.7307    0.6815 
 H                    -4.4775    0.4392   -0.8592 
 H                    -3.7248    2.0236   -0.6504 
 H                    -3.5999    1.1809   -2.2009 
 H                    -1.2344   -1.4919    0.4517 
 

 GradGradGradGradGradGradGradGradGradGradGradGradGradGradGradGradGradGrad
 Berny optimization.
 Initialization pass.
                           ----------------------------
                           !    Initial Parameters    !
                           ! (Angstroms and Degrees)  !
 --------------------------                            --------------------------
 ! Name  Definition              Value          Derivative Info.                !
 --------------------------------------------------------------------------------
 ! R1    R(1,2)                  1.7289         estimate D2E/DX2                !
 ! R2    R(2,3)                  1.403          estimate D2E/DX2                !
 ! R3    R(2,12)                 1.3588         estimate D2E/DX2                !
 ! R4    R(3,4)                  1.5211         estimate D2E/DX2                !
 ! R5    R(3,5)                  1.3607         estimate D2E/DX2                !
 ! R6    R(4,13)                 1.0904         estimate D2E/DX2                !
 ! R7    R(4,14)                 1.0914         estimate D2E/DX2                !
 ! R8    R(4,15)                 1.0904         estimate D2E/DX2                !
 ! R9    R(5,6)                  1.3624         estimate D2E/DX2                !
 ! R10   R(6,7)                  1.4957         estimate D2E/DX2                !
 ! R11   R(6,11)                 1.4051         estimate D2E/DX2                !
 ! R12   R(7,8)                  1.3558         estimate D2E/DX2                !
 ! R13   R(7,10)                 1.2336         estimate D2E/DX2                !
 ! R14   R(8,9)                  1.4215         estimate D2E/DX2                !
 ! R15   R(9,16)                 1.09           estimate D2E/DX2                !
 ! R16   R(9,17)                 1.0913         estimate D2E/DX2                !
 ! R17   R(9,18)                 1.0914         estimate D2E/DX2                !
 ! R18   R(11,12)                1.3583         estimate D2E/DX2                !
 ! R19   R(11,19)                1.0812         estimate D2E/DX2                !
 ! A1    A(1,2,3)              121.0597         estimate D2E/DX2                !
 ! A2    A(1,2,12)             118.1531         estimate D2E/DX2                !
 ! A3    A(3,2,12)             120.7872         estimate D2E/DX2                !
 ! A4    A(2,3,4)              122.5926         estimate D2E/DX2                !
 ! A5    A(2,3,5)              121.2583         estimate D2E/DX2                !
 ! A6    A(4,3,5)              116.1491         estimate D2E/DX2                !
 ! A7    A(3,4,13)             110.2348         estimate D2E/DX2                !
 ! A8    A(3,4,14)             112.2804         estimate D2E/DX2                !
 ! A9    A(3,4,15)             110.2378         estimate D2E/DX2                !
 ! A10   A(13,4,14)            107.8859         estimate D2E/DX2                !
 ! A11   A(13,4,15)            108.1872         estimate D2E/DX2                !
 ! A12   A(14,4,15)            107.883          estimate D2E/DX2                !
 ! A13   A(3,5,6)              118.2186         estimate D2E/DX2                !
 ! A14   A(5,6,7)              116.8752         estimate D2E/DX2                !
 ! A15   A(5,6,11)             120.1197         estimate D2E/DX2                !
 ! A16   A(7,6,11)             123.0051         estimate D2E/DX2                !
 ! A17   A(6,7,8)              112.9199         estimate D2E/DX2                !
 ! A18   A(6,7,10)             123.7824         estimate D2E/DX2                !
 ! A19   A(8,7,10)             123.2977         estimate D2E/DX2                !
 ! A20   A(7,8,9)              120.3084         estimate D2E/DX2                !
 ! A21   A(8,9,16)             110.0504         estimate D2E/DX2                !
 ! A22   A(8,9,17)             111.0388         estimate D2E/DX2                !
 ! A23   A(8,9,18)             111.0366         estimate D2E/DX2                !
 ! A24   A(16,9,17)            108.1639         estimate D2E/DX2                !
 ! A25   A(16,9,18)            108.1533         estimate D2E/DX2                !
 ! A26   A(17,9,18)            108.2973         estimate D2E/DX2                !
 ! A27   A(6,11,12)            121.7933         estimate D2E/DX2                !
 ! A28   A(6,11,19)            122.0354         estimate D2E/DX2                !
 ! A29   A(12,11,19)           116.1713         estimate D2E/DX2                !
 ! A30   A(2,12,11)            117.8229         estimate D2E/DX2                !
 ! D1    D(1,2,3,4)             -0.0083         estimate D2E/DX2                !
 ! D2    D(1,2,3,5)            179.997          estimate D2E/DX2                !
 ! D3    D(12,2,3,4)          -179.998          estimate D2E/DX2                !
 ! D4    D(12,2,3,5)             0.0073         estimate D2E/DX2                !
 ! D5    D(1,2,12,11)         -179.9921         estimate D2E/DX2                !
 ! D6    D(3,2,12,11)           -0.0022         estimate D2E/DX2                !
 ! D7    D(2,3,4,13)            59.6923         estimate D2E/DX2                !
 ! D8    D(2,3,4,14)          -179.9917         estimate D2E/DX2                !
 ! D9    D(2,3,4,15)           -59.6773         estimate D2E/DX2                !
 ! D10   D(5,3,4,13)          -120.3127         estimate D2E/DX2                !
 ! D11   D(5,3,4,14)             0.0033         estimate D2E/DX2                !
 ! D12   D(5,3,4,15)           120.3176         estimate D2E/DX2                !
 ! D13   D(2,3,5,6)             -0.0042         estimate D2E/DX2                !
 ! D14   D(4,3,5,6)           -179.9992         estimate D2E/DX2                !
 ! D15   D(3,5,6,7)           -179.9957         estimate D2E/DX2                !
 ! D16   D(3,5,6,11)            -0.0036         estimate D2E/DX2                !
 ! D17   D(5,6,7,8)           -179.9989         estimate D2E/DX2                !
 ! D18   D(5,6,7,10)            -0.0049         estimate D2E/DX2                !
 ! D19   D(11,6,7,8)             0.0092         estimate D2E/DX2                !
 ! D20   D(11,6,7,10)         -179.9968         estimate D2E/DX2                !
 ! D21   D(5,6,11,12)            0.0088         estimate D2E/DX2                !
 ! D22   D(5,6,11,19)          179.9972         estimate D2E/DX2                !
 ! D23   D(7,6,11,12)         -179.9996         estimate D2E/DX2                !
 ! D24   D(7,6,11,19)           -0.0112         estimate D2E/DX2                !
 ! D25   D(6,7,8,9)            179.998          estimate D2E/DX2                !
 ! D26   D(10,7,8,9)             0.0039         estimate D2E/DX2                !
 ! D27   D(7,8,9,16)           179.9926         estimate D2E/DX2                !
 ! D28   D(7,8,9,17)           -60.2762         estimate D2E/DX2                !
 ! D29   D(7,8,9,18)            60.276          estimate D2E/DX2                !
 ! D30   D(6,11,12,2)           -0.0057         estimate D2E/DX2                !
 ! D31   D(19,11,12,2)        -179.9947         estimate D2E/DX2                !
 --------------------------------------------------------------------------------
 Trust Radius=3.00D-01 FncErr=1.00D-07 GrdErr=1.00D-06 EigMax=2.50D+02 EigMin=1.00D-04
 Number of steps in this run=     90 maximum allowed number of steps=    114.
 GradGradGradGradGradGradGradGradGradGradGradGradGradGradGradGradGradGrad

                          Input orientation:                          
 ---------------------------------------------------------------------
 Center     Atomic      Atomic             Coordinates (Angstroms)
 Number     Number       Type             X           Y           Z
 ---------------------------------------------------------------------
      1         17           0        3.387300   -2.178500    1.197100
      2          6           0        2.043800   -1.271400    0.596000
      3          6           0        2.233000   -0.043700   -0.056100
      4          6           0        3.610100    0.563900   -0.275400
      5          7           0        1.178600    0.673500   -0.530800
      6          6           0       -0.074600    0.168200   -0.357100
      7          6           0       -1.211300    0.981000   -0.890500
      8          8           0       -2.419400    0.404800   -0.674600
      9          6           0       -3.608800    1.044500   -1.118100
     10          8           0       -1.070100    2.062500   -1.466900
     11          6           0       -0.254300   -1.062300    0.297100
     12          7           0        0.796300   -1.780400    0.772100
     13          1           0        4.230100   -0.110600   -0.866600
     14          1           0        3.561800    1.520300   -0.799000
     15          1           0        4.105500    0.730700    0.681500
     16          1           0       -4.477500    0.439200   -0.859200
     17          1           0       -3.724800    2.023600   -0.650400
     18          1           0       -3.599900    1.180900   -2.200900
     19          1           0       -1.234400   -1.491900    0.451700
 ---------------------------------------------------------------------
                    Distance matrix (angstroms):
                    1          2          3          4          5
     1  Cl   0.000000
     2  C    1.728914   0.000000
     3  C    2.731353   1.402953   0.000000
     4  C    3.120682   2.565338   1.521077   0.000000
     5  N    3.999737   2.408503   1.360689   2.447332   0.000000
     6  C    4.461759   2.732849   2.336776   3.706787   1.362355
     7  C    5.957150   4.228317   3.689097   4.878342   2.436301
     8  O    6.625290   4.933987   4.714713   6.044795   3.610884
     9  C    8.043214   6.344558   6.036444   7.283793   4.837537
    10  O    6.704580   5.006677   4.163761   5.056654   2.803971
    11  C    3.913713   2.326871   2.710896   4.231533   2.398254
    12  N    2.655634   1.358804   2.401281   3.809261   2.804519
    13  H    3.040622   2.875163   2.156338   1.090352   3.168474
    14  H    4.206660   3.470438   2.182592   1.091417   2.543353
    15  H    3.040575   2.875121   2.156387   1.090367   3.168546
    16  H    8.540246   6.897182   6.775616   8.109602   5.670468
    17  H    8.464802   6.759237   6.334217   7.488131   5.087279
    18  H    8.464806   6.759273   6.334235   7.488147   5.087313
    19  H    4.731506   3.288775   3.791834   5.312642   3.387747
                    6          7          8          9         10
     6  C    0.000000
     7  C    1.495743   0.000000
     8  O    2.377998   1.355775   0.000000
     9  C    3.719891   2.409116   1.421471   0.000000
    10  O    2.410612   1.233619   2.279544   2.757351   0.000000
    11  C    1.405133   2.549768   2.790025   4.206432   3.679891
    12  N    2.414664   3.797371   4.148345   5.563975   4.823324
    13  H    4.343704   5.549864   6.672207   7.927538   5.759761
    14  H    3.904722   4.804342   6.085603   7.193449   4.711111
    15  H    4.343769   5.549973   6.672296   7.927639   5.759874
    16  H    4.439716   3.310980   2.066649   1.089980   3.822928
    17  H    4.105179   2.731729   2.079704   1.091254   2.777700
    18  H    4.105228   2.731761   2.079784   1.091394   2.777744
    19  H    2.180648   2.813764   2.504046   3.812528   4.042497
                   11         12         13         14         15
    11  C    0.000000
    12  N    1.358327   0.000000
    13  H    4.729670   4.155063   0.000000
    14  H    4.736441   4.583772   1.763811   0.000000
    15  H    4.729743   4.155074   1.766331   1.763791   0.000000
    16  H    4.628925   5.949851   8.724943   8.111889   8.725057
    17  H    4.739716   6.077357   8.239052   7.305473   8.047307
    18  H    4.739725   6.077384   8.047188   7.305509   8.239181
    19  H    1.081228   2.075965   5.788494   5.800098   5.788548
                   16         17         18         19
    16  H    0.000000
    17  H    1.766488   0.000000
    18  H    1.766482   1.769122   0.000000
    19  H    3.995661   4.446960   4.446992   0.000000
 Stoichiometry    C7H7ClN2O2
 Framework group  C1[X(C7H7ClN2O2)]
 Deg. of freedom    51
 Full point group                 C1      NOp   1
 Largest Abelian subgroup         C1      NOp   1
 Largest concise Abelian subgroup C1      NOp   1
                         Standard orientation:                         
 ---------------------------------------------------------------------
 Center     Atomic      Atomic             Coordinates (Angstroms)
 Number     Number       Type             X           Y           Z
 ---------------------------------------------------------------------
      1         17           0       -3.570783   -0.769635    0.000034
      2          6           0       -1.871360   -0.451669   -0.000079
      3          6           0       -1.380906    0.862764    0.000003
      4          6           0       -2.295154    2.078422    0.000006
      5          7           0       -0.044301    1.117644   -0.000024
      6          6           0        0.813331    0.059118   -0.000044
      7          6           0        2.275625    0.373667    0.000028
      8          8           0        3.054421   -0.736109   -0.000021
      9          6           0        4.471008   -0.618369   -0.000007
     10          8           0        2.730606    1.520318    0.000015
     11          6           0        0.312858   -1.253866    0.000039
     12          7           0       -1.020838   -1.511368   -0.000037
     13          1           0       -2.934484    2.069469    0.883207
     14          1           0       -1.736724    3.016156   -0.000072
     15          1           0       -2.934610    2.069452   -0.883124
     16          1           0        4.928232   -1.607815    0.000080
     17          1           0        4.819599   -0.082616   -0.884479
     18          1           0        4.819593   -0.082625    0.884643
     19          1           0        0.965051   -2.116245   -0.000019
 ---------------------------------------------------------------------
 Rotational constants (GHZ):           2.1847237           0.3997584           0.3393544
 Standard basis: 6-31G(d,p) (6D, 7F)
 There are   219 symmetry adapted cartesian basis functions of A   symmetry.
 There are   219 symmetry adapted basis functions of A   symmetry.
   219 basis functions,   409 primitive gaussians,   219 cartesian basis functions
    48 alpha electrons       48 beta electrons
       nuclear repulsion energy       749.1950028661 Hartrees.
 NAtoms=   19 NActive=   19 NUniq=   19 SFac= 1.00D+00 NAtFMM=   60 NAOKFM=F Big=F
 Integral buffers will be    131072 words long.
 Raffenetti 2 integral format.
 Two-electron integral symmetry is turned on.
 Nuclear repulsion after empirical dispersion term =      749.1594466770 Hartrees.
 One-electron integrals computed using PRISM.
 NBasis=   219 RedAO= T EigKep=  1.22D-03  NBF=   219
 NBsUse=   219 1.00D-06 EigRej= -1.00D+00 NBFU=   219
 ExpMin= 1.43D-01 ExpMax= 2.52D+04 ExpMxC= 3.78D+03 IAcc=3 IRadAn=         5 AccDes= 0.00D+00
 Harris functional with IExCor=  402 and IRadAn=       5 diagonalized for initial guess.
 HarFok:  IExCor=  402 AccDes= 0.00D+00 IRadAn=         5 IDoV= 1 UseB2=F ITyADJ=14
 ICtDFT=  3500011 ScaDFX=  1.000000  1.000000  1.000000  1.000000
 FoFCou: FMM=F IPFlag=           0 FMFlag=      100000 FMFlg1=           0
         NFxFlg=           0 DoJE=T BraDBF=F KetDBF=T FulRan=T
         wScrn=  0.000000 ICntrl=       500 IOpCl=  0 I1Cent=   200000004 NGrid=           0
         NMat0=    1 NMatS0=      1 NMatT0=    0 NMatD0=    1 NMtDS0=    0 NMtDT0=    0
 Petite list used in FoFCou.
 Requested convergence on RMS density matrix=1.00D-08 within 128 cycles.
 Requested convergence on MAX density matrix=1.00D-06.
 Requested convergence on             energy=1.00D-06.
 No special actions if energy rises.
 Integral accuracy reduced to 1.0D-05 until final iterations.
 Initial convergence to 1.0D-05 achieved.  Increase integral accuracy.
 SCF Done:  E(RB3LYP) =  -991.146171220     A.U. after   15 cycles
            NFock= 15  Conv=0.67D-08     -V/T= 2.0068

 **********************************************************************

            Population analysis using the SCF Density.

 **********************************************************************

 Orbital symmetries:
       Occupied  (A) (A) (A) (A) (A) (A) (A) (A) (A) (A) (A) (A)
                 (A) (A) (A) (A) (A) (A) (A) (A) (A) (A) (A) (A)
                 (A) (A) (A) (A) (A) (A) (A) (A) (A) (A) (A) (A)
                 (A) (A) (A) (A) (A) (A) (A) (A) (A) (A) (A) (A)
       Virtual   (A) (A) (A) (A) (A) (A) (A) (A) (A) (A) (A) (A)
                 (A) (A) (A) (A) (A) (A) (A) (A) (A) (A) (A) (A)
                 (A) (A) (A) (A) (A) (A) (A) (A) (A) (A) (A) (A)
                 (A) (A) (A) (A) (A) (A) (A) (A) (A) (A) (A) (A)
                 (A) (A) (A) (A) (A) (A) (A) (A) (A) (A) (A) (A)
                 (A) (A) (A) (A) (A) (A) (A) (A) (A) (A) (A) (A)
                 (A) (A) (A) (A) (A) (A) (A) (A) (A) (A) (A) (A)
                 (A) (A) (A) (A) (A) (A) (A) (A) (A) (A) (A) (A)
                 (A) (A) (A) (A) (A) (A) (A) (A) (A) (A) (A) (A)
                 (A) (A) (A) (A) (A) (A) (A) (A) (A) (A) (A) (A)
                 (A) (A) (A) (A) (A) (A) (A) (A) (A) (A) (A) (A)
                 (A) (A) (A) (A) (A) (A) (A) (A) (A) (A) (A) (A)
                 (A) (A) (A) (A) (A) (A) (A) (A) (A) (A) (A) (A)
                 (A) (A) (A) (A) (A) (A) (A) (A) (A) (A) (A) (A)
                 (A) (A) (A)
 The electronic state is 1-A.
 Alpha  occ. eigenvalues -- -101.57149 -19.20775 -19.14443 -14.37485 -14.37079
 Alpha  occ. eigenvalues --  -10.33297 -10.30708 -10.26752 -10.26240 -10.25772
 Alpha  occ. eigenvalues --  -10.25265 -10.19820  -9.48819  -7.25217  -7.24269
 Alpha  occ. eigenvalues --   -7.24175  -1.10974  -1.01628  -0.99683  -0.92530
 Alpha  occ. eigenvalues --   -0.88090  -0.80541  -0.75458  -0.72309  -0.67163
 Alpha  occ. eigenvalues --   -0.65202  -0.58892  -0.54614  -0.53830  -0.50940
 Alpha  occ. eigenvalues --   -0.49212  -0.47563  -0.46314  -0.44975  -0.43980
 Alpha  occ. eigenvalues --   -0.41993  -0.41595  -0.40362  -0.39812  -0.36393
 Alpha  occ. eigenvalues --   -0.36359  -0.34210  -0.32735  -0.31583  -0.30819
 Alpha  occ. eigenvalues --   -0.28179  -0.27436  -0.27024
 Alpha virt. eigenvalues --   -0.08477  -0.05538   0.02522   0.02668   0.10390
 Alpha virt. eigenvalues --    0.10760   0.11646   0.12137   0.13983   0.14466
 Alpha virt. eigenvalues --    0.15139   0.16727   0.17328   0.19134   0.20674
 Alpha virt. eigenvalues --    0.24174   0.27283   0.28353   0.28777   0.33360
 Alpha virt. eigenvalues --    0.35930   0.38051   0.39759   0.40943   0.43828
 Alpha virt. eigenvalues --    0.44973   0.45836   0.48924   0.50063   0.50512
 Alpha virt. eigenvalues --    0.51807   0.53987   0.54121   0.55570   0.56591
 Alpha virt. eigenvalues --    0.56831   0.59440   0.61224   0.61958   0.63597
 Alpha virt. eigenvalues --    0.64300   0.66902   0.70140   0.71476   0.72082
 Alpha virt. eigenvalues --    0.75116   0.76479   0.78084   0.80585   0.81698
 Alpha virt. eigenvalues --    0.82132   0.83112   0.83405   0.84872   0.85067
 Alpha virt. eigenvalues --    0.85685   0.87115   0.87433   0.89317   0.91508
 Alpha virt. eigenvalues --    0.93241   0.93978   0.94924   0.96168   0.97231
 Alpha virt. eigenvalues --    0.97613   1.02237   1.03948   1.05890   1.07056
 Alpha virt. eigenvalues --    1.09234   1.12630   1.19634   1.21294   1.25424
 Alpha virt. eigenvalues --    1.27066   1.29627   1.29839   1.30837   1.31378
 Alpha virt. eigenvalues --    1.35768   1.39631   1.41746   1.43885   1.44766
 Alpha virt. eigenvalues --    1.46963   1.52657   1.53200   1.59912   1.61718
 Alpha virt. eigenvalues --    1.65162   1.68444   1.71281   1.73824   1.75618
 Alpha virt. eigenvalues --    1.77188   1.78846   1.80073   1.83347   1.85329
 Alpha virt. eigenvalues --    1.85363   1.86997   1.90783   1.92319   1.95834
 Alpha virt. eigenvalues --    1.97693   2.00146   2.01727   2.01986   2.03294
 Alpha virt. eigenvalues --    2.04524   2.04589   2.07500   2.09952   2.12596
 Alpha virt. eigenvalues --    2.12789   2.16258   2.17033   2.17402   2.22570
 Alpha virt. eigenvalues --    2.29114   2.30002   2.30419   2.31538   2.38212
 Alpha virt. eigenvalues --    2.38910   2.42893   2.46666   2.47479   2.50744
 Alpha virt. eigenvalues --    2.55021   2.56795   2.57392   2.60397   2.63056
 Alpha virt. eigenvalues --    2.63740   2.64896   2.67641   2.70511   2.74159
 Alpha virt. eigenvalues --    2.76258   2.80868   2.83803   2.84484   2.85671
 Alpha virt. eigenvalues --    2.88981   2.93523   2.96743   3.03140   3.13036
 Alpha virt. eigenvalues --    3.16762   3.19496   3.21196   3.30015   3.40384
 Alpha virt. eigenvalues --    3.41994   3.42812   3.44586   3.54991   3.90107
 Alpha virt. eigenvalues --    4.01378   4.02091   4.10818   4.25718   4.29419
 Alpha virt. eigenvalues --    4.33582   4.37119   4.43535   4.49257   4.57176
 Alpha virt. eigenvalues --    4.67207
          Condensed to atoms (all electrons):
               1          2          3          4          5          6
     1  Cl  16.817572   0.270489  -0.080041   0.004269   0.002977   0.000578
     2  C    0.270489   5.101536   0.384504  -0.082149  -0.038747  -0.037561
     3  C   -0.080041   0.384504   4.763538   0.370273   0.441799  -0.037516
     4  C    0.004269  -0.082149   0.370273   5.035795  -0.081939   0.007881
     5  N    0.002977  -0.038747   0.441799  -0.081939   6.888194   0.404215
     6  C    0.000578  -0.037561  -0.037516   0.007881   0.404215   5.027307
     7  C    0.000023   0.000130   0.007704  -0.000091  -0.067286   0.284475
     8  O   -0.000000  -0.000011  -0.000023   0.000000   0.001554  -0.095275
     9  C    0.000000   0.000001   0.000001  -0.000000  -0.000065   0.007078
    10  O   -0.000000  -0.000023   0.000412   0.000003   0.001040  -0.070732
    11  C    0.003713  -0.065140  -0.031703   0.000449  -0.065703   0.397394
    12  N   -0.073824   0.393428  -0.040898   0.004272  -0.034724  -0.022799
    13  H    0.001618  -0.002794  -0.026175   0.374455   0.001684  -0.000178
    14  H    0.000210   0.005547  -0.020354   0.366263   0.003963  -0.000074
    15  H    0.001617  -0.002794  -0.026177   0.374461   0.001685  -0.000178
    16  H   -0.000000   0.000000  -0.000000   0.000000   0.000001   0.000054
    17  H    0.000000  -0.000000  -0.000000   0.000000   0.000001  -0.000136
    18  H    0.000000  -0.000000  -0.000000   0.000000   0.000001  -0.000135
    19  H   -0.000105   0.005132   0.000385   0.000021   0.003493  -0.054026
               7          8          9         10         11         12
     1  Cl   0.000023  -0.000000   0.000000  -0.000000   0.003713  -0.073824
     2  C    0.000130  -0.000011   0.000001  -0.000023  -0.065140   0.393428
     3  C    0.007704  -0.000023   0.000001   0.000412  -0.031703  -0.040898
     4  C   -0.000091   0.000000  -0.000000   0.000003   0.000449   0.004272
     5  N   -0.067286   0.001554  -0.000065   0.001040  -0.065703  -0.034724
     6  C    0.284475  -0.095275   0.007078  -0.070732   0.397394  -0.022799
     7  C    4.431226   0.266398  -0.020240   0.541869  -0.056549   0.003444
     8  O    0.266398   8.244884   0.220398  -0.084765   0.007488   0.000206
     9  C   -0.020240   0.220398   4.712349   0.005411  -0.000589  -0.000001
    10  O    0.541869  -0.084765   0.005411   8.059505   0.003502  -0.000027
    11  C   -0.056549   0.007488  -0.000589   0.003502   4.900559   0.429638
    12  N    0.003444   0.000206  -0.000001  -0.000027   0.429638   6.795167
    13  H    0.000003  -0.000000   0.000000  -0.000000   0.000019  -0.000022
    14  H   -0.000037   0.000000  -0.000000   0.000004   0.000020  -0.000086
    15  H    0.000003  -0.000000   0.000000  -0.000000   0.000019  -0.000022
    16  H    0.003338  -0.029194   0.390254   0.000349  -0.000060  -0.000000
    17  H   -0.004035  -0.031753   0.384662   0.005069   0.000050   0.000000
    18  H   -0.004037  -0.031752   0.384643   0.005067   0.000050   0.000000
    19  H    0.000394   0.007390  -0.000159   0.000069   0.383312  -0.046762
              13         14         15         16         17         18
     1  Cl   0.001618   0.000210   0.001617  -0.000000   0.000000   0.000000
     2  C   -0.002794   0.005547  -0.002794   0.000000  -0.000000  -0.000000
     3  C   -0.026175  -0.020354  -0.026177  -0.000000  -0.000000  -0.000000
     4  C    0.374455   0.366263   0.374461   0.000000   0.000000   0.000000
     5  N    0.001684   0.003963   0.001685   0.000001   0.000001   0.000001
     6  C   -0.000178  -0.000074  -0.000178   0.000054  -0.000136  -0.000135
     7  C    0.000003  -0.000037   0.000003   0.003338  -0.004035  -0.004037
     8  O   -0.000000   0.000000  -0.000000  -0.029194  -0.031753  -0.031752
     9  C    0.000000  -0.000000   0.000000   0.390254   0.384662   0.384643
    10  O   -0.000000   0.000004  -0.000000   0.000349   0.005069   0.005067
    11  C    0.000019   0.000020   0.000019  -0.000060   0.000050   0.000050
    12  N   -0.000022  -0.000086  -0.000022  -0.000000   0.000000   0.000000
    13  H    0.566871  -0.025195  -0.029085  -0.000000  -0.000000   0.000000
    14  H   -0.025195   0.548831  -0.025198   0.000000  -0.000000  -0.000000
    15  H   -0.029085  -0.025198   0.566874  -0.000000   0.000000  -0.000000
    16  H   -0.000000   0.000000  -0.000000   0.580243  -0.035952  -0.035957
    17  H   -0.000000  -0.000000   0.000000  -0.035952   0.584776  -0.036859
    18  H    0.000000  -0.000000  -0.000000  -0.035957  -0.036859   0.584830
    19  H   -0.000000  -0.000001  -0.000000  -0.000033   0.000024   0.000024
              19
     1  Cl  -0.000105
     2  C    0.005132
     3  C    0.000385
     4  C    0.000021
     5  N    0.003493
     6  C   -0.054026
     7  C    0.000394
     8  O    0.007390
     9  C   -0.000159
    10  O    0.000069
    11  C    0.383312
    12  N   -0.046762
    13  H   -0.000000
    14  H   -0.000001
    15  H   -0.000000
    16  H   -0.000033
    17  H    0.000024
    18  H    0.000024
    19  H    0.560698
 Mulliken charges:
               1
     1  Cl   0.050905
     2  C    0.068451
     3  C    0.294269
     4  C   -0.373964
     5  N   -0.462142
     6  C    0.189630
     7  C    0.613269
     8  O   -0.475546
     9  C   -0.083743
    10  O   -0.466753
    11  C    0.093530
    12  N   -0.406990
    13  H    0.138799
    14  H    0.146106
    15  H    0.138797
    16  H    0.126958
    17  H    0.134154
    18  H    0.134125
    19  H    0.140145
 Sum of Mulliken charges =  -0.00000
 Mulliken charges with hydrogens summed into heavy atoms:
               1
     1  Cl   0.050905
     2  C    0.068451
     3  C    0.294269
     4  C    0.049738
     5  N   -0.462142
     6  C    0.189630
     7  C    0.613269
     8  O   -0.475546
     9  C    0.311495
    10  O   -0.466753
    11  C    0.233674
    12  N   -0.406990
 Electronic spatial extent (au):  <R**2>=           3016.9916
 Charge=             -0.0000 electrons
 Dipole moment (field-independent basis, Debye):
    X=              0.8286    Y=             -1.0728    Z=              0.0000  Tot=              1.3555
 Quadrupole moment (field-independent basis, Debye-Ang):
   XX=            -63.1346   YY=            -80.6169   ZZ=            -73.6449
   XY=            -13.6222   XZ=             -0.0001   YZ=             -0.0003
 Traceless Quadrupole moment (field-independent basis, Debye-Ang):
   XX=              9.3309   YY=             -8.1515   ZZ=             -1.1794
   XY=            -13.6222   XZ=             -0.0001   YZ=             -0.0003
 Octapole moment (field-independent basis, Debye-Ang**2):
  XXX=             70.5187  YYY=             -0.8888  ZZZ=              0.0001  XYY=             -6.1637
  XXY=            -16.7423  XXZ=              0.0004  XZZ=              5.1041  YZZ=              1.4892
  YYZ=             -0.0002  XYZ=             -0.0006
 Hexadecapole moment (field-independent basis, Debye-Ang**3):
 XXXX=          -2654.7809 YYYY=           -660.7030 ZZZZ=            -82.6573 XXXY=           -100.0027
 XXXZ=             -0.0053 YYYX=            -44.9060 YYYZ=             -0.0020 ZZZX=             -0.0018
 ZZZY=              0.0004 XXYY=           -637.7345 XXZZ=           -515.6193 YYZZ=           -124.0096
 XXYZ=             -0.0055 YYXZ=              0.0002 ZZXY=              4.2763
 N-N= 7.491594466770D+02 E-N=-3.828795776821D+03  KE= 9.844999778675D+02
 Calling FoFJK, ICntrl=      2127 FMM=F ISym2X=0 I1Cent= 0 IOpClX= 0 NMat=1 NMatS=1 NMatT=0.
 ***** Axes restored to original set *****
 -------------------------------------------------------------------
 Center     Atomic                   Forces (Hartrees/Bohr)
 Number     Number              X              Y              Z
 -------------------------------------------------------------------
      1       17           0.001835562   -0.003202888    0.001893724
      2        6          -0.047480110   -0.002039349   -0.002737442
      3        6          -0.000743038    0.028096299   -0.015311185
      4        6          -0.006913421   -0.002970985    0.001065209
      5        7          -0.004735746   -0.019466359    0.010197978
      6        6           0.020064875   -0.005924554    0.004814820
      7        6          -0.006029976    0.040698032   -0.022586270
      8        8           0.009417949   -0.016813541    0.009894465
      9        6          -0.002554934    0.013780718   -0.007792444
     10        8          -0.004911737   -0.032033493    0.017008387
     11        6           0.021016780   -0.004542805    0.004187986
     12        7           0.013202259    0.013942057   -0.006516295
     13        1           0.002792401   -0.002659446    0.000510017
     14        1          -0.006491835   -0.001519734    0.000299654
     15        1           0.002640584   -0.001697108    0.002285620
     16        1           0.005934596   -0.006596938    0.004073520
     17        1           0.002406279    0.002172249    0.000461664
     18        1           0.002589082    0.000958897   -0.001676962
     19        1          -0.002039569   -0.000181051   -0.000072445
 -------------------------------------------------------------------
 Cartesian Forces:  Max     0.047480110 RMS     0.013036330

 GradGradGradGradGradGradGradGradGradGradGradGradGradGradGradGradGradGrad
 Berny optimization.
 FormGI is forming the generalized inverse of G from B-inverse, IUseBI=4.
 Internal  Forces:  Max     0.036592749 RMS     0.009029362
 Search for a local minimum.
 Step number   1 out of a maximum of   90
 All quantities printed in internal units (Hartrees-Bohrs-Radians)
 Mixed Optimization -- RFO/linear search
 Second derivative matrix not updated -- first step.
 ITU=  0
     Eigenvalues ---    0.00487   0.00822   0.01303   0.01360   0.01408
     Eigenvalues ---    0.01616   0.02066   0.02086   0.02117   0.02143
     Eigenvalues ---    0.02223   0.02277   0.06971   0.07209   0.10101
     Eigenvalues ---    0.10222   0.16000   0.16000   0.16000   0.16000
     Eigenvalues ---    0.16000   0.16000   0.16000   0.23346   0.25000
     Eigenvalues ---    0.25000   0.25000   0.25000   0.25000   0.25000
     Eigenvalues ---    0.25000   0.25000   0.30263   0.32624   0.32828
     Eigenvalues ---    0.34649   0.34652   0.34668   0.34770   0.34772
     Eigenvalues ---    0.34815   0.35846   0.41838   0.42240   0.44965
     Eigenvalues ---    0.49103   0.51520   0.52887   0.53073   0.53811
     Eigenvalues ---    0.89595
 RFO step:  Lambda=-1.53584146D-02 EMin= 4.87141745D-03
 Linear search not attempted -- first point.
 Iteration  1 RMS(Cart)=  0.06035735 RMS(Int)=  0.00057902
 Iteration  2 RMS(Cart)=  0.00104617 RMS(Int)=  0.00010629
 Iteration  3 RMS(Cart)=  0.00000022 RMS(Int)=  0.00010629
 Variable       Old X    -DE/DX   Delta X   Delta X   Delta X     New X
                                 (Linear)    (Quad)   (Total)
    R1        3.26717   0.00377   0.00000   0.01102   0.01102   3.27820
    R2        2.65120   0.00405   0.00000   0.00892   0.00898   2.66018
    R3        2.56777  -0.03317   0.00000  -0.06082  -0.06082   2.50695
    R4        2.87442  -0.01135   0.00000  -0.03570  -0.03570   2.83872
    R5        2.57133  -0.02717   0.00000  -0.04956  -0.04950   2.52183
    R6        2.06047   0.00296   0.00000   0.00814   0.00814   2.06861
    R7        2.06248  -0.00119   0.00000  -0.00328  -0.00328   2.05920
    R8        2.06050   0.00295   0.00000   0.00811   0.00811   2.06861
    R9        2.57448  -0.02293   0.00000  -0.04224  -0.04224   2.53223
   R10        2.82654  -0.00381   0.00000  -0.01109  -0.01109   2.81546
   R11        2.65532  -0.00725   0.00000  -0.01591  -0.01596   2.63935
   R12        2.56204  -0.01230   0.00000  -0.02223  -0.02223   2.53982
   R13        2.33120  -0.03659   0.00000  -0.04015  -0.04015   2.29105
   R14        2.68619  -0.00083   0.00000  -0.00189  -0.00189   2.68430
   R15        2.05976  -0.00010   0.00000  -0.00027  -0.00027   2.05949
   R16        2.06217   0.00189   0.00000   0.00522   0.00522   2.06739
   R17        2.06244   0.00180   0.00000   0.00499   0.00499   2.06742
   R18        2.56687  -0.02591   0.00000  -0.04769  -0.04775   2.51912
   R19        2.04322   0.00191   0.00000   0.00511   0.00511   2.04833
    A1        2.11289  -0.00387   0.00000  -0.01458  -0.01461   2.09828
    A2        2.06216  -0.00956   0.00000  -0.03603  -0.03606   2.02610
    A3        2.10813   0.01344   0.00000   0.05061   0.05067   2.15880
    A4        2.13964   0.00149   0.00000   0.00492   0.00487   2.14451
    A5        2.11636  -0.00750   0.00000  -0.02692  -0.02680   2.08955
    A6        2.02719   0.00602   0.00000   0.02199   0.02194   2.04912
    A7        1.92396   0.00192   0.00000   0.01086   0.01086   1.93482
    A8        1.95966  -0.00941   0.00000  -0.05350  -0.05345   1.90621
    A9        1.92401   0.00191   0.00000   0.01081   0.01081   1.93482
   A10        1.88297   0.00393   0.00000   0.02260   0.02264   1.90560
   A11        1.88822  -0.00203   0.00000  -0.01189  -0.01194   1.87628
   A12        1.88291   0.00394   0.00000   0.02264   0.02268   1.90559
   A13        2.06330  -0.00537   0.00000  -0.01815  -0.01807   2.04524
   A14        2.03986  -0.00451   0.00000  -0.01700  -0.01698   2.02288
   A15        2.09648   0.00818   0.00000   0.03086   0.03080   2.12729
   A16        2.14684  -0.00367   0.00000  -0.01385  -0.01383   2.13302
   A17        1.97082  -0.01041   0.00000  -0.03924  -0.03924   1.93159
   A18        2.16041   0.00606   0.00000   0.02283   0.02283   2.18324
   A19        2.15195   0.00435   0.00000   0.01641   0.01641   2.16836
   A20        2.09978  -0.02427   0.00000  -0.09144  -0.09144   2.00833
   A21        1.92074  -0.01337   0.00000  -0.07763  -0.07805   1.84269
   A22        1.93799  -0.00012   0.00000  -0.00000  -0.00026   1.93773
   A23        1.93795  -0.00012   0.00000   0.00004  -0.00022   1.93773
   A24        1.88782   0.00645   0.00000   0.03545   0.03502   1.92284
   A25        1.88763   0.00646   0.00000   0.03555   0.03513   1.92276
   A26        1.89015   0.00127   0.00000   0.00985   0.00972   1.89986
   A27        2.12569   0.00016   0.00000  -0.00082  -0.00093   2.12477
   A28        2.12992  -0.00084   0.00000  -0.00390  -0.00385   2.12607
   A29        2.02757   0.00068   0.00000   0.00472   0.00478   2.03235
   A30        2.05640  -0.00890   0.00000  -0.03558  -0.03567   2.02073
    D1       -0.00015   0.00001   0.00000   0.00016   0.00016   0.00001
    D2        3.14154   0.00000   0.00000   0.00008   0.00008  -3.14157
    D3       -3.14156  -0.00000   0.00000  -0.00006  -0.00006   3.14156
    D4        0.00013  -0.00000   0.00000  -0.00015  -0.00015  -0.00002
    D5       -3.14146  -0.00001   0.00000  -0.00016  -0.00016   3.14157
    D6       -0.00004   0.00000   0.00000   0.00006   0.00006   0.00002
    D7        1.04183  -0.00005   0.00000  -0.00058  -0.00054   1.04129
    D8       -3.14145  -0.00000   0.00000  -0.00005  -0.00005  -3.14150
    D9       -1.04157   0.00005   0.00000   0.00049   0.00045  -1.04111
   D10       -2.09985  -0.00005   0.00000  -0.00050  -0.00046  -2.10032
   D11        0.00006   0.00000   0.00000   0.00003   0.00003   0.00008
   D12        2.09994   0.00005   0.00000   0.00057   0.00053   2.10047
   D13       -0.00007   0.00000   0.00000   0.00008   0.00008   0.00001
   D14       -3.14158   0.00000   0.00000   0.00001   0.00000  -3.14158
   D15       -3.14152  -0.00000   0.00000  -0.00004  -0.00004  -3.14156
   D16       -0.00006   0.00000   0.00000   0.00007   0.00006   0.00000
   D17       -3.14157  -0.00000   0.00000  -0.00006  -0.00006   3.14155
   D18       -0.00009   0.00000   0.00000   0.00016   0.00016   0.00007
   D19        0.00016  -0.00001   0.00000  -0.00017  -0.00017  -0.00001
   D20       -3.14154   0.00000   0.00000   0.00005   0.00005  -3.14149
   D21        0.00015  -0.00000   0.00000  -0.00015  -0.00015   0.00000
   D22        3.14154   0.00000   0.00000   0.00004   0.00004   3.14158
   D23       -3.14159  -0.00000   0.00000  -0.00004  -0.00004   3.14156
   D24       -0.00020   0.00001   0.00000   0.00015   0.00015  -0.00005
   D25        3.14156   0.00000   0.00000   0.00011   0.00011  -3.14152
   D26        0.00007  -0.00000   0.00000  -0.00011  -0.00011  -0.00004
   D27        3.14146   0.00001   0.00000   0.00007   0.00007   3.14153
   D28       -1.05202  -0.00073   0.00000  -0.00626  -0.00601  -1.05803
   D29        1.05201   0.00072   0.00000   0.00623   0.00598   1.05800
   D30       -0.00010   0.00000   0.00000   0.00009   0.00009  -0.00001
   D31       -3.14150  -0.00000   0.00000  -0.00009  -0.00009   3.14159
         Item               Value     Threshold  Converged?
 Maximum Force            0.036593     0.000450     NO 
 RMS     Force            0.009029     0.000300     NO 
 Maximum Displacement     0.211412     0.001800     NO 
 RMS     Displacement     0.061144     0.001200     NO 
 Predicted change in Energy=-8.035061D-03
 GradGradGradGradGradGradGradGradGradGradGradGradGradGradGradGradGradGrad

                          Input orientation:                          
 ---------------------------------------------------------------------
 Center     Atomic      Atomic             Coordinates (Angstroms)
 Number     Number       Type             X           Y           Z
 ---------------------------------------------------------------------
      1         17           0        3.313526   -2.159345    1.180737
      2          6           0        1.973426   -1.240351    0.573340
      3          6           0        2.193654   -0.011368   -0.076843
      4          6           0        3.564157    0.568581   -0.281653
      5          7           0        1.155435    0.687399   -0.540204
      6          6           0       -0.064991    0.165965   -0.355085
      7          6           0       -1.203009    0.969398   -0.883420
      8          8           0       -2.372138    0.351948   -0.642044
      9          6           0       -3.523812    1.040018   -1.108894
     10          8           0       -1.098939    2.034130   -1.453823
     11          6           0       -0.254399   -1.056201    0.293886
     12          7           0        0.770864   -1.767426    0.762977
     13          1           0        4.190429   -0.109648   -0.869931
     14          1           0        3.476402    1.519958   -0.805657
     15          1           0        4.065869    0.731219    0.677574
     16          1           0       -4.371130    0.411442   -0.835602
     17          1           0       -3.613776    2.021655   -0.634371
     18          1           0       -3.488025    1.173872   -2.194117
     19          1           0       -1.242142   -1.476948    0.443029
 ---------------------------------------------------------------------
                    Distance matrix (angstroms):
                    1          2          3          4          5
     1  Cl   0.000000
     2  C    1.734747   0.000000
     3  C    2.729364   1.407707   0.000000
     4  C    3.105314   2.556104   1.502187   0.000000
     5  N    3.965217   2.371774   1.334495   2.425471   0.000000
     6  C    4.379519   2.644776   2.282617   3.652150   1.340000
     7  C    5.869315   4.134596   3.626264   4.821685   2.399912
     8  O    6.477337   4.785029   4.614965   5.951168   3.544949
     9  C    7.888442   6.184627   5.904232   7.151635   4.726848
    10  O    6.632946   4.926565   4.113550   5.026557   2.780392
    11  C    3.838426   2.252823   2.687393   4.189574   2.392380
    12  N    2.606386   1.326622   2.411093   3.788227   2.805770
    13  H    3.029101   2.876912   2.150758   1.094661   3.155185
    14  H    4.184443   3.432182   2.126399   1.089680   2.480022
    15  H    3.028952   2.876851   2.150761   1.094661   3.155239
    16  H    8.350359   6.705739   6.621999   7.956151   5.541329
    17  H    8.292339   6.581495   6.178208   7.332023   4.953229
    18  H    8.292229   6.581394   6.178116   7.331928   4.953161
    19  H    4.665189   3.226893   3.771324   5.273506   3.376318
                    6          7          8          9         10
     6  C    0.000000
     7  C    1.489876   0.000000
     8  O    2.332352   1.344012   0.000000
     9  C    3.646319   2.332799   1.420472   0.000000
    10  O    2.401315   1.212371   2.260477   2.643339   0.000000
    11  C    1.396685   2.527640   2.709920   4.129284   3.649367
    12  N    2.384684   3.754599   4.042808   5.461674   4.781443
    13  H    4.295303   5.500336   6.582726   7.803098   5.737083
    14  H    3.818085   4.712329   5.966274   7.023196   4.649541
    15  H    4.295335   5.500410   6.582794   7.803210   5.737218
    16  H    4.339815   3.217234   2.009222   1.089837   3.704396
    17  H    4.014407   2.642171   2.080780   1.094018   2.645007
    18  H    4.014360   2.642165   2.080792   1.094032   2.644960
    19  H    2.172978   2.783093   2.408139   3.734916   3.993272
                   11         12         13         14         15
    11  C    0.000000
    12  N    1.333061   0.000000
    13  H    4.691154   4.136186   0.000000
    14  H    4.665240   4.537339   1.780332   0.000000
    15  H    4.691141   4.136131   1.765601   1.780325   0.000000
    16  H    4.514111   5.808875   8.577471   7.925494   8.577582
    17  H    4.649761   5.961106   8.093427   7.109969   7.897048
    18  H    4.649702   5.961022   7.896806   7.109911   8.093446
    19  H    1.083932   2.058869   5.753799   5.727593   5.753781
                   16         17         18         19
    16  H    0.000000
    17  H    1.790772   0.000000
    18  H    1.790736   1.779707   0.000000
    19  H    3.871883   4.361841   4.361809   0.000000
 Stoichiometry    C7H7ClN2O2
 Framework group  C1[X(C7H7ClN2O2)]
 Deg. of freedom    51
 Full point group                 C1      NOp   1
 Largest Abelian subgroup         C1      NOp   1
 Largest concise Abelian subgroup C1      NOp   1
                         Standard orientation:                         
 ---------------------------------------------------------------------
 Center     Atomic      Atomic             Coordinates (Angstroms)
 Number     Number       Type             X           Y           Z
 ---------------------------------------------------------------------
      1         17           0       -3.512282   -0.767290    0.000034
      2          6           0       -1.808543   -0.440762    0.000019
      3          6           0       -1.341575    0.887236   -0.000001
      4          6           0       -2.261347    2.074916    0.000004
      5          7           0       -0.028790    1.126972   -0.000039
      6          6           0        0.787553    0.064341   -0.000065
      7          6           0        2.246841    0.364685   -0.000059
      8          8           0        2.965054   -0.771334   -0.000033
      9          6           0        4.374223   -0.592496    0.000072
     10          8           0        2.729503    1.476836    0.000037
     11          6           0        0.296529   -1.243186   -0.000054
     12          7           0       -1.011338   -1.501134   -0.000017
     13          1           0       -2.908476    2.066698    0.882862
     14          1           0       -1.667434    2.988518   -0.000112
     15          1           0       -2.908633    2.066590   -0.882738
     16          1           0        4.796745   -1.597095    0.000146
     17          1           0        4.700574   -0.046063   -0.889749
     18          1           0        4.700449   -0.046064    0.889958
     19          1           0        0.957917   -2.101949   -0.000082
 ---------------------------------------------------------------------
 Rotational constants (GHZ):           2.2066672           0.4148316           0.3507226
 Standard basis: 6-31G(d,p) (6D, 7F)
 There are   219 symmetry adapted cartesian basis functions of A   symmetry.
 There are   219 symmetry adapted basis functions of A   symmetry.
   219 basis functions,   409 primitive gaussians,   219 cartesian basis functions
    48 alpha electrons       48 beta electrons
       nuclear repulsion energy       758.8586601904 Hartrees.
 NAtoms=   19 NActive=   19 NUniq=   19 SFac= 1.00D+00 NAtFMM=   60 NAOKFM=F Big=F
 Integral buffers will be    131072 words long.
 Raffenetti 2 integral format.
 Two-electron integral symmetry is turned on.
 Nuclear repulsion after empirical dispersion term =      758.8226474651 Hartrees.
 One-electron integrals computed using PRISM.
 NBasis=   219 RedAO= T EigKep=  1.17D-03  NBF=   219
 NBsUse=   219 1.00D-06 EigRej= -1.00D+00 NBFU=   219
 Initial guess from the checkpoint file:  "pyrz1_conf-2.chk"
 B after Tr=    -0.000000    0.000000    0.000000
         Rot=    0.999999    0.000001    0.000000    0.001532 Ang=   0.18 deg.
 ExpMin= 1.43D-01 ExpMax= 2.52D+04 ExpMxC= 3.78D+03 IAcc=3 IRadAn=         5 AccDes= 0.00D+00
 Harris functional with IExCor=  402 and IRadAn=       5 diagonalized for initial guess.
 HarFok:  IExCor=  402 AccDes= 0.00D+00 IRadAn=         5 IDoV= 1 UseB2=F ITyADJ=14
 ICtDFT=  3500011 ScaDFX=  1.000000  1.000000  1.000000  1.000000
 FoFCou: FMM=F IPFlag=           0 FMFlag=      100000 FMFlg1=           0
         NFxFlg=           0 DoJE=T BraDBF=F KetDBF=T FulRan=T
         wScrn=  0.000000 ICntrl=       500 IOpCl=  0 I1Cent=   200000004 NGrid=           0
         NMat0=    1 NMatS0=      1 NMatT0=    0 NMatD0=    1 NMtDS0=    0 NMtDT0=    0
 Petite list used in FoFCou.
 Requested convergence on RMS density matrix=1.00D-08 within 128 cycles.
 Requested convergence on MAX density matrix=1.00D-06.
 Requested convergence on             energy=1.00D-06.
 No special actions if energy rises.
 Integral accuracy reduced to 1.0D-05 until final iterations.
 Initial convergence to 1.0D-05 achieved.  Increase integral accuracy.
 SCF Done:  E(RB3LYP) =  -991.153674013     A.U. after   13 cycles
            NFock= 13  Conv=0.46D-08     -V/T= 2.0062
 Calling FoFJK, ICntrl=      2127 FMM=F ISym2X=0 I1Cent= 0 IOpClX= 0 NMat=1 NMatS=1 NMatT=0.
 ***** Axes restored to original set *****
 -------------------------------------------------------------------
 Center     Atomic                   Forces (Hartrees/Bohr)
 Number     Number              X              Y              Z
 -------------------------------------------------------------------
      1       17           0.006768147   -0.002831855    0.002082814
      2        6          -0.010920464   -0.003622825    0.001093078
      3        6           0.006605709    0.007664717   -0.003632906
      4        6          -0.000122283   -0.000972907    0.000520076
      5        7          -0.000482270   -0.005904652    0.003171048
      6        6           0.001401844    0.000237283   -0.000014573
      7        6           0.002836946    0.008439542   -0.004372920
      8        8           0.000797771   -0.004744037    0.002647329
      9        6          -0.010160423    0.003278877   -0.002614408
     10        8          -0.001034201   -0.004441428    0.002337141
     11        6          -0.004923850   -0.001086540    0.000195074
     12        7           0.008278385    0.003167164   -0.001056090
     13        1           0.000627901   -0.000062956    0.000744245
     14        1          -0.000865649    0.000023207   -0.000083717
     15        1           0.000708855   -0.000614553   -0.000269148
     16        1          -0.000362954    0.000285865   -0.000179744
     17        1           0.000858303   -0.000504188   -0.000564855
     18        1           0.000749730    0.000255543    0.000838309
     19        1          -0.000761498    0.001433744   -0.000840752
 -------------------------------------------------------------------
 Cartesian Forces:  Max     0.010920464 RMS     0.003616206

 GradGradGradGradGradGradGradGradGradGradGradGradGradGradGradGradGradGrad
 Berny optimization.
 Using GEDIIS/GDIIS optimizer.
 FormGI is forming the generalized inverse of G from B-inverse, IUseBI=4.
 Internal  Forces:  Max     0.009662979 RMS     0.002501537
 Search for a local minimum.
 Step number   2 out of a maximum of   90
 All quantities printed in internal units (Hartrees-Bohrs-Radians)
 Mixed Optimization -- RFO/linear search
 Update second derivatives using D2CorX and points    1    2
 DE= -7.50D-03 DEPred=-8.04D-03 R= 9.34D-01
 TightC=F SS=  1.41D+00  RLast= 2.16D-01 DXNew= 5.0454D-01 6.4651D-01
 Trust test= 9.34D-01 RLast= 2.16D-01 DXMaxT set to 5.05D-01
 ITU=  1  0
 Use linear search instead of GDIIS.
     Eigenvalues ---    0.00487   0.00822   0.01300   0.01342   0.01408
     Eigenvalues ---    0.01631   0.02066   0.02086   0.02116   0.02140
     Eigenvalues ---    0.02222   0.02277   0.07157   0.07269   0.10172
     Eigenvalues ---    0.10677   0.15416   0.16000   0.16000   0.16000
     Eigenvalues ---    0.16000   0.16000   0.16259   0.22896   0.23828
     Eigenvalues ---    0.25000   0.25000   0.25000   0.25000   0.25000
     Eigenvalues ---    0.25000   0.27765   0.30066   0.32539   0.33619
     Eigenvalues ---    0.34649   0.34659   0.34703   0.34771   0.34815
     Eigenvalues ---    0.34866   0.35850   0.41356   0.42322   0.44985
     Eigenvalues ---    0.49131   0.50484   0.52246   0.53345   0.60655
     Eigenvalues ---    0.87299
 RFO step:  Lambda=-1.29397672D-03 EMin= 4.87141745D-03
 Quartic linear search produced a step of -0.04689.
 Iteration  1 RMS(Cart)=  0.01692226 RMS(Int)=  0.00006827
 Iteration  2 RMS(Cart)=  0.00010637 RMS(Int)=  0.00001272
 Iteration  3 RMS(Cart)=  0.00000001 RMS(Int)=  0.00001272
 Variable       Old X    -DE/DX   Delta X   Delta X   Delta X     New X
                                 (Linear)    (Quad)   (Total)
    R1        3.27820   0.00746  -0.00052   0.02321   0.02269   3.30089
    R2        2.66018   0.00347  -0.00042   0.00826   0.00783   2.66801
    R3        2.50695  -0.00308   0.00285  -0.01381  -0.01097   2.49598
    R4        2.83872  -0.00043   0.00167  -0.00627  -0.00459   2.83413
    R5        2.52183   0.00117   0.00232  -0.00469  -0.00237   2.51947
    R6        2.06861  -0.00000  -0.00038   0.00111   0.00073   2.06934
    R7        2.05920   0.00013   0.00015  -0.00009   0.00006   2.05926
    R8        2.06861  -0.00000  -0.00038   0.00110   0.00072   2.06933
    R9        2.53223   0.00220   0.00198  -0.00160   0.00039   2.53263
   R10        2.81546   0.00689   0.00052   0.01839   0.01891   2.83437
   R11        2.63935   0.00004   0.00075  -0.00180  -0.00104   2.63831
   R12        2.53982   0.00774   0.00104   0.01068   0.01172   2.55154
   R13        2.29105  -0.00509   0.00188  -0.01076  -0.00887   2.28218
   R14        2.68430   0.00966   0.00009   0.02148   0.02156   2.70587
   R15        2.05949   0.00007   0.00001   0.00016   0.00017   2.05967
   R16        2.06739  -0.00077  -0.00024  -0.00139  -0.00163   2.06576
   R17        2.06742  -0.00078  -0.00023  -0.00144  -0.00168   2.06574
   R18        2.51912   0.00575   0.00224   0.00395   0.00618   2.52531
   R19        2.04833   0.00002  -0.00024   0.00075   0.00052   2.04885
    A1        2.09828  -0.00227   0.00068  -0.01035  -0.00966   2.08862
    A2        2.02610   0.00296   0.00169   0.00650   0.00820   2.03430
    A3        2.15880  -0.00070  -0.00238   0.00385   0.00146   2.16026
    A4        2.14451   0.00019  -0.00023   0.00168   0.00145   2.14596
    A5        2.08955  -0.00393   0.00126  -0.01919  -0.01794   2.07162
    A6        2.04912   0.00374  -0.00103   0.01751   0.01649   2.06561
    A7        1.93482   0.00069  -0.00051   0.00512   0.00462   1.93944
    A8        1.90621  -0.00127   0.00251  -0.01416  -0.01164   1.89457
    A9        1.93482   0.00069  -0.00051   0.00512   0.00462   1.93944
   A10        1.90560   0.00048  -0.00106   0.00703   0.00598   1.91158
   A11        1.87628  -0.00105   0.00056  -0.00979  -0.00923   1.86706
   A12        1.90559   0.00048  -0.00106   0.00705   0.00600   1.91159
   A13        2.04524   0.00604   0.00085   0.02059   0.02146   2.06670
   A14        2.02288   0.00206   0.00080   0.00502   0.00581   2.02869
   A15        2.12729  -0.00324  -0.00144  -0.00719  -0.00861   2.11867
   A16        2.13302   0.00119   0.00065   0.00217   0.00281   2.13582
   A17        1.93159   0.00297   0.00184   0.00580   0.00764   1.93923
   A18        2.18324  -0.00080  -0.00107   0.00015  -0.00092   2.18232
   A19        2.16836  -0.00217  -0.00077  -0.00596  -0.00673   2.16163
   A20        2.00833   0.00206   0.00429  -0.00487  -0.00058   2.00775
   A21        1.84269   0.00142   0.00366  -0.00108   0.00260   1.84529
   A22        1.93773  -0.00099   0.00001  -0.00686  -0.00687   1.93086
   A23        1.93773  -0.00099   0.00001  -0.00686  -0.00687   1.93086
   A24        1.92284   0.00041  -0.00164   0.00911   0.00749   1.93032
   A25        1.92276   0.00041  -0.00165   0.00919   0.00756   1.93032
   A26        1.89986  -0.00020  -0.00046  -0.00307  -0.00358   1.89628
   A27        2.12477  -0.00225   0.00004  -0.00885  -0.00881   2.11596
   A28        2.12607  -0.00075   0.00018  -0.00725  -0.00707   2.11900
   A29        2.03235   0.00300  -0.00022   0.01610   0.01588   2.04823
   A30        2.02073   0.00408   0.00167   0.01079   0.01243   2.03316
    D1        0.00001  -0.00000  -0.00001   0.00000  -0.00000   0.00001
    D2       -3.14157  -0.00000  -0.00000  -0.00005  -0.00005   3.14157
    D3        3.14156   0.00000   0.00000   0.00004   0.00004  -3.14158
    D4       -0.00002   0.00000   0.00001  -0.00001  -0.00001  -0.00002
    D5        3.14157   0.00000   0.00001   0.00002   0.00003  -3.14159
    D6        0.00002  -0.00000  -0.00000  -0.00001  -0.00001   0.00001
    D7        1.04129  -0.00021   0.00003  -0.00285  -0.00282   1.03847
    D8       -3.14150  -0.00000   0.00000  -0.00006  -0.00006  -3.14156
    D9       -1.04111   0.00021  -0.00002   0.00275   0.00272  -1.03839
   D10       -2.10032  -0.00021   0.00002  -0.00280  -0.00277  -2.10309
   D11        0.00008  -0.00000  -0.00000  -0.00001  -0.00001   0.00007
   D12        2.10047   0.00021  -0.00002   0.00279   0.00277   2.10324
   D13        0.00001  -0.00000  -0.00000   0.00001   0.00000   0.00001
   D14       -3.14158  -0.00000  -0.00000  -0.00004  -0.00004   3.14157
   D15       -3.14156  -0.00000   0.00000  -0.00004  -0.00004  -3.14159
   D16        0.00000   0.00000  -0.00000   0.00002   0.00002   0.00002
   D17        3.14155   0.00000   0.00000   0.00024   0.00025  -3.14139
   D18        0.00007  -0.00000  -0.00001  -0.00017  -0.00018  -0.00011
   D19       -0.00001   0.00000   0.00001   0.00018   0.00019   0.00018
   D20       -3.14149  -0.00000  -0.00000  -0.00023  -0.00023   3.14146
   D21        0.00000  -0.00000   0.00001  -0.00005  -0.00004  -0.00004
   D22        3.14158  -0.00000  -0.00000   0.00000   0.00000   3.14158
   D23        3.14156   0.00000   0.00000   0.00002   0.00002   3.14157
   D24       -0.00005   0.00000  -0.00001   0.00007   0.00006   0.00001
   D25       -3.14152  -0.00000  -0.00001  -0.00021  -0.00022   3.14145
   D26       -0.00004   0.00000   0.00000   0.00020   0.00020   0.00016
   D27        3.14153   0.00000  -0.00000   0.00004   0.00004   3.14157
   D28       -1.05803   0.00081   0.00028   0.00664   0.00686  -1.05117
   D29        1.05800  -0.00081  -0.00028  -0.00664  -0.00686   1.05113
   D30       -0.00001   0.00000  -0.00000   0.00004   0.00004   0.00003
   D31        3.14159   0.00000   0.00000  -0.00001  -0.00000   3.14159
         Item               Value     Threshold  Converged?
 Maximum Force            0.009663     0.000450     NO 
 RMS     Force            0.002502     0.000300     NO 
 Maximum Displacement     0.057466     0.001800     NO 
 RMS     Displacement     0.016899     0.001200     NO 
 Predicted change in Energy=-6.657561D-04
 GradGradGradGradGradGradGradGradGradGradGradGradGradGradGradGradGradGrad

                          Input orientation:                          
 ---------------------------------------------------------------------
 Center     Atomic      Atomic             Coordinates (Angstroms)
 Number     Number       Type             X           Y           Z
 ---------------------------------------------------------------------
      1         17           0        3.342518   -2.157787    1.182405
      2          6           0        1.984121   -1.242603    0.575490
      3          6           0        2.206985   -0.010231   -0.076362
      4          6           0        3.575253    0.568827   -0.280811
      5          7           0        1.156150    0.672175   -0.532000
      6          6           0       -0.067145    0.155855   -0.349998
      7          6           0       -1.213623    0.963745   -0.881553
      8          8           0       -2.392610    0.350437   -0.642970
      9          6           0       -3.547387    1.051854   -1.117093
     10          8           0       -1.109893    2.024432   -1.449588
     11          6           0       -0.251430   -1.066228    0.299415
     12          7           0        0.786846   -1.767447    0.764242
     13          1           0        4.206524   -0.107608   -0.866521
     14          1           0        3.474870    1.518792   -0.805180
     15          1           0        4.082212    0.730813    0.676201
     16          1           0       -4.401540    0.430566   -0.848081
     17          1           0       -3.622354    2.034480   -0.644006
     18          1           0       -3.497186    1.188425   -2.200510
     19          1           0       -1.240911   -1.484197    0.446821
 ---------------------------------------------------------------------
                    Distance matrix (angstroms):
                    1          2          3          4          5
     1  Cl   0.000000
     2  C    1.746754   0.000000
     3  C    2.736042   1.411849   0.000000
     4  C    3.103158   2.558560   1.499755   0.000000
     5  N    3.965864   2.361873   1.333244   2.434304   0.000000
     6  C    4.396248   2.649510   2.296547   3.666387   1.340209
     7  C    5.895957   4.149279   3.646576   4.842538   2.413094
     8  O    6.520343   4.814374   4.648375   5.982828   3.565042
     9  C    7.941050   6.223098   5.943395   7.187815   4.754971
    10  O    6.651489   4.934307   4.126413   5.043353   2.793835
    11  C    3.858449   2.259428   2.701877   4.201614   2.386331
    12  N    2.618909   1.320816   2.410646   3.784907   2.787182
    13  H    3.024539   2.882131   2.152206   1.095045   3.166188
    14  H    4.181536   3.428394   2.115803   1.089712   2.483516
    15  H    3.024466   2.882099   2.152203   1.095043   3.166232
    16  H    8.413850   6.752978   6.668017   7.998133   5.571911
    17  H    8.331886   6.607496   6.203568   7.354291   4.970163
    18  H    8.332035   6.607632   6.203737   7.354491   4.970310
    19  H    4.690696   3.236627   3.786064   5.285810   3.369559
                    6          7          8          9         10
     6  C    0.000000
     7  C    1.499883   0.000000
     8  O    2.351910   1.350215   0.000000
     9  C    3.674688   2.347275   1.431883   0.000000
    10  O    2.405826   1.207675   2.257932   2.645343   0.000000
    11  C    1.396132   2.537971   2.734900   4.166066   3.653512
    12  N    2.381160   3.764297   4.071193   5.502132   4.782992
    13  H    4.312824   5.525035   6.618787   7.844123   5.757590
    14  H    3.822389   4.721851   5.984872   7.044673   4.657358
    15  H    4.312867   5.525099   6.618777   7.844090   5.757637
    16  H    4.371559   3.232370   2.020963   1.089928   3.706368
    17  H    4.031772   2.646675   2.085251   1.093154   2.638470
    18  H    4.031846   2.646657   2.085245   1.093145   2.638553
    19  H    2.168506   2.785273   2.424858   3.767919   3.990490
                   11         12         13         14         15
    11  C    0.000000
    12  N    1.336334   0.000000
    13  H    4.706560   4.136260   0.000000
    14  H    4.667737   4.526359   1.784449   0.000000
    15  H    4.706567   4.136241   1.760226   1.784451   0.000000
    16  H    4.558569   5.860904   8.624890   7.951347   8.624826
    17  H    4.676277   5.989896   8.119691   7.117760   7.924824
    18  H    4.676326   5.989981   7.925047   7.117982   8.119862
    19  H    1.084205   2.071904   5.770131   5.729227   5.770140
                   16         17         18         19
    16  H    0.000000
    17  H    1.794803   0.000000
    18  H    1.794790   1.776002   0.000000
    19  H    3.915694   4.386600   4.386576   0.000000
 Stoichiometry    C7H7ClN2O2
 Framework group  C1[X(C7H7ClN2O2)]
 Deg. of freedom    51
 Full point group                 C1      NOp   1
 Largest Abelian subgroup         C1      NOp   1
 Largest concise Abelian subgroup C1      NOp   1
                         Standard orientation:                         
 ---------------------------------------------------------------------
 Center     Atomic      Atomic             Coordinates (Angstroms)
 Number     Number       Type             X           Y           Z
 ---------------------------------------------------------------------
      1         17           0       -3.530664   -0.763428   -0.000037
      2          6           0       -1.813483   -0.443367   -0.000001
      3          6           0       -1.351239    0.890668   -0.000023
      4          6           0       -2.273226    2.073549   -0.000067
      5          7           0       -0.036603    1.112636    0.000034
      6          6           0        0.788449    0.056487    0.000101
      7          6           0        2.256843    0.362216    0.000164
      8          8           0        2.989674   -0.771820   -0.000028
      9          6           0        4.408189   -0.576617   -0.000165
     10          8           0        2.734076    1.471598    0.000055
     11          6           0        0.296949   -1.250269    0.000084
     12          7           0       -1.016482   -1.496621    0.000048
     13          1           0       -2.924726    2.066080    0.880056
     14          1           0       -1.671535    2.982088   -0.000114
     15          1           0       -2.924747    2.065994   -0.880171
     16          1           0        4.843889   -1.575671   -0.000287
     17          1           0        4.720397   -0.020759   -0.888159
     18          1           0        4.720587   -0.020906    0.887843
     19          1           0        0.964123   -2.104891    0.000130
 ---------------------------------------------------------------------
 Rotational constants (GHZ):           2.2181916           0.4102041           0.3476859
 Standard basis: 6-31G(d,p) (6D, 7F)
 There are   219 symmetry adapted cartesian basis functions of A   symmetry.
 There are   219 symmetry adapted basis functions of A   symmetry.
   219 basis functions,   409 primitive gaussians,   219 cartesian basis functions
    48 alpha electrons       48 beta electrons
       nuclear repulsion energy       756.8461278322 Hartrees.
 NAtoms=   19 NActive=   19 NUniq=   19 SFac= 1.00D+00 NAtFMM=   60 NAOKFM=F Big=F
 Integral buffers will be    131072 words long.
 Raffenetti 2 integral format.
 Two-electron integral symmetry is turned on.
 Nuclear repulsion after empirical dispersion term =      756.8102002879 Hartrees.
 One-electron integrals computed using PRISM.
 NBasis=   219 RedAO= T EigKep=  1.14D-03  NBF=   219
 NBsUse=   219 1.00D-06 EigRej= -1.00D+00 NBFU=   219
 Initial guess from the checkpoint file:  "pyrz1_conf-2.chk"
 B after Tr=    -0.000000    0.000000   -0.000000
         Rot=    1.000000   -0.000001   -0.000000   -0.000415 Ang=  -0.05 deg.
 ExpMin= 1.43D-01 ExpMax= 2.52D+04 ExpMxC= 3.78D+03 IAcc=3 IRadAn=         5 AccDes= 0.00D+00
 Harris functional with IExCor=  402 and IRadAn=       5 diagonalized for initial guess.
 HarFok:  IExCor=  402 AccDes= 0.00D+00 IRadAn=         5 IDoV= 1 UseB2=F ITyADJ=14
 ICtDFT=  3500011 ScaDFX=  1.000000  1.000000  1.000000  1.000000
 FoFCou: FMM=F IPFlag=           0 FMFlag=      100000 FMFlg1=           0
         NFxFlg=           0 DoJE=T BraDBF=F KetDBF=T FulRan=T
         wScrn=  0.000000 ICntrl=       500 IOpCl=  0 I1Cent=   200000004 NGrid=           0
         NMat0=    1 NMatS0=      1 NMatT0=    0 NMatD0=    1 NMtDS0=    0 NMtDT0=    0
 Petite list used in FoFCou.
 Requested convergence on RMS density matrix=1.00D-08 within 128 cycles.
 Requested convergence on MAX density matrix=1.00D-06.
 Requested convergence on             energy=1.00D-06.
 No special actions if energy rises.
 Integral accuracy reduced to 1.0D-05 until final iterations.
 Initial convergence to 1.0D-05 achieved.  Increase integral accuracy.
 SCF Done:  E(RB3LYP) =  -991.154429051     A.U. after   12 cycles
            NFock= 12  Conv=0.41D-08     -V/T= 2.0063
 Calling FoFJK, ICntrl=      2127 FMM=F ISym2X=0 I1Cent= 0 IOpClX= 0 NMat=1 NMatS=1 NMatT=0.
 ***** Axes restored to original set *****
 -------------------------------------------------------------------
 Center     Atomic                   Forces (Hartrees/Bohr)
 Number     Number              X              Y              Z
 -------------------------------------------------------------------
      1       17           0.002557239   -0.001227661    0.000873187
      2        6          -0.005084330   -0.001860390    0.000602241
      3        6           0.000891812    0.001541878   -0.000768479
      4        6          -0.000386454    0.000386395   -0.000239833
      5        7           0.000596389   -0.000290229    0.000202842
      6        6          -0.000170193   -0.000392962    0.000191286
      7        6           0.000704966    0.000824653   -0.000346399
      8        8           0.000866932   -0.002944314    0.001655922
      9        6          -0.002981776    0.001481390   -0.001040833
     10        8           0.000877855    0.001451820   -0.000736031
     11        6          -0.002517931    0.000536026   -0.000498991
     12        7           0.003624743    0.000565615   -0.000013261
     13        1          -0.000256468    0.000108802    0.000187613
     14        1           0.000519852    0.000270441   -0.000105095
     15        1          -0.000222257   -0.000113780   -0.000222832
     16        1           0.000381159    0.000204298   -0.000079935
     17        1           0.000252375   -0.000402387   -0.000019122
     18        1           0.000220329   -0.000185497    0.000371759
     19        1           0.000125759    0.000045902   -0.000014040
 -------------------------------------------------------------------
 Cartesian Forces:  Max     0.005084330 RMS     0.001283672

 GradGradGradGradGradGradGradGradGradGradGradGradGradGradGradGradGradGrad
 Berny optimization.
 Using GEDIIS/GDIIS optimizer.
 FormGI is forming the generalized inverse of G from B-inverse, IUseBI=4.
 Internal  Forces:  Max     0.002935296 RMS     0.000755295
 Search for a local minimum.
 Step number   3 out of a maximum of   90
 All quantities printed in internal units (Hartrees-Bohrs-Radians)
 Mixed Optimization -- En-DIIS/RFO-DIIS
 Update second derivatives using D2CorX and points    1    2    3
 DE= -7.55D-04 DEPred=-6.66D-04 R= 1.13D+00
 TightC=F SS=  1.41D+00  RLast= 6.69D-02 DXNew= 8.4853D-01 2.0056D-01
 Trust test= 1.13D+00 RLast= 6.69D-02 DXMaxT set to 5.05D-01
 ITU=  1  1  0
 Use linear search instead of GDIIS.
     Eigenvalues ---    0.00487   0.00822   0.01298   0.01330   0.01408
     Eigenvalues ---    0.01627   0.02066   0.02087   0.02117   0.02141
     Eigenvalues ---    0.02222   0.02277   0.07087   0.07310   0.10233
     Eigenvalues ---    0.10674   0.14936   0.16000   0.16000   0.16000
     Eigenvalues ---    0.16000   0.16237   0.16383   0.20341   0.23726
     Eigenvalues ---    0.25000   0.25000   0.25000   0.25000   0.25000
     Eigenvalues ---    0.25749   0.28810   0.29592   0.31087   0.34558
     Eigenvalues ---    0.34652   0.34665   0.34669   0.34771   0.34803
     Eigenvalues ---    0.35349   0.35854   0.39721   0.41985   0.44967
     Eigenvalues ---    0.49049   0.49719   0.52215   0.53391   0.58800
     Eigenvalues ---    0.90608
 RFO step:  Lambda=-1.30527768D-04 EMin= 4.87141738D-03
 Quartic linear search produced a step of  0.17100.
 Iteration  1 RMS(Cart)=  0.00359515 RMS(Int)=  0.00000724
 Iteration  2 RMS(Cart)=  0.00001484 RMS(Int)=  0.00000377
 Iteration  3 RMS(Cart)=  0.00000000 RMS(Int)=  0.00000377
 Variable       Old X    -DE/DX   Delta X   Delta X   Delta X     New X
                                 (Linear)    (Quad)   (Total)
    R1        3.30089   0.00294   0.00388   0.00924   0.01312   3.31401
    R2        2.66801   0.00219   0.00134   0.00523   0.00657   2.67457
    R3        2.49598  -0.00205  -0.00188  -0.00515  -0.00703   2.48895
    R4        2.83413  -0.00001  -0.00079  -0.00054  -0.00133   2.83280
    R5        2.51947  -0.00052  -0.00040  -0.00218  -0.00259   2.51688
    R6        2.06934  -0.00032   0.00012  -0.00093  -0.00081   2.06853
    R7        2.05926   0.00024   0.00001   0.00073   0.00074   2.06000
    R8        2.06933  -0.00031   0.00012  -0.00093  -0.00081   2.06853
    R9        2.53263   0.00025   0.00007  -0.00039  -0.00032   2.53231
   R10        2.83437   0.00005   0.00323  -0.00138   0.00186   2.83622
   R11        2.63831   0.00014  -0.00018   0.00020   0.00002   2.63833
   R12        2.55154   0.00210   0.00200   0.00325   0.00526   2.55679
   R13        2.28218   0.00170  -0.00152   0.00197   0.00045   2.28262
   R14        2.70587   0.00251   0.00369   0.00542   0.00911   2.71497
   R15        2.05967  -0.00043   0.00003  -0.00149  -0.00146   2.05821
   R16        2.06576  -0.00039  -0.00028  -0.00108  -0.00136   2.06440
   R17        2.06574  -0.00038  -0.00029  -0.00106  -0.00135   2.06439
   R18        2.52531   0.00208   0.00106   0.00316   0.00422   2.52952
   R19        2.04885  -0.00013   0.00009  -0.00036  -0.00027   2.04858
    A1        2.08862  -0.00069  -0.00165  -0.00283  -0.00448   2.08415
    A2        2.03430   0.00076   0.00140   0.00226   0.00367   2.03797
    A3        2.16026  -0.00007   0.00025   0.00056   0.00081   2.16107
    A4        2.14596   0.00061   0.00025   0.00301   0.00326   2.14922
    A5        2.07162  -0.00025  -0.00307  -0.00088  -0.00394   2.06767
    A6        2.06561  -0.00035   0.00282  -0.00214   0.00068   2.06629
    A7        1.93944  -0.00029   0.00079  -0.00266  -0.00187   1.93756
    A8        1.89457   0.00090  -0.00199   0.00704   0.00505   1.89962
    A9        1.93944  -0.00029   0.00079  -0.00265  -0.00186   1.93757
   A10        1.91158  -0.00021   0.00102  -0.00056   0.00046   1.91205
   A11        1.86706   0.00008  -0.00158  -0.00076  -0.00234   1.86471
   A12        1.91159  -0.00021   0.00103  -0.00056   0.00047   1.91206
   A13        2.06670   0.00037   0.00367  -0.00024   0.00343   2.07013
   A14        2.02869  -0.00015   0.00099  -0.00165  -0.00066   2.02803
   A15        2.11867   0.00009  -0.00147   0.00202   0.00055   2.11922
   A16        2.13582   0.00006   0.00048  -0.00037   0.00011   2.13593
   A17        1.93923  -0.00149   0.00131  -0.00845  -0.00714   1.93209
   A18        2.18232  -0.00009  -0.00016   0.00015  -0.00001   2.18231
   A19        2.16163   0.00159  -0.00115   0.00829   0.00714   2.16878
   A20        2.00775   0.00007  -0.00010  -0.00176  -0.00186   2.00590
   A21        1.84529   0.00004   0.00044  -0.00155  -0.00111   1.84418
   A22        1.93086  -0.00034  -0.00117  -0.00217  -0.00336   1.92750
   A23        1.93086  -0.00034  -0.00117  -0.00216  -0.00334   1.92752
   A24        1.93032   0.00018   0.00128   0.00179   0.00307   1.93340
   A25        1.93032   0.00018   0.00129   0.00180   0.00309   1.93340
   A26        1.89628   0.00027  -0.00061   0.00218   0.00155   1.89784
   A27        2.11596  -0.00066  -0.00151  -0.00247  -0.00398   2.11198
   A28        2.11900   0.00034  -0.00121   0.00197   0.00076   2.11975
   A29        2.04823   0.00032   0.00272   0.00051   0.00322   2.05145
   A30        2.03316   0.00052   0.00213   0.00101   0.00313   2.03629
    D1        0.00001  -0.00000  -0.00000  -0.00004  -0.00004  -0.00003
    D2        3.14157   0.00000  -0.00001   0.00002   0.00001   3.14158
    D3       -3.14158  -0.00000   0.00001  -0.00003  -0.00002   3.14158
    D4       -0.00002   0.00000  -0.00000   0.00003   0.00002   0.00000
    D5       -3.14159   0.00000   0.00000  -0.00000   0.00000  -3.14158
    D6        0.00001  -0.00000  -0.00000  -0.00001  -0.00001  -0.00000
    D7        1.03847  -0.00014  -0.00048  -0.00221  -0.00269   1.03578
    D8       -3.14156   0.00000  -0.00001   0.00001  -0.00000  -3.14156
    D9       -1.03839   0.00014   0.00047   0.00222   0.00269  -1.03570
   D10       -2.10309  -0.00014  -0.00047  -0.00226  -0.00273  -2.10582
   D11        0.00007  -0.00000  -0.00000  -0.00005  -0.00005   0.00002
   D12        2.10324   0.00014   0.00047   0.00217   0.00264   2.10587
   D13        0.00001   0.00000   0.00000   0.00001   0.00001   0.00002
   D14        3.14157   0.00000  -0.00001   0.00007   0.00006  -3.14156
   D15       -3.14159  -0.00000  -0.00001  -0.00005  -0.00005   3.14154
   D16        0.00002  -0.00000   0.00000  -0.00007  -0.00006  -0.00004
[...]
   XZ=     1.2761   YZ=    -3.5028   ZZ=    27.6504
   Eigenvalues:    24.8096    25.7634    33.2007
     18  H    Isotropic =    27.9246   Anisotropy =     7.9142
   XX=    25.5119   YX=     0.0269   ZX=    -0.9594
   XY=    -1.6361   YY=    30.6116   ZY=     3.6108
   XZ=    -1.2761   YZ=     3.5028   ZZ=    27.6504
   Eigenvalues:    24.8096    25.7634    33.2007
     19  H    Isotropic =    22.0702   Anisotropy =     9.9686
   XX=    22.2848   YX=    -3.9108   ZX=    -0.0000
   XY=    -4.1036   YY=    26.2190   ZY=     0.0000
   XZ=     0.0000   YZ=    -0.0000   ZZ=    17.7068
   Eigenvalues:    17.7068    19.7879    28.7159
 End of Minotr F.D. properties file   721 does not exist.
 End of Minotr F.D. properties file   722 does not exist.
 End of Minotr F.D. properties file   788 does not exist.

 **********************************************************************

            Population analysis using the SCF Density.

 **********************************************************************

 Orbital symmetries:
       Occupied  (A') (A') (A') (A') (A') (A') (A') (A') (A') (A')
                 (A') (A') (A') (A') (A") (A') (A') (A') (A') (A')
                 (A') (A') (A') (A') (A') (A') (A') (A') (A') (A")
                 (A') (A') (A") (A') (A') (A") (A') (A") (A') (A')
                 (A") (A') (A") (A') (A") (A') (A') (A")
       Virtual   (A") (A") (A') (A") (A') (A') (A') (A') (A') (A')
                 (A") (A') (A") (A') (A") (A') (A') (A') (A") (A')
                 (A") (A") (A') (A') (A") (A') (A') (A') (A') (A")
                 (A') (A') (A") (A') (A') (A') (A') (A') (A') (A")
                 (A") (A') (A') (A') (A') (A') (A") (A") (A') (A")
                 (A') (A') (A') (A") (A") (A') (A') (A') (A') (A')
                 (A") (A') (A") (A') (A') (A") (A') (A') (A') (A")
                 (A') (A') (A") (A') (A') (A") (A') (A') (A") (A')
                 (A') (A') (A') (A") (A') (A') (A') (A") (A') (A")
                 (A') (A') (A") (A') (A") (A') (A') (A") (A') (A")
                 (A') (A') (A') (A") (A') (A') (A') (A") (A') (A')
                 (A') (A") (A') (A') (A") (A') (A') (A') (A") (A")
                 (A") (A') (A") (A') (A') (A") (A') (A") (A") (A')
                 (A") (A') (A") (A') (A") (A') (A') (A') (A") (A')
                 (A') (A") (A') (A") (A') (A") (A') (A") (A') (A')
                 (A") (A') (A') (A') (A') (A") (A') (A') (A') (A")
                 (A') (A") (A') (A") (A') (A') (A') (A") (A") (A')
                 (A") (A') (A') (A') (A') (A') (A") (A") (A") (A')
                 (A') (A') (A') (A') (A") (A') (A") (A') (A") (A')
                 (A') (A") (A') (A') (A") (A') (A") (A') (A") (A')
                 (A') (A') (A") (A') (A") (A') (A') (A") (A') (A')
                 (A') (A") (A') (A") (A') (A') (A") (A") (A') (A')
                 (A") (A') (A") (A") (A') (A") (A') (A") (A") (A')
                 (A') (A') (A') (A') (A") (A") (A") (A') (A') (A")
                 (A') (A') (A") (A') (A') (A") (A") (A') (A") (A')
                 (A") (A') (A') (A") (A") (A') (A') (A") (A') (A')
                 (A") (A') (A') (A') (A") (A') (A") (A") (A') (A')
                 (A') (A') (A') (A") (A') (A') (A") (A') (A") (A')
                 (A') (A') (A') (A") (A') (A') (A') (A') (A") (A')
                 (A") (A") (A') (A') (A') (A") (A') (A') (A") (A')
                 (A') (A') (A') (A') (A") (A') (A') (A') (A") (A')
                 (A") (A') (A') (A') (A") (A") (A") (A') (A") (A')
                 (A") (A') (A') (A") (A") (A') (A") (A') (A') (A')
                 (A") (A') (A') (A') (A") (A') (A') (A') (A') (A')
                 (A") (A') (A') (A") (A') (A") (A') (A') (A") (A')
                 (A") (A") (A') (A') (A') (A') (A') (A") (A') (A')
                 (A') (A') (A') (A') (A') (A') (A') (A') (A') (A')
                 (A') (A')
 The electronic state is 1-A'.
 Alpha  occ. eigenvalues -- -102.66325 -19.68749 -19.62985 -14.79318 -14.78895
 Alpha  occ. eigenvalues --  -10.68902 -10.66279 -10.62208 -10.61419 -10.61098
 Alpha  occ. eigenvalues --  -10.60258 -10.55084  -9.82581  -7.54771  -7.54276
 Alpha  occ. eigenvalues --   -7.54233  -1.24651  -1.15367  -1.12690  -1.04823
 Alpha  occ. eigenvalues --   -0.97655  -0.90662  -0.85112  -0.81870  -0.75962
 Alpha  occ. eigenvalues --   -0.74473  -0.67312  -0.63104  -0.62933  -0.58297
 Alpha  occ. eigenvalues --   -0.58231  -0.56433  -0.54785  -0.52669  -0.50425
 Alpha  occ. eigenvalues --   -0.49269  -0.48444  -0.47998  -0.47013  -0.44940
 Alpha  occ. eigenvalues --   -0.43497  -0.41776  -0.39756  -0.39401  -0.38943
 Alpha  occ. eigenvalues --   -0.37276  -0.34017  -0.32878
 Alpha virt. eigenvalues --   -0.05100  -0.02648   0.06478   0.06709   0.06843
 Alpha virt. eigenvalues --    0.07823   0.10069   0.11594   0.11787   0.13941
 Alpha virt. eigenvalues --    0.13965   0.14793   0.15214   0.16378   0.17911
 Alpha virt. eigenvalues --    0.18123   0.20185   0.20730   0.20985   0.23342
 Alpha virt. eigenvalues --    0.23420   0.25141   0.25291   0.26220   0.27734
 Alpha virt. eigenvalues --    0.28049   0.28420   0.29039   0.29975   0.30190
 Alpha virt. eigenvalues --    0.32009   0.33333   0.33783   0.34276   0.34754
 Alpha virt. eigenvalues --    0.35792   0.37760   0.39359   0.39493   0.39857
 Alpha virt. eigenvalues --    0.40196   0.41303   0.42028   0.42721   0.44801
 Alpha virt. eigenvalues --    0.45411   0.46087   0.47375   0.47535   0.48794
 Alpha virt. eigenvalues --    0.48963   0.49669   0.50234   0.50483   0.51392
 Alpha virt. eigenvalues --    0.51873   0.53164   0.54080   0.54761   0.55700
 Alpha virt. eigenvalues --    0.57975   0.59114   0.60201   0.60568   0.61244
 Alpha virt. eigenvalues --    0.61903   0.62345   0.63601   0.65251   0.65303
 Alpha virt. eigenvalues --    0.67931   0.69210   0.69718   0.71031   0.72577
 Alpha virt. eigenvalues --    0.72633   0.72970   0.73970   0.76390   0.76967
 Alpha virt. eigenvalues --    0.78206   0.80262   0.81389   0.81392   0.84635
 Alpha virt. eigenvalues --    0.86254   0.86922   0.89073   0.91516   0.92912
 Alpha virt. eigenvalues --    0.93599   0.94483   0.95346   0.98946   1.01455
 Alpha virt. eigenvalues --    1.01854   1.02811   1.05040   1.05150   1.08623
 Alpha virt. eigenvalues --    1.09547   1.10697   1.13044   1.13408   1.16744
 Alpha virt. eigenvalues --    1.21494   1.24935   1.26795   1.27276   1.29066
 Alpha virt. eigenvalues --    1.32093   1.32266   1.33869   1.35623   1.39022
 Alpha virt. eigenvalues --    1.41490   1.42308   1.46252   1.46566   1.48579
 Alpha virt. eigenvalues --    1.49582   1.49930   1.50901   1.52189   1.53817
 Alpha virt. eigenvalues --    1.54987   1.56110   1.56136   1.56594   1.57504
 Alpha virt. eigenvalues --    1.58587   1.59542   1.60129   1.60405   1.62051
 Alpha virt. eigenvalues --    1.65708   1.67305   1.68524   1.70495   1.71895
 Alpha virt. eigenvalues --    1.73788   1.74222   1.76983   1.79451   1.80706
 Alpha virt. eigenvalues --    1.81777   1.82317   1.83259   1.83785   1.86029
 Alpha virt. eigenvalues --    1.86516   1.86955   1.88215   1.89766   1.92482
 Alpha virt. eigenvalues --    1.93977   1.95028   1.97161   2.00739   2.01786
 Alpha virt. eigenvalues --    2.03877   2.03966   2.04811   2.06262   2.06887
 Alpha virt. eigenvalues --    2.08798   2.10052   2.11134   2.11961   2.13591
 Alpha virt. eigenvalues --    2.14618   2.14624   2.15358   2.16191   2.18966
 Alpha virt. eigenvalues --    2.21696   2.22620   2.24573   2.25577   2.25989
 Alpha virt. eigenvalues --    2.27141   2.27635   2.31054   2.31544   2.31656
 Alpha virt. eigenvalues --    2.32131   2.33528   2.34699   2.38143   2.38203
 Alpha virt. eigenvalues --    2.39898   2.40680   2.43468   2.44700   2.49150
 Alpha virt. eigenvalues --    2.51427   2.52420   2.52786   2.55264   2.55665
 Alpha virt. eigenvalues --    2.59087   2.61321   2.61987   2.63840   2.64215
 Alpha virt. eigenvalues --    2.65874   2.67864   2.70954   2.72806   2.74138
 Alpha virt. eigenvalues --    2.77446   2.79473   2.79987   2.81483   2.84323
 Alpha virt. eigenvalues --    2.86113   2.87061   2.89844   2.89920   2.93964
 Alpha virt. eigenvalues --    2.95048   2.97710   2.97721   2.99882   3.01784
 Alpha virt. eigenvalues --    3.02039   3.03020   3.03690   3.06783   3.07747
 Alpha virt. eigenvalues --    3.08289   3.10043   3.11216   3.13914   3.14191
 Alpha virt. eigenvalues --    3.16181   3.16502   3.17518   3.18112   3.19991
 Alpha virt. eigenvalues --    3.20436   3.22132   3.22219   3.23482   3.26934
 Alpha virt. eigenvalues --    3.27012   3.29322   3.29529   3.30977   3.31279
 Alpha virt. eigenvalues --    3.34131   3.34625   3.34925   3.35005   3.36751
 Alpha virt. eigenvalues --    3.37126   3.37717   3.41263   3.41425   3.43284
 Alpha virt. eigenvalues --    3.44672   3.46164   3.50878   3.51767   3.51934
 Alpha virt. eigenvalues --    3.54260   3.54314   3.58131   3.58339   3.63276
 Alpha virt. eigenvalues --    3.67880   3.69346   3.71515   3.72193   3.74106
 Alpha virt. eigenvalues --    3.75526   3.76905   3.81660   3.83849   3.84798
 Alpha virt. eigenvalues --    3.91680   3.95643   3.98233   4.01440   4.02832
 Alpha virt. eigenvalues --    4.03377   4.10391   4.12537   4.14014   4.14176
 Alpha virt. eigenvalues --    4.14644   4.17745   4.20455   4.22447   4.24078
 Alpha virt. eigenvalues --    4.28439   4.30904   4.33562   4.34677   4.38571
 Alpha virt. eigenvalues --    4.45333   4.47616   4.51631   4.54060   4.62287
 Alpha virt. eigenvalues --    4.62937   4.65730   4.71120   4.72428   4.75387
 Alpha virt. eigenvalues --    4.75557   4.81708   4.90000   4.91023   4.91525
 Alpha virt. eigenvalues --    4.99530   5.02715   5.05872   5.10499   5.17156
 Alpha virt. eigenvalues --    5.17769   5.18589   5.24655   5.26111   5.28810
 Alpha virt. eigenvalues --    5.32863   5.36277   5.37108   5.40243   5.45490
 Alpha virt. eigenvalues --    5.48331   5.49344   5.60081   5.62249   5.64885
 Alpha virt. eigenvalues --    5.64960   5.68302   5.79176   5.81279   5.87385
 Alpha virt. eigenvalues --    5.93864   6.05042   6.10369   6.16229   6.30915
 Alpha virt. eigenvalues --    6.34598   6.38576   6.54021   6.62719   6.68744
 Alpha virt. eigenvalues --    6.73934   6.85455   6.88143   7.01600   7.10307
 Alpha virt. eigenvalues --    7.27674   7.39251  10.80126  10.87304  11.39648
 Alpha virt. eigenvalues --   22.41767  22.50904  22.65050  22.83791  23.03949
 Alpha virt. eigenvalues --   23.25853  23.45673  25.87963  32.48557  32.78061
 Alpha virt. eigenvalues --   44.05933  44.26086
          Condensed to atoms (all electrons):
               1          2          3          4          5          6
     1  Cl  16.820639   0.377410  -0.089953   0.017798   0.005815   0.000897
     2  C    0.377410   4.829548   0.423471  -0.095809  -0.046064  -0.038432
     3  C   -0.089953   0.423471   5.105321   0.228763   0.515167  -0.093025
     4  C    0.017798  -0.095809   0.228763   5.166363  -0.073760   0.002106
     5  N    0.005815  -0.046064   0.515167  -0.073760   6.411860   0.475102
     6  C    0.000897  -0.038432  -0.093025   0.002106   0.475102   5.235019
     7  C    0.000015   0.002468  -0.007459  -0.001867  -0.052382   0.246018
     8  O   -0.000001   0.000464  -0.001031  -0.000029   0.002516  -0.174419
     9  C   -0.000000  -0.000021   0.000050   0.000000  -0.000328   0.009960
    10  O   -0.000000   0.000285  -0.001219  -0.000459  -0.006302  -0.099418
    11  C    0.001602  -0.069603  -0.034810  -0.001262  -0.056231   0.483676
    12  N   -0.086695   0.503197  -0.048224   0.007627  -0.005402  -0.066343
    13  H    0.000154  -0.001409  -0.036532   0.404650   0.001116  -0.000239
    14  H    0.000789   0.005306  -0.065918   0.430452   0.010125  -0.000512
    15  H    0.000154  -0.001409  -0.036532   0.404650   0.001116  -0.000239
    16  H    0.000000  -0.000004   0.000009   0.000000   0.000023   0.003771
    17  H    0.000000   0.000001  -0.000010  -0.000000  -0.000036  -0.001984
    18  H    0.000000   0.000001  -0.000010  -0.000000  -0.000036  -0.001984
    19  H   -0.000156   0.003027   0.001270   0.000299   0.003817  -0.038755
               7          8          9         10         11         12
     1  Cl   0.000015  -0.000001  -0.000000  -0.000000   0.001602  -0.086695
     2  C    0.002468   0.000464  -0.000021   0.000285  -0.069603   0.503197
     3  C   -0.007459  -0.001031   0.000050  -0.001219  -0.034810  -0.048224
     4  C   -0.001867  -0.000029   0.000000  -0.000459  -0.001262   0.007627
     5  N   -0.052382   0.002516  -0.000328  -0.006302  -0.056231  -0.005402
     6  C    0.246018  -0.174419   0.009960  -0.099418   0.483676  -0.066343
     7  C    4.493970   0.394206  -0.053655   0.702065  -0.044588   0.005397
     8  O    0.394206   7.998975   0.209069  -0.082421   0.020764  -0.000176
     9  C   -0.053655   0.209069   4.849126   0.004072  -0.000635  -0.000000
    10  O    0.702065  -0.082421   0.004072   7.773199   0.004136  -0.000187
    11  C   -0.044588   0.020764  -0.000635   0.004136   4.864687   0.474237
    12  N    0.005397  -0.000176  -0.000000  -0.000187   0.474237   6.419141
    13  H    0.000011  -0.000000   0.000000   0.000001   0.000162  -0.000074
    14  H   -0.000379   0.000005  -0.000000   0.000136   0.000813  -0.000409
    15  H    0.000011  -0.000000   0.000000   0.000001   0.000162  -0.000074
    16  H    0.004028  -0.030789   0.395493   0.001646  -0.000996  -0.000003
    17  H   -0.008167  -0.033344   0.420775   0.003410   0.000348   0.000003
    18  H   -0.008167  -0.033344   0.420775   0.003410   0.000348   0.000003
    19  H   -0.007018   0.008202  -0.000075   0.000171   0.410296  -0.033590
              13         14         15         16         17         18
     1  Cl   0.000154   0.000789   0.000154   0.000000   0.000000   0.000000
     2  C   -0.001409   0.005306  -0.001409  -0.000004   0.000001   0.000001
     3  C   -0.036532  -0.065918  -0.036532   0.000009  -0.000010  -0.000010
     4  C    0.404650   0.430452   0.404650   0.000000  -0.000000  -0.000000
     5  N    0.001116   0.010125   0.001116   0.000023  -0.000036  -0.000036
     6  C   -0.000239  -0.000512  -0.000239   0.003771  -0.001984  -0.001984
     7  C    0.000011  -0.000379   0.000011   0.004028  -0.008167  -0.008167
     8  O   -0.000000   0.000005  -0.000000  -0.030789  -0.033344  -0.033344
     9  C    0.000000  -0.000000   0.000000   0.395493   0.420775   0.420775
    10  O    0.000001   0.000136   0.000001   0.001646   0.003410   0.003410
    11  C    0.000162   0.000813   0.000162  -0.000996   0.000348   0.000348
    12  N   -0.000074  -0.000409  -0.000074  -0.000003   0.000003   0.000003
    13  H    0.517380  -0.017733  -0.034847  -0.000000  -0.000000   0.000000
    14  H   -0.017733   0.485421  -0.017733  -0.000000  -0.000000  -0.000000
    15  H   -0.034847  -0.017733   0.517380  -0.000000   0.000000  -0.000000
    16  H   -0.000000  -0.000000  -0.000000   0.529357  -0.025060  -0.025060
    17  H   -0.000000  -0.000000   0.000000  -0.025060   0.526090  -0.039375
    18  H    0.000000  -0.000000  -0.000000  -0.025060  -0.039375   0.526090
    19  H   -0.000004  -0.000012  -0.000004  -0.000159   0.000095   0.000095
              19
     1  Cl  -0.000156
     2  C    0.003027
     3  C    0.001270
     4  C    0.000299
     5  N    0.003817
     6  C   -0.038755
     7  C   -0.007018
     8  O    0.008202
     9  C   -0.000075
    10  O    0.000171
    11  C    0.410296
    12  N   -0.033590
    13  H   -0.000004
    14  H   -0.000012
    15  H   -0.000004
    16  H   -0.000159
    17  H    0.000095
    18  H    0.000095
    19  H    0.480254
 Mulliken charges:
               1
     1  Cl  -0.048467
     2  C    0.107573
     3  C    0.140673
     4  C   -0.489521
     5  N   -0.186116
     6  C    0.058800
     7  C    0.335492
     8  O   -0.278645
     9  C   -0.254606
    10  O   -0.302527
    11  C   -0.053105
    12  N   -0.168428
    13  H    0.167366
    14  H    0.169650
    15  H    0.167366
    16  H    0.147745
    17  H    0.157253
    18  H    0.157253
    19  H    0.172244
 Sum of Mulliken charges =  -0.00000
 Mulliken charges with hydrogens summed into heavy atoms:
               1
     1  Cl  -0.048467
     2  C    0.107573
     3  C    0.140673
     4  C    0.014861
     5  N   -0.186116
     6  C    0.058800
     7  C    0.335492
     8  O   -0.278645
     9  C    0.207645
    10  O   -0.302527
    11  C    0.119139
    12  N   -0.168428
 Electronic spatial extent (au):  <R**2>=           2954.8554
 Charge=              0.0000 electrons
 Dipole moment (field-independent basis, Debye):
    X=              0.9949    Y=              0.7243    Z=             -0.0000  Tot=              1.2306
 Quadrupole moment (field-independent basis, Debye-Ang):
   XX=            -79.2323   YY=            -67.6866   ZZ=            -74.8458
   XY=             14.3738   XZ=              0.0000   YZ=              0.0000
 Traceless Quadrupole moment (field-independent basis, Debye-Ang):
   XX=             -5.3107   YY=              6.2349   ZZ=             -0.9242
   XY=             14.3738   XZ=              0.0000   YZ=              0.0000
 Octapole moment (field-independent basis, Debye-Ang**2):
  XXX=              1.3661  YYY=             60.8948  ZZZ=             -0.0000  XYY=             19.3392
  XXY=             -4.7053  XXZ=             -0.0000  XZZ=             -1.0532  YZZ=              4.4553
  YYZ=              0.0000  XYZ=             -0.0000
 Hexadecapole moment (field-independent basis, Debye-Ang**3):
 XXXX=           -665.7767 YYYY=          -2702.8500 ZZZZ=            -88.7191 XXXY=            -39.0500
 XXXZ=              0.0000 YYYX=             34.6024 YYYZ=              0.0000 ZZZX=              0.0000
 ZZZY=             -0.0000 XXYY=           -626.1850 XXZZ=           -129.4912 YYZZ=           -508.9076
 XXYZ=              0.0000 YYXZ=              0.0000 ZZXY=            -31.0340
 N-N= 7.562237893024D+02 E-N=-3.846006393450D+03  KE= 9.879902006096D+02
 Symmetry A'   KE= 9.221520278615D+02
 Symmetry A"   KE= 6.583817274809D+01
 Unable to Open any file for archive entry.
 1\1\GINC-COMPUTE-0-35\SP\RM062X\def2TZVP\C7H7Cl1N2O2\ZTAN64\14-Aug-202
 4\0\\# M062X/def2tzvp int=(grid=ultrafine) nmr=giao guess=read geom=ch
 eck\\pyrz1.xyz\\0,1\Cl,0,3.3498109674,-2.1594565686,1.1837887433\C,0,1
 .9809727622,-1.2445002407,0.5762367253\C,0,2.2074701027,-0.0092234271,
 -0.0768911629\C,0,3.5749191252,0.5701749997,-0.28163449\N,0,1.15673039
 51,0.6712559112,-0.5313789801\C,0,-0.0681758705,0.1555777486,-0.349784
 5817\C,0,-1.2126347126,0.9663951657,-0.8826612077\O,0,-2.3918163441,0.
 3488181758,-0.6420011542\C,0,-3.5512550828,1.052356119,-1.1177780353\O
 ,0,-1.1067280729,2.0274430418,-1.4508101472\C,0,-0.2550013822,-1.06561
 00147,0.298881816\N,0,0.7876167068,-1.7666183948,0.7638729201\H,0,4.20
 49922317,-0.1083505856,-0.8654638787\H,0,3.4808990322,1.5210211296,-0.
 8059945616\H,0,4.0808178862,0.7294065652,0.6759445389\H,0,-4.403338428
 3,0.4299532886,-0.8481444162\H,0,-3.6230484276,2.0335059467,-0.6430501
 756\H,0,-3.4975869272,1.1870648501,-2.2004363822\H,0,-1.2432427606,-1.
 4849101741,0.4471601554\\Version=ES64L-G16RevC.01\State=1-A'\HF=-991.1
 046165\RMSD=3.767e-09\Dipole=-0.4486433,-0.1726653,0.0577015\Quadrupol
 e=11.773523,-8.7050445,-3.0684784,1.0707487,0.4218663,4.443994\PG=CS [
 SG(C7H3Cl1N2O2),X(H4)]\\@
 The archive entry for this job was punched.


 A warm smile is the universal language of kindness.
                             -- William Arthur Ward
 Job cpu time:       0 days  0 hours 24 minutes 27.0 seconds.
 Elapsed time:       0 days  0 hours  1 minutes 38.4 seconds.
 File lengths (MBytes):  RWF=    104 Int=      0 D2E=      0 Chk=     17 Scr=      1
 Normal termination of Gaussian 16 at Wed Aug 14 20:38:00 2024.
 
 
-----Kestrel cluster job statistics-----
Time info:

real	6m57.253s
user	108m9.204s
sys	0m15.015s
 
Disk space usage:
17M	/scratch/362999.kestrel.chem.wisc.edu
