 Entering Gaussian System, Link 0=/share/apps/gaussian/g16/g16
 Initial command:
 /share/apps/gaussian/g16/l1.exe "/scratch/362967.kestrel.chem.wisc.edu/Gau-221879.inp" -scrdir="/scratch/362967.kestrel.chem.wisc.edu/"
 Entering Link 1 = /share/apps/gaussian/g16/l1.exe PID=    221880.
  
 Copyright (c) 1988-2019, Gaussian, Inc.  All Rights Reserved.
  
 This is part of the Gaussian(R) 16 program.  It is based on
 the Gaussian(R) 09 system (copyright 2009, Gaussian, Inc.),
 the Gaussian(R) 03 system (copyright 2003, Gaussian, Inc.),
 the Gaussian(R) 98 system (copyright 1998, Gaussian, Inc.),
 the Gaussian(R) 94 system (copyright 1995, Gaussian, Inc.),
 the Gaussian 92(TM) system (copyright 1992, Gaussian, Inc.),
 the Gaussian 90(TM) system (copyright 1990, Gaussian, Inc.),
 the Gaussian 88(TM) system (copyright 1988, Gaussian, Inc.),
 the Gaussian 86(TM) system (copyright 1986, Carnegie Mellon
 University), and the Gaussian 82(TM) system (copyright 1983,
 Carnegie Mellon University). Gaussian is a federally registered
 trademark of Gaussian, Inc.
  
 This software contains proprietary and confidential information,
 including trade secrets, belonging to Gaussian, Inc.
  
 This software is provided under written license and may be
 used, copied, transmitted, or stored only in accord with that
 written license.
  
 The following legend is applicable only to US Government
 contracts under FAR:
  
                    RESTRICTED RIGHTS LEGEND
  
 Use, reproduction and disclosure by the US Government is
 subject to restrictions as set forth in subparagraphs (a)
 and (c) of the Commercial Computer Software - Restricted
 Rights clause in FAR 52.227-19.
  
 Gaussian, Inc.
 340 Quinnipiac St., Bldg. 40, Wallingford CT 06492
  
  
 ---------------------------------------------------------------
 Warning -- This program may not be used in any manner that
 competes with the business of Gaussian, Inc. or will provide
 assistance to any competitor of Gaussian, Inc.  The licensee
 of this program is prohibited from giving any competitor of
 Gaussian, Inc. access to this program.  By using this program,
 the user acknowledges that Gaussian, Inc. is engaged in the
 business of creating and licensing software in the field of
 computational chemistry and represents and warrants to the
 licensee that it is not a competitor of Gaussian, Inc. and that
 it will not use this program in any manner prohibited above.
 ---------------------------------------------------------------
  

 Cite this work as:
 Gaussian 16, Revision C.01,
 M. J. Frisch, G. W. Trucks, H. B. Schlegel, G. E. Scuseria, 
 M. A. Robb, J. R. Cheeseman, G. Scalmani, V. Barone, 
 G. A. Petersson, H. Nakatsuji, X. Li, M. Caricato, A. V. Marenich, 
 J. Bloino, B. G. Janesko, R. Gomperts, B. Mennucci, H. P. Hratchian, 
 J. V. Ortiz, A. F. Izmaylov, J. L. Sonnenberg, D. Williams-Young, 
 F. Ding, F. Lipparini, F. Egidi, J. Goings, B. Peng, A. Petrone, 
 T. Henderson, D. Ranasinghe, V. G. Zakrzewski, J. Gao, N. Rega, 
 G. Zheng, W. Liang, M. Hada, M. Ehara, K. Toyota, R. Fukuda, 
 J. Hasegawa, M. Ishida, T. Nakajima, Y. Honda, O. Kitao, H. Nakai, 
 T. Vreven, K. Throssell, J. A. Montgomery, Jr., J. E. Peralta, 
 F. Ogliaro, M. J. Bearpark, J. J. Heyd, E. N. Brothers, K. N. Kudin, 
 V. N. Staroverov, T. A. Keith, R. Kobayashi, J. Normand, 
 K. Raghavachari, A. P. Rendell, J. C. Burant, S. S. Iyengar, 
 J. Tomasi, M. Cossi, J. M. Millam, M. Klene, C. Adamo, R. Cammi, 
 J. W. Ochterski, R. L. Martin, K. Morokuma, O. Farkas, 
 J. B. Foresman, and D. J. Fox, Gaussian, Inc., Wallingford CT, 2019.
 
 ******************************************
 Gaussian 16:  ES64L-G16RevC.01  3-Jul-2019
                14-Aug-2024 
 ******************************************
 %nprocs=16
 Will use up to   16 processors via shared memory.
 %mem=16GB
 %chk=pyrd4_conf-4.chk
 ----------------------------------------------------------------------
 # B3LYP/6-31G(d,p) symmetry=loose empiricaldispersion=GD3BJ int=(grid=
 ultrafine) opt freq=noraman
 ----------------------------------------------------------------------
 1/18=20,19=15,26=4,38=1/1,3;
 2/9=110,12=2,17=4,18=3,40=1/2;
 3/5=1,6=6,7=101,11=2,25=1,30=1,71=1,74=-5,75=-5,124=41/1,2,3;
 4//1;
 5/5=2,38=5/2;
 6/7=2,8=2,9=2,10=2,28=1/1;
 7//1,2,3,16;
 1/18=20,19=15,26=4/3(2);
 2/9=110/2;
 99//99;
 2/9=110/2;
 3/5=1,6=6,7=101,11=2,25=1,30=1,71=1,74=-5,75=-5,124=41/1,2,3;
 4/5=5,16=3,69=1/1;
 5/5=2,38=5/2;
 7//1,2,3,16;
 1/18=20,19=15,26=4/3(-5);
 2/9=110/2;
 6/7=2,8=2,9=2,10=2,19=2,28=1/1;
 99/9=1/99;
 ---------
 pyrd4.xyz
 ---------
 Symbolic Z-matrix:
 Charge =  0 Multiplicity = 1
 O                     2.6589    1.1344    1.675 
 C                     1.86      1.0604    2.608 
 N                     2.1758    1.2238    3.9062 
 C                     3.4118    1.4443    4.5203 
 N                     3.3134    1.6147    5.8623 
 C                     4.4486    1.8339    6.5712 
 C                     5.71      1.8883    5.9785 
 C                     5.8137    1.7095    4.5946 
 C                     7.1616    1.7554    3.8832 
 C                     8.2712    2.6985    4.2983 
 C                     8.4296    1.2059    4.5021 
 C                     4.6478    1.4835    3.8557 
 C                     0.3921    0.8134    2.3331 
 C                    -0.4354    0.1653    3.2661 
 C                    -1.7822   -0.0487    2.9833 
 C                    -2.3252    0.3721    1.7684 
 B                    -3.8568    0.1266    1.4512 
 O                    -4.4762    0.5036    0.2811 
 C                    -5.7484   -0.1171    0.2596 
 C                    -6.7026    0.8359   -0.4882 
 C                    -5.5581   -1.4303   -0.5401 
 C                    -6.0399   -0.2919    1.795 
 C                    -6.588     0.9629    2.5196 
 C                    -6.8692   -1.5366    2.1705 
 O                    -4.7367   -0.4909    2.3117 
 C                    -1.5054    1.005     0.833 
 C                    -0.1583    1.2207    1.1102 
 H                     1.4021    1.2106    4.5438 
 H                     4.3304    1.9673    7.637 
 H                     6.5874    2.0653    6.5814 
 H                     7.0707    1.5991    2.8059 
 H                     8.1115    3.349     5.1592 
 H                     8.8438    3.196     3.5141 
 H                     9.1145    0.6475    3.8622 
 H                     8.3834    0.7888    5.509 
 H                     4.7219    1.3418    2.7896 
 H                    -0.0493   -0.1966    4.2086 
 H                    -2.411    -0.5502    3.7058 
 H                    -6.7037    1.8371   -0.057 
 H                    -7.726     0.4622   -0.4659 
 H                    -6.4118    0.9481   -1.5333 
 H                    -6.4999   -1.9671   -0.6499 
 H                    -4.8486   -2.1017   -0.0546 
 H                    -5.1752   -1.2342   -1.5424 
 H                    -7.6128    1.1779    2.2181 
 H                    -5.9876    1.8484    2.307 
 H                    -6.5872    0.8302    3.6022 
 H                    -7.8633   -1.493     1.7263 
 H                    -6.9906   -1.621     3.2509 
 H                    -6.3958   -2.4604    1.8377 
 H                    -1.916     1.3274   -0.1137 
 H                     0.4598    1.7083    0.3671 
 

 GradGradGradGradGradGradGradGradGradGradGradGradGradGradGradGradGradGrad
 Berny optimization.
 Initialization pass.
                           ----------------------------
                           !    Initial Parameters    !
                           ! (Angstroms and Degrees)  !
 --------------------------                            --------------------------
 ! Name  Definition              Value          Derivative Info.                !
 --------------------------------------------------------------------------------
 ! R1    R(1,2)                  1.2305         estimate D2E/DX2                !
 ! R2    R(2,3)                  1.346          estimate D2E/DX2                !
 ! R3    R(2,13)                 1.5137         estimate D2E/DX2                !
 ! R4    R(3,4)                  1.3977         estimate D2E/DX2                !
 ! R5    R(3,28)                 1.0027         estimate D2E/DX2                !
 ! R6    R(4,5)                  1.3563         estimate D2E/DX2                !
 ! R7    R(4,12)                 1.4039         estimate D2E/DX2                !
 ! R8    R(5,6)                  1.3562         estimate D2E/DX2                !
 ! R9    R(6,7)                  1.3948         estimate D2E/DX2                !
 ! R10   R(6,29)                 1.0806         estimate D2E/DX2                !
 ! R11   R(7,8)                  1.3993         estimate D2E/DX2                !
 ! R12   R(7,30)                 1.0792         estimate D2E/DX2                !
 ! R13   R(8,9)                  1.5248         estimate D2E/DX2                !
 ! R14   R(8,12)                 1.3987         estimate D2E/DX2                !
 ! R15   R(9,10)                 1.5143         estimate D2E/DX2                !
 ! R16   R(9,11)                 1.5142         estimate D2E/DX2                !
 ! R17   R(9,31)                 1.0924         estimate D2E/DX2                !
 ! R18   R(10,11)                1.5148         estimate D2E/DX2                !
 ! R19   R(10,32)                1.0908         estimate D2E/DX2                !
 ! R20   R(10,33)                1.091          estimate D2E/DX2                !
 ! R21   R(11,34)                1.091          estimate D2E/DX2                !
 ! R22   R(11,35)                1.0909         estimate D2E/DX2                !
 ! R23   R(12,36)                1.078          estimate D2E/DX2                !
 ! R24   R(13,14)                1.4054         estimate D2E/DX2                !
 ! R25   R(13,27)                1.4015         estimate D2E/DX2                !
 ! R26   R(14,15)                1.3927         estimate D2E/DX2                !
 ! R27   R(14,37)                1.0809         estimate D2E/DX2                !
 ! R28   R(15,16)                1.3957         estimate D2E/DX2                !
 ! R29   R(15,38)                1.0812         estimate D2E/DX2                !
 ! R30   R(16,17)                1.5833         estimate D2E/DX2                !
 ! R31   R(16,26)                1.3956         estimate D2E/DX2                !
 ! R32   R(17,18)                1.3766         estimate D2E/DX2                !
 ! R33   R(17,25)                1.3769         estimate D2E/DX2                !
 ! R34   R(18,19)                1.4157         estimate D2E/DX2                !
 ! R35   R(19,20)                1.542          estimate D2E/DX2                !
 ! R36   R(19,21)                1.5493         estimate D2E/DX2                !
 ! R37   R(19,22)                1.5726         estimate D2E/DX2                !
 ! R38   R(20,39)                1.0901         estimate D2E/DX2                !
 ! R39   R(20,40)                1.0897         estimate D2E/DX2                !
 ! R40   R(20,41)                1.0906         estimate D2E/DX2                !
 ! R41   R(21,42)                1.0896         estimate D2E/DX2                !
 ! R42   R(21,43)                1.0908         estimate D2E/DX2                !
 ! R43   R(21,44)                1.0907         estimate D2E/DX2                !
 ! R44   R(22,23)                1.5492         estimate D2E/DX2                !
 ! R45   R(22,24)                1.5421         estimate D2E/DX2                !
 ! R46   R(22,25)                1.4159         estimate D2E/DX2                !
 ! R47   R(23,45)                1.0897         estimate D2E/DX2                !
 ! R48   R(23,46)                1.0908         estimate D2E/DX2                !
 ! R49   R(23,47)                1.0907         estimate D2E/DX2                !
 ! R50   R(24,48)                1.0897         estimate D2E/DX2                !
 ! R51   R(24,49)                1.0905         estimate D2E/DX2                !
 ! R52   R(24,50)                1.0901         estimate D2E/DX2                !
 ! R53   R(26,27)                1.3921         estimate D2E/DX2                !
 ! R54   R(26,51)                1.0811         estimate D2E/DX2                !
 ! R55   R(27,52)                1.0826         estimate D2E/DX2                !
 ! A1    A(1,2,3)              124.8656         estimate D2E/DX2                !
 ! A2    A(1,2,13)             120.1127         estimate D2E/DX2                !
 ! A3    A(3,2,13)             114.9915         estimate D2E/DX2                !
 ! A4    A(2,3,4)              130.5722         estimate D2E/DX2                !
 ! A5    A(2,3,28)             115.5107         estimate D2E/DX2                !
 ! A6    A(4,3,28)             113.8956         estimate D2E/DX2                !
 ! A7    A(3,4,5)              112.979          estimate D2E/DX2                !
 ! A8    A(3,4,12)             125.0984         estimate D2E/DX2                !
 ! A9    A(5,4,12)             121.9212         estimate D2E/DX2                !
 ! A10   A(4,5,6)              118.4741         estimate D2E/DX2                !
 ! A11   A(5,6,7)              122.7645         estimate D2E/DX2                !
 ! A12   A(5,6,29)             116.356          estimate D2E/DX2                !
 ! A13   A(7,6,29)             120.8795         estimate D2E/DX2                !
 ! A14   A(6,7,8)              118.8373         estimate D2E/DX2                !
 ! A15   A(6,7,30)             120.2831         estimate D2E/DX2                !
 ! A16   A(8,7,30)             120.8796         estimate D2E/DX2                !
 ! A17   A(7,8,9)              121.5404         estimate D2E/DX2                !
 ! A18   A(7,8,12)             118.7736         estimate D2E/DX2                !
 ! A19   A(9,8,12)             119.686          estimate D2E/DX2                !
 ! A20   A(8,9,10)             122.589          estimate D2E/DX2                !
 ! A21   A(8,9,11)             122.5906         estimate D2E/DX2                !
 ! A22   A(8,9,31)             112.4731         estimate D2E/DX2                !
 ! A23   A(10,9,31)            114.8623         estimate D2E/DX2                !
 ! A24   A(11,9,31)            114.8883         estimate D2E/DX2                !
 ! A25   A(9,10,32)            118.7178         estimate D2E/DX2                !
 ! A26   A(9,10,33)            118.1343         estimate D2E/DX2                !
 ! A27   A(11,10,32)           119.786          estimate D2E/DX2                !
 ! A28   A(11,10,33)           119.4159         estimate D2E/DX2                !
 ! A29   A(32,10,33)           111.851          estimate D2E/DX2                !
 ! A30   A(9,11,34)            118.1441         estimate D2E/DX2                !
 ! A31   A(9,11,35)            118.7224         estimate D2E/DX2                !
 ! A32   A(10,11,34)           119.4099         estimate D2E/DX2                !
 ! A33   A(10,11,35)           119.7707         estimate D2E/DX2                !
 ! A34   A(34,11,35)           111.855          estimate D2E/DX2                !
 ! A35   A(4,12,8)             119.2288         estimate D2E/DX2                !
 ! A36   A(4,12,36)            121.6686         estimate D2E/DX2                !
 ! A37   A(8,12,36)            119.1025         estimate D2E/DX2                !
 ! A38   A(2,13,14)            121.712          estimate D2E/DX2                !
 ! A39   A(2,13,27)            119.4633         estimate D2E/DX2                !
 ! A40   A(14,13,27)           118.8175         estimate D2E/DX2                !
 ! A41   A(13,14,15)           120.3599         estimate D2E/DX2                !
 ! A42   A(13,14,37)           121.5287         estimate D2E/DX2                !
 ! A43   A(15,14,37)           118.1016         estimate D2E/DX2                !
 ! A44   A(14,15,16)           120.4418         estimate D2E/DX2                !
 ! A45   A(14,15,38)           119.8682         estimate D2E/DX2                !
 ! A46   A(16,15,38)           119.6887         estimate D2E/DX2                !
 ! A47   A(15,16,17)           120.2659         estimate D2E/DX2                !
 ! A48   A(15,16,26)           119.4483         estimate D2E/DX2                !
 ! A49   A(17,16,26)           120.2851         estimate D2E/DX2                !
 ! A50   A(16,17,18)           124.2715         estimate D2E/DX2                !
 ! A51   A(16,17,25)           124.2294         estimate D2E/DX2                !
 ! A52   A(18,17,25)           111.4991         estimate D2E/DX2                !
 ! A53   A(17,18,19)           107.2886         estimate D2E/DX2                !
 ! A54   A(18,19,20)           107.0058         estimate D2E/DX2                !
 ! A55   A(18,19,21)           105.6101         estimate D2E/DX2                !
 ! A56   A(18,19,22)           101.5652         estimate D2E/DX2                !
 ! A57   A(20,19,21)           110.4587         estimate D2E/DX2                !
 ! A58   A(20,19,22)           115.3071         estimate D2E/DX2                !
 ! A59   A(21,19,22)           115.6282         estimate D2E/DX2                !
 ! A60   A(19,20,39)           112.1114         estimate D2E/DX2                !
 ! A61   A(19,20,40)           111.0553         estimate D2E/DX2                !
 ! A62   A(19,20,41)           111.3028         estimate D2E/DX2                !
 ! A63   A(39,20,40)           107.8135         estimate D2E/DX2                !
 ! A64   A(39,20,41)           106.5491         estimate D2E/DX2                !
 ! A65   A(40,20,41)           107.7766         estimate D2E/DX2                !
 ! A66   A(19,21,42)           111.3116         estimate D2E/DX2                !
 ! A67   A(19,21,43)           111.831          estimate D2E/DX2                !
 ! A68   A(19,21,44)           111.4113         estimate D2E/DX2                !
 ! A69   A(42,21,43)           107.6875         estimate D2E/DX2                !
 ! A70   A(42,21,44)           107.4222         estimate D2E/DX2                !
 ! A71   A(43,21,44)           106.9373         estimate D2E/DX2                !
 ! A72   A(19,22,23)           115.6087         estimate D2E/DX2                !
 ! A73   A(19,22,24)           115.2869         estimate D2E/DX2                !
 ! A74   A(19,22,25)           101.6133         estimate D2E/DX2                !
 ! A75   A(23,22,24)           110.4638         estimate D2E/DX2                !
 ! A76   A(23,22,25)           105.5917         estimate D2E/DX2                !
 ! A77   A(24,22,25)           107.0173         estimate D2E/DX2                !
 ! A78   A(22,23,45)           111.2932         estimate D2E/DX2                !
 ! A79   A(22,23,46)           111.8166         estimate D2E/DX2                !
 ! A80   A(22,23,47)           111.4353         estimate D2E/DX2                !
 ! A81   A(45,23,46)           107.6719         estimate D2E/DX2                !
 ! A82   A(45,23,47)           107.4176         estimate D2E/DX2                !
 ! A83   A(46,23,47)           106.9672         estimate D2E/DX2                !
 ! A84   A(22,24,48)           111.0415         estimate D2E/DX2                !
 ! A85   A(22,24,49)           111.3212         estimate D2E/DX2                !
 ! A86   A(22,24,50)           112.0951         estimate D2E/DX2                !
 ! A87   A(48,24,49)           107.7826         estimate D2E/DX2                !
 ! A88   A(48,24,50)           107.7965         estimate D2E/DX2                !
 ! A89   A(49,24,50)           106.5729         estimate D2E/DX2                !
 ! A90   A(17,25,22)           107.2814         estimate D2E/DX2                !
 ! A91   A(16,26,27)           120.3468         estimate D2E/DX2                !
 ! A92   A(16,26,51)           119.9389         estimate D2E/DX2                !
 ! A93   A(27,26,51)           119.714          estimate D2E/DX2                !
 ! A94   A(13,27,26)           120.5784         estimate D2E/DX2                !
 ! A95   A(13,27,52)           120.3708         estimate D2E/DX2                !
 ! A96   A(26,27,52)           119.0508         estimate D2E/DX2                !
 ! D1    D(1,2,3,4)             -3.1519         estimate D2E/DX2                !
 ! D2    D(1,2,3,28)           175.038          estimate D2E/DX2                !
 ! D3    D(13,2,3,4)           178.8556         estimate D2E/DX2                !
 ! D4    D(13,2,3,28)           -2.9545         estimate D2E/DX2                !
 ! D5    D(1,2,13,14)          151.9748         estimate D2E/DX2                !
 ! D6    D(1,2,13,27)          -27.0372         estimate D2E/DX2                !
 ! D7    D(3,2,13,14)          -29.9292         estimate D2E/DX2                !
 ! D8    D(3,2,13,27)          151.0587         estimate D2E/DX2                !
 ! D9    D(2,3,4,5)            177.3956         estimate D2E/DX2                !
 ! D10   D(2,3,4,12)            -3.0223         estimate D2E/DX2                !
 ! D11   D(28,3,4,5)            -0.8176         estimate D2E/DX2                !
 ! D12   D(28,3,4,12)          178.7644         estimate D2E/DX2                !
 ! D13   D(3,4,5,6)            179.8629         estimate D2E/DX2                !
 ! D14   D(12,4,5,6)             0.2658         estimate D2E/DX2                !
 ! D15   D(3,4,12,8)          -179.7862         estimate D2E/DX2                !
 ! D16   D(3,4,12,36)            0.0896         estimate D2E/DX2                !
 ! D17   D(5,4,12,8)            -0.2395         estimate D2E/DX2                !
 ! D18   D(5,4,12,36)          179.6362         estimate D2E/DX2                !
 ! D19   D(4,5,6,7)             -0.1385         estimate D2E/DX2                !
 ! D20   D(4,5,6,29)           179.8584         estimate D2E/DX2                !
 ! D21   D(5,6,7,8)             -0.0139         estimate D2E/DX2                !
 ! D22   D(5,6,7,30)           179.9973         estimate D2E/DX2                !
 ! D23   D(29,6,7,8)           179.9893         estimate D2E/DX2                !
 ! D24   D(29,6,7,30)            0.0006         estimate D2E/DX2                !
 ! D25   D(6,7,8,9)           -179.9341         estimate D2E/DX2                !
 ! D26   D(6,7,8,12)             0.0416         estimate D2E/DX2                !
 ! D27   D(30,7,8,9)             0.0545         estimate D2E/DX2                !
 ! D28   D(30,7,8,12)         -179.9697         estimate D2E/DX2                !
 ! D29   D(7,8,9,10)           -36.3781         estimate D2E/DX2                !
 ! D30   D(7,8,9,11)            36.454          estimate D2E/DX2                !
 ! D31   D(7,8,9,31)          -179.9353         estimate D2E/DX2                !
 ! D32   D(12,8,9,10)          143.6464         estimate D2E/DX2                !
 ! D33   D(12,8,9,11)         -143.5215         estimate D2E/DX2                !
 ! D34   D(12,8,9,31)            0.0892         estimate D2E/DX2                !
 ! D35   D(7,8,12,4)             0.0792         estimate D2E/DX2                !
 ! D36   D(7,8,12,36)         -179.7998         estimate D2E/DX2                !
 ! D37   D(9,8,12,4)          -179.9446         estimate D2E/DX2                !
 ! D38   D(9,8,12,36)            0.1764         estimate D2E/DX2                !
 ! D39   D(8,9,10,32)            1.9368         estimate D2E/DX2                !
 ! D40   D(8,9,10,33)         -138.798          estimate D2E/DX2                !
 ! D41   D(31,9,10,32)         144.7095         estimate D2E/DX2                !
 ! D42   D(31,9,10,33)           3.9747         estimate D2E/DX2                !
 ! D43   D(8,9,11,34)          138.8109         estimate D2E/DX2                !
 ! D44   D(8,9,11,35)           -1.9535         estimate D2E/DX2                !
 ! D45   D(31,9,11,34)          -4.0077         estimate D2E/DX2                !
 ! D46   D(31,9,11,35)        -144.7722         estimate D2E/DX2                !
 ! D47   D(32,10,11,34)       -144.5765         estimate D2E/DX2                !
 ! D48   D(32,10,11,35)         -0.0134         estimate D2E/DX2                !
 ! D49   D(33,10,11,34)          0.0159         estimate D2E/DX2                !
 ! D50   D(33,10,11,35)        144.579          estimate D2E/DX2                !
 ! D51   D(2,13,14,15)        -179.9293         estimate D2E/DX2                !
 ! D52   D(2,13,14,37)          -1.0903         estimate D2E/DX2                !
 ! D53   D(27,13,14,15)         -0.9111         estimate D2E/DX2                !
 ! D54   D(27,13,14,37)        177.928          estimate D2E/DX2                !
 ! D55   D(2,13,27,26)         179.9935         estimate D2E/DX2                !
 ! D56   D(2,13,27,52)          -0.0099         estimate D2E/DX2                !
 ! D57   D(14,13,27,26)          0.9527         estimate D2E/DX2                !
 ! D58   D(14,13,27,52)       -179.0507         estimate D2E/DX2                !
 ! D59   D(13,14,15,16)          0.2854         estimate D2E/DX2                !
 ! D60   D(13,14,15,38)        179.8541         estimate D2E/DX2                !
 ! D61   D(37,14,15,16)       -178.5928         estimate D2E/DX2                !
 ! D62   D(37,14,15,38)          0.9759         estimate D2E/DX2                !
 ! D63   D(14,15,16,17)        179.996          estimate D2E/DX2                !
 ! D64   D(14,15,16,26)          0.3133         estimate D2E/DX2                !
 ! D65   D(38,15,16,17)          0.4265         estimate D2E/DX2                !
 ! D66   D(38,15,16,26)       -179.2562         estimate D2E/DX2                !
 ! D67   D(15,16,17,18)       -179.8383         estimate D2E/DX2                !
 ! D68   D(15,16,17,25)          0.1723         estimate D2E/DX2                !
 ! D69   D(26,16,17,18)         -0.1582         estimate D2E/DX2                !
 ! D70   D(26,16,17,25)        179.8524         estimate D2E/DX2                !
 ! D71   D(15,16,26,27)         -0.2734         estimate D2E/DX2                !
 ! D72   D(15,16,26,51)        179.532          estimate D2E/DX2                !
 ! D73   D(17,16,26,27)       -179.9561         estimate D2E/DX2                !
 ! D74   D(17,16,26,51)         -0.1507         estimate D2E/DX2                !
 ! D75   D(16,17,18,19)        168.4244         estimate D2E/DX2                !
 ! D76   D(25,17,18,19)        -11.585          estimate D2E/DX2                !
 ! D77   D(16,17,25,22)        168.8486         estimate D2E/DX2                !
 ! D78   D(18,17,25,22)        -11.1419         estimate D2E/DX2                !
 ! D79   D(17,18,19,20)        147.8402         estimate D2E/DX2                !
 ! D80   D(17,18,19,21)        -94.4519         estimate D2E/DX2                !
 ! D81   D(17,18,19,22)         26.584          estimate D2E/DX2                !
 ! D82   D(18,19,20,39)        -54.2297         estimate D2E/DX2                !
 ! D83   D(18,19,20,40)       -174.9094         estimate D2E/DX2                !
 ! D84   D(18,19,20,41)         65.0074         estimate D2E/DX2                !
 ! D85   D(21,19,20,39)       -168.7135         estimate D2E/DX2                !
 ! D86   D(21,19,20,40)         70.6068         estimate D2E/DX2                !
 ! D87   D(21,19,20,41)        -49.4764         estimate D2E/DX2                !
 ! D88   D(22,19,20,39)         57.8887         estimate D2E/DX2                !
 ! D89   D(22,19,20,40)        -62.791          estimate D2E/DX2                !
 ! D90   D(22,19,20,41)        177.1258         estimate D2E/DX2                !
 ! D91   D(18,19,21,42)       -177.6218         estimate D2E/DX2                !
 ! D92   D(18,19,21,43)         61.874          estimate D2E/DX2                !
 ! D93   D(18,19,21,44)        -57.7417         estimate D2E/DX2                !
 ! D94   D(20,19,21,42)        -62.2592         estimate D2E/DX2                !
 ! D95   D(20,19,21,43)        177.2366         estimate D2E/DX2                !
 ! D96   D(20,19,21,44)         57.6209         estimate D2E/DX2                !
 ! D97   D(22,19,21,42)         70.9764         estimate D2E/DX2                !
 ! D98   D(22,19,21,43)        -49.5278         estimate D2E/DX2                !
 ! D99   D(22,19,21,44)       -169.1435         estimate D2E/DX2                !
 ! D100  D(18,19,22,23)         81.4763         estimate D2E/DX2                !
 ! D101  D(18,19,22,24)       -147.5873         estimate D2E/DX2                !
 ! D102  D(18,19,22,25)        -32.2765         estimate D2E/DX2                !
 ! D103  D(20,19,22,23)        -33.8            estimate D2E/DX2                !
 ! D104  D(20,19,22,24)         97.1364         estimate D2E/DX2                !
 ! D105  D(20,19,22,25)       -147.5528         estimate D2E/DX2                !
 ! D106  D(21,19,22,23)       -164.77           estimate D2E/DX2                !
 ! D107  D(21,19,22,24)        -33.8336         estimate D2E/DX2                !
 ! D108  D(21,19,22,25)         81.4772         estimate D2E/DX2                !
 ! D109  D(19,22,23,45)         70.916          estimate D2E/DX2                !
 ! D110  D(19,22,23,46)        -49.5457         estimate D2E/DX2                !
 ! D111  D(19,22,23,47)       -169.2061         estimate D2E/DX2                !
 ! D112  D(24,22,23,45)        -62.2763         estimate D2E/DX2                !
 ! D113  D(24,22,23,46)        177.262          estimate D2E/DX2                !
 ! D114  D(24,22,23,47)         57.6016         estimate D2E/DX2                !
 ! D115  D(25,22,23,45)       -177.6449         estimate D2E/DX2                !
 ! D116  D(25,22,23,46)         61.8935         estimate D2E/DX2                !
 ! D117  D(25,22,23,47)        -57.7669         estimate D2E/DX2                !
 ! D118  D(19,22,24,48)        -62.7259         estimate D2E/DX2                !
 ! D119  D(19,22,24,49)        177.1803         estimate D2E/DX2                !
 ! D120  D(19,22,24,50)         57.9112         estimate D2E/DX2                !
 ! D121  D(23,22,24,48)         70.629          estimate D2E/DX2                !
 ! D122  D(23,22,24,49)        -49.4648         estimate D2E/DX2                !
 ! D123  D(23,22,24,50)       -168.7338         estimate D2E/DX2                !
 ! D124  D(25,22,24,48)       -174.9001         estimate D2E/DX2                !
 ! D125  D(25,22,24,49)         65.0062         estimate D2E/DX2                !
 ! D126  D(25,22,24,50)        -54.2629         estimate D2E/DX2                !
 ! D127  D(19,22,25,17)         26.3319         estimate D2E/DX2                !
 ! D128  D(23,22,25,17)        -94.6963         estimate D2E/DX2                !
 ! D129  D(24,22,25,17)        147.5935         estimate D2E/DX2                !
 ! D130  D(16,26,27,13)         -0.3674         estimate D2E/DX2                !
 ! D131  D(16,26,27,52)        179.636          estimate D2E/DX2                !
 ! D132  D(51,26,27,13)        179.8269         estimate D2E/DX2                !
 ! D133  D(51,26,27,52)         -0.1697         estimate D2E/DX2                !
 --------------------------------------------------------------------------------
 Trust Radius=3.00D-01 FncErr=1.00D-07 GrdErr=1.00D-06 EigMax=2.50D+02 EigMin=1.00D-04
 Number of steps in this run=    294 maximum allowed number of steps=    312.
 GradGradGradGradGradGradGradGradGradGradGradGradGradGradGradGradGradGrad

 Stoichiometry    C21H25BN2O3
 Framework group  C1[X(C21H25BN2O3)]
 Deg. of freedom   150
 Full point group                 C1      NOp   1
 Largest Abelian subgroup         C1      NOp   1
 Largest concise Abelian subgroup C1      NOp   1
                         Standard orientation:                         
 ---------------------------------------------------------------------
 Center     Atomic      Atomic             Coordinates (Angstroms)
 Number     Number       Type             X           Y           Z
 ---------------------------------------------------------------------
      1          8           0        2.360479   -1.792048    0.089208
      2          6           0        1.867367   -0.666660    0.021774
      3          7           0        2.569683    0.475112   -0.100132
      4          6           0        3.949661    0.695759   -0.120420
      5          7           0        4.274889    1.997670   -0.317747
      6          6           0        5.587199    2.337931   -0.354247
      7          6           0        6.613180    1.406636   -0.194766
      8          6           0        6.279425    0.063615    0.012126
      9          6           0        7.351086   -1.005495    0.195367
     10          6           0        8.665250   -0.980288   -0.556495
     11          6           0        8.643759   -0.745387    0.939781
     12          6           0        4.928330   -0.296155    0.050579
     13          6           0        0.363438   -0.494956    0.026772
     14          6           0       -0.245327    0.671458    0.520898
     15          6           0       -1.632162    0.799029    0.513331
     16          6           0       -2.434393   -0.231404    0.020852
     17          5           0       -4.010565   -0.081995    0.014311
     18          8           0       -4.878594   -1.045192   -0.447962
     19          6           0       -6.181535   -0.665827   -0.044665
     20          6           0       -7.153337   -1.162180   -1.134227
     21          6           0       -6.438179   -1.410057    1.289683
     22          6           0       -6.035418    0.896105    0.064866
     23          6           0       -6.147440    1.674344   -1.269966
     24          6           0       -6.900774    1.563971    1.152585
     25          8           0       -4.685230    1.028342    0.470348
     26          6           0       -1.835944   -1.397039   -0.459524
     27          6           0       -0.450198   -1.530149   -0.453531
     28          1           0        2.023506    1.307288   -0.220515
     29          1           0        5.807388    3.383476   -0.515643
     30          1           0        7.644693    1.721782   -0.230989
     31          1           0        6.926636   -2.000831    0.345089
     32          1           0        8.866304   -0.148392   -1.232756
     33          1           0        9.053603   -1.922762   -0.945430
     34          1           0        9.017177   -1.521635    1.609384
     35          1           0        8.829700    0.254686    1.333779
     36          1           0        4.665146   -1.328880    0.212915
     37          1           0        0.338378    1.482949    0.932144
     38          1           0       -2.092192    1.698822    0.897575
     39          1           0       -6.873874   -0.806732   -2.126141
     40          1           0       -8.170509   -0.826322   -0.934084
     41          1           0       -7.166641   -2.251416   -1.186906
     42          1           0       -7.442083   -1.214585    1.665402
     43          1           0       -5.730437   -1.110574    2.063820
     44          1           0       -6.339099   -2.489541    1.168973
     45          1           0       -7.169554    1.667257   -1.647559
     46          1           0       -5.506053    1.248386   -2.042604
     47          1           0       -5.851118    2.717087   -1.149496
     48          1           0       -7.962040    1.421416    0.950488
     49          1           0       -6.712978    2.636852    1.205347
     50          1           0       -6.693760    1.162912    2.144838
     51          1           0       -2.450100   -2.203269   -0.835796
     52          1           0       -0.008428   -2.445783   -0.825622
 ---------------------------------------------------------------------
 Rotational constants (GHZ):           0.7288055           0.0501308           0.0482353
 Standard basis: 6-31G(d,p) (6D, 7F)
 There are   530 symmetry adapted cartesian basis functions of A   symmetry.
 There are   530 symmetry adapted basis functions of A   symmetry.
   530 basis functions,   931 primitive gaussians,   530 cartesian basis functions
    97 alpha electrons       97 beta electrons
       nuclear repulsion energy      2217.8661416188 Hartrees.
 NAtoms=   52 NActive=   52 NUniq=   52 SFac= 1.00D+00 NAtFMM=   60 NAOKFM=F Big=F
 Integral buffers will be    131072 words long.
 Raffenetti 2 integral format.
 Two-electron integral symmetry is turned on.
 Nuclear repulsion after empirical dispersion term =     2217.7598929060 Hartrees.
 One-electron integrals computed using PRISM.
 NBasis=   530 RedAO= T EigKep=  4.37D-04  NBF=   530
 NBsUse=   530 1.00D-06 EigRej= -1.00D+00 NBFU=   530
 ExpMin= 1.27D-01 ExpMax= 5.48D+03 ExpMxC= 8.25D+02 IAcc=3 IRadAn=         5 AccDes= 0.00D+00
 Harris functional with IExCor=  402 and IRadAn=       5 diagonalized for initial guess.
 HarFok:  IExCor=  402 AccDes= 0.00D+00 IRadAn=         5 IDoV= 1 UseB2=F ITyADJ=14
 ICtDFT=  3500011 ScaDFX=  1.000000  1.000000  1.000000  1.000000
 FoFCou: FMM=F IPFlag=           0 FMFlag=      100000 FMFlg1=           0
         NFxFlg=           0 DoJE=T BraDBF=F KetDBF=T FulRan=T
         wScrn=  0.000000 ICntrl=       500 IOpCl=  0 I1Cent=   200000004 NGrid=           0
         NMat0=    1 NMatS0=      1 NMatT0=    0 NMatD0=    1 NMtDS0=    0 NMtDT0=    0
 Petite list used in FoFCou.
 Requested convergence on RMS density matrix=1.00D-08 within 128 cycles.
 Requested convergence on MAX density matrix=1.00D-06.
 Requested convergence on             energy=1.00D-06.
 No special actions if energy rises.
 Integral accuracy reduced to 1.0D-05 until final iterations.
 EnCoef did     3 forward-backward iterations
 Initial convergence to 1.0D-05 achieved.  Increase integral accuracy.
 SCF Done:  E(RB3LYP) =  -1175.58006106     A.U. after   15 cycles
            NFock= 15  Conv=0.51D-08     -V/T= 2.0096

 **********************************************************************

            Population analysis using the SCF Density.

 **********************************************************************

 Orbital symmetries:
       Occupied  (A) (A) (A) (A) (A) (A) (A) (A) (A) (A) (A) (A)
                 (A) (A) (A) (A) (A) (A) (A) (A) (A) (A) (A) (A)
                 (A) (A) (A) (A) (A) (A) (A) (A) (A) (A) (A) (A)
                 (A) (A) (A) (A) (A) (A) (A) (A) (A) (A) (A) (A)
                 (A) (A) (A) (A) (A) (A) (A) (A) (A) (A) (A) (A)
                 (A) (A) (A) (A) (A) (A) (A) (A) (A) (A) (A) (A)
                 (A) (A) (A) (A) (A) (A) (A) (A) (A) (A) (A) (A)
                 (A) (A) (A) (A) (A) (A) (A) (A) (A) (A) (A) (A)
                 (A)
       Virtual   (A) (A) (A) (A) (A) (A) (A) (A) (A) (A) (A) (A)
                 (A) (A) (A) (A) (A) (A) (A) (A) (A) (A) (A) (A)
                 (A) (A) (A) (A) (A) (A) (A) (A) (A) (A) (A) (A)
                 (A) (A) (A) (A) (A) (A) (A) (A) (A) (A) (A) (A)
                 (A) (A) (A) (A) (A) (A) (A) (A) (A) (A) (A) (A)
                 (A) (A) (A) (A) (A) (A) (A) (A) (A) (A) (A) (A)
                 (A) (A) (A) (A) (A) (A) (A) (A) (A) (A) (A) (A)
                 (A) (A) (A) (A) (A) (A) (A) (A) (A) (A) (A) (A)
                 (A) (A) (A) (A) (A) (A) (A) (A) (A) (A) (A) (A)
                 (A) (A) (A) (A) (A) (A) (A) (A) (A) (A) (A) (A)
                 (A) (A) (A) (A) (A) (A) (A) (A) (A) (A) (A) (A)
                 (A) (A) (A) (A) (A) (A) (A) (A) (A) (A) (A) (A)
                 (A) (A) (A) (A) (A) (A) (A) (A) (A) (A) (A) (A)
                 (A) (A) (A) (A) (A) (A) (A) (A) (A) (A) (A) (A)
                 (A) (A) (A) (A) (A) (A) (A) (A) (A) (A) (A) (A)
                 (A) (A) (A) (A) (A) (A) (A) (A) (A) (A) (A) (A)
                 (A) (A) (A) (A) (A) (A) (A) (A) (A) (A) (A) (A)
                 (A) (A) (A) (A) (A) (A) (A) (A) (A) (A) (A) (A)
                 (A) (A) (A) (A) (A) (A) (A) (A) (A) (A) (A) (A)
                 (A) (A) (A) (A) (A) (A) (A) (A) (A) (A) (A) (A)
                 (A) (A) (A) (A) (A) (A) (A) (A) (A) (A) (A) (A)
                 (A) (A) (A) (A) (A) (A) (A) (A) (A) (A) (A) (A)
                 (A) (A) (A) (A) (A) (A) (A) (A) (A) (A) (A) (A)
                 (A) (A) (A) (A) (A) (A) (A) (A) (A) (A) (A) (A)
                 (A) (A) (A) (A) (A) (A) (A) (A) (A) (A) (A) (A)
                 (A) (A) (A) (A) (A) (A) (A) (A) (A) (A) (A) (A)
                 (A) (A) (A) (A) (A) (A) (A) (A) (A) (A) (A) (A)
                 (A) (A) (A) (A) (A) (A) (A) (A) (A) (A) (A) (A)
                 (A) (A) (A) (A) (A) (A) (A) (A) (A) (A) (A) (A)
                 (A) (A) (A) (A) (A) (A) (A) (A) (A) (A) (A) (A)
                 (A) (A) (A) (A) (A) (A) (A) (A) (A) (A) (A) (A)
                 (A) (A) (A) (A) (A) (A) (A) (A) (A) (A) (A) (A)
                 (A) (A) (A) (A) (A) (A) (A) (A) (A) (A) (A) (A)
                 (A) (A) (A) (A) (A) (A) (A) (A) (A) (A) (A) (A)
                 (A) (A) (A) (A) (A) (A) (A) (A) (A) (A) (A) (A)
                 (A) (A) (A) (A) (A) (A) (A) (A) (A) (A) (A) (A)
                 (A)
 The electronic state is 1-A.
 Alpha  occ. eigenvalues --  -19.15131 -19.15113 -19.11460 -14.37555 -14.32704
 Alpha  occ. eigenvalues --  -10.29204 -10.26641 -10.25437 -10.25418 -10.22336
 Alpha  occ. eigenvalues --  -10.21389 -10.20596 -10.20589 -10.19860 -10.19747
 Alpha  occ. eigenvalues --  -10.19722 -10.19295 -10.19189 -10.19066 -10.18881
 Alpha  occ. eigenvalues --  -10.18807 -10.18156 -10.18146 -10.18137 -10.18114
 Alpha  occ. eigenvalues --  -10.17763  -6.77940  -1.07466  -1.03675  -1.00277
 Alpha  occ. eigenvalues --   -0.96549  -0.90872  -0.86471  -0.85658  -0.79993
 Alpha  occ. eigenvalues --   -0.79357  -0.77021  -0.75117  -0.74734  -0.74363
 Alpha  occ. eigenvalues --   -0.70816  -0.68583  -0.66707  -0.64843  -0.63034
 Alpha  occ. eigenvalues --   -0.61463  -0.60875  -0.60676  -0.58696  -0.57103
 Alpha  occ. eigenvalues --   -0.56098  -0.54726  -0.53924  -0.51711  -0.49396
 Alpha  occ. eigenvalues --   -0.49296  -0.48129  -0.47429  -0.46325  -0.45728
 Alpha  occ. eigenvalues --   -0.45503  -0.44795  -0.44454  -0.44155  -0.43895
 Alpha  occ. eigenvalues --   -0.43474  -0.42530  -0.42142  -0.40707  -0.40654
 Alpha  occ. eigenvalues --   -0.40195  -0.40017  -0.39145  -0.38849  -0.37953
 Alpha  occ. eigenvalues --   -0.37843  -0.37733  -0.37054  -0.36825  -0.36315
 Alpha  occ. eigenvalues --   -0.35927  -0.35607  -0.34630  -0.33418  -0.33231
 Alpha  occ. eigenvalues --   -0.32741  -0.32640  -0.31064  -0.30127  -0.30034
 Alpha  occ. eigenvalues --   -0.27126  -0.26259  -0.25823  -0.25561  -0.25465
 Alpha  occ. eigenvalues --   -0.24484  -0.22835
 Alpha virt. eigenvalues --   -0.04953  -0.01766  -0.00584  -0.00430   0.04769
 Alpha virt. eigenvalues --    0.07300   0.08846   0.09371   0.09673   0.10039
 Alpha virt. eigenvalues --    0.11303   0.12399   0.12511   0.13176   0.13295
 Alpha virt. eigenvalues --    0.13380   0.13446   0.14029   0.14850   0.15168
 Alpha virt. eigenvalues --    0.15364   0.15683   0.16011   0.16109   0.17474
 Alpha virt. eigenvalues --    0.17622   0.18082   0.18167   0.18670   0.19075
 Alpha virt. eigenvalues --    0.19431   0.19652   0.20249   0.20903   0.21721
 Alpha virt. eigenvalues --    0.21841   0.22134   0.22233   0.22870   0.24061
 Alpha virt. eigenvalues --    0.24254   0.24553   0.25868   0.26699   0.26729
 Alpha virt. eigenvalues --    0.28719   0.28841   0.29711   0.30676   0.31362
 Alpha virt. eigenvalues --    0.32626   0.33387   0.33417   0.34374   0.35263
 Alpha virt. eigenvalues --    0.38213   0.39086   0.39699   0.43433   0.43983
 Alpha virt. eigenvalues --    0.45465   0.45914   0.46318   0.48191   0.49629
 Alpha virt. eigenvalues --    0.50109   0.51110   0.51715   0.52222   0.52495
 Alpha virt. eigenvalues --    0.53592   0.53932   0.54198   0.55333   0.55913
 Alpha virt. eigenvalues --    0.56040   0.56698   0.56785   0.57480   0.57868
 Alpha virt. eigenvalues --    0.58073   0.58249   0.58632   0.59027   0.59334
 Alpha virt. eigenvalues --    0.59610   0.59991   0.60229   0.60975   0.61502
 Alpha virt. eigenvalues --    0.61965   0.62816   0.63584   0.63734   0.64026
 Alpha virt. eigenvalues --    0.64449   0.65184   0.65720   0.66656   0.66968
 Alpha virt. eigenvalues --    0.67190   0.68625   0.70320   0.70702   0.70830
 Alpha virt. eigenvalues --    0.71709   0.72553   0.72974   0.73560   0.74458
 Alpha virt. eigenvalues --    0.75828   0.75875   0.76688   0.78303   0.79152
 Alpha virt. eigenvalues --    0.80334   0.80479   0.80676   0.81405   0.81975
 Alpha virt. eigenvalues --    0.82155   0.82392   0.82928   0.83119   0.83601
 Alpha virt. eigenvalues --    0.84180   0.85233   0.85259   0.85583   0.86868
 Alpha virt. eigenvalues --    0.87496   0.87655   0.87816   0.88300   0.88561
 Alpha virt. eigenvalues --    0.88656   0.89200   0.89350   0.91496   0.91802
 Alpha virt. eigenvalues --    0.92458   0.92746   0.93329   0.93558   0.94092
 Alpha virt. eigenvalues --    0.94320   0.95079   0.95397   0.95996   0.97888
 Alpha virt. eigenvalues --    0.98576   0.99081   0.99409   1.01727   1.02141
 Alpha virt. eigenvalues --    1.02318   1.03473   1.03861   1.05278   1.07603
 Alpha virt. eigenvalues --    1.08999   1.09456   1.10456   1.11323   1.13033
 Alpha virt. eigenvalues --    1.14278   1.15956   1.17058   1.17661   1.19269
 Alpha virt. eigenvalues --    1.20303   1.20555   1.22273   1.22659   1.23771
 Alpha virt. eigenvalues --    1.24927   1.25306   1.28110   1.28719   1.29548
 Alpha virt. eigenvalues --    1.30139   1.31824   1.32195   1.34432   1.34714
 Alpha virt. eigenvalues --    1.35358   1.35732   1.38163   1.38346   1.39529
 Alpha virt. eigenvalues --    1.39987   1.40838   1.41036   1.41981   1.42734
 Alpha virt. eigenvalues --    1.43647   1.44771   1.45414   1.46217   1.46851
 Alpha virt. eigenvalues --    1.48017   1.48226   1.48967   1.51910   1.52876
 Alpha virt. eigenvalues --    1.56285   1.56611   1.58399   1.58934   1.60634
 Alpha virt. eigenvalues --    1.60987   1.62479   1.65552   1.66779   1.68996
 Alpha virt. eigenvalues --    1.69308   1.70165   1.71033   1.72587   1.73013
 Alpha virt. eigenvalues --    1.73845   1.74213   1.75324   1.76716   1.76966
 Alpha virt. eigenvalues --    1.78364   1.78843   1.79525   1.80316   1.81582
 Alpha virt. eigenvalues --    1.82643   1.84067   1.84620   1.85327   1.85612
 Alpha virt. eigenvalues --    1.86432   1.87394   1.87994   1.89304   1.90027
 Alpha virt. eigenvalues --    1.91051   1.91394   1.92552   1.92843   1.93661
 Alpha virt. eigenvalues --    1.94745   1.95542   1.95978   1.96093   1.96888
 Alpha virt. eigenvalues --    1.97762   2.00903   2.01525   2.03052   2.03369
 Alpha virt. eigenvalues --    2.03702   2.03873   2.04431   2.05582   2.05915
 Alpha virt. eigenvalues --    2.06179   2.06704   2.07854   2.07930   2.09064
 Alpha virt. eigenvalues --    2.09300   2.09486   2.10620   2.10849   2.11343
 Alpha virt. eigenvalues --    2.11543   2.11966   2.13785   2.14457   2.14682
 Alpha virt. eigenvalues --    2.15056   2.15148   2.15363   2.17622   2.18669
 Alpha virt. eigenvalues --    2.19577   2.20669   2.21527   2.23218   2.23837
 Alpha virt. eigenvalues --    2.24433   2.24991   2.25310   2.25428   2.25785
 Alpha virt. eigenvalues --    2.28322   2.28604   2.29561   2.30333   2.30780
 Alpha virt. eigenvalues --    2.31141   2.32388   2.32712   2.33697   2.35689
 Alpha virt. eigenvalues --    2.36220   2.36385   2.37496   2.38061   2.39123
 Alpha virt. eigenvalues --    2.39546   2.40911   2.41256   2.42417   2.43087
 Alpha virt. eigenvalues --    2.44311   2.44971   2.45637   2.46257   2.46804
 Alpha virt. eigenvalues --    2.48213   2.48434   2.49750   2.50772   2.52222
 Alpha virt. eigenvalues --    2.52764   2.55035   2.55304   2.56696   2.57465
 Alpha virt. eigenvalues --    2.58514   2.58857   2.59757   2.59951   2.61644
 Alpha virt. eigenvalues --    2.62796   2.63123   2.63877   2.65204   2.66450
 Alpha virt. eigenvalues --    2.67032   2.67675   2.68297   2.69098   2.69594
 Alpha virt. eigenvalues --    2.70893   2.72624   2.73273   2.74679   2.74844
 Alpha virt. eigenvalues --    2.75143   2.75863   2.76619   2.78102   2.78358
 Alpha virt. eigenvalues --    2.79181   2.79789   2.81141   2.83563   2.84251
 Alpha virt. eigenvalues --    2.84351   2.85661   2.86217   2.86909   2.87875
 Alpha virt. eigenvalues --    2.88264   2.90379   2.90714   2.93261   2.94441
 Alpha virt. eigenvalues --    2.96083   2.97060   2.97840   2.99850   3.01230
 Alpha virt. eigenvalues --    3.02064   3.03400   3.06548   3.08836   3.11688
 Alpha virt. eigenvalues --    3.14199   3.18286   3.19331   3.20987   3.21578
 Alpha virt. eigenvalues --    3.22420   3.23855   3.24280   3.25162   3.26372
 Alpha virt. eigenvalues --    3.26984   3.30968   3.33818   3.35516   3.37071
 Alpha virt. eigenvalues --    3.38914   3.42551   3.42636   3.44665   3.44756
 Alpha virt. eigenvalues --    3.46336   3.47341   3.48403   3.48485   3.50290
 Alpha virt. eigenvalues --    3.51294   3.52052   3.57926   3.61241   3.71821
 Alpha virt. eigenvalues --    3.77802   3.83609   4.07662   4.10385   4.15201
 Alpha virt. eigenvalues --    4.15545   4.16277   4.18542   4.22335   4.27442
 Alpha virt. eigenvalues --    4.29477   4.31603   4.31926   4.36858   4.39875
 Alpha virt. eigenvalues --    4.43336   4.44176   4.48074   4.51016   4.53663
 Alpha virt. eigenvalues --    4.55316   4.56005   4.62435   4.65565   4.67977
 Alpha virt. eigenvalues --    4.79668   4.84125   4.85799
          Condensed to atoms (all electrons):
 Mulliken charges:
               1
     1  O   -0.516576
     2  C    0.559021
     3  N   -0.592015
     4  C    0.467367
     5  N   -0.528928
     6  C    0.100055
     7  C   -0.162665
     8  C    0.195435
     9  C   -0.153288
    10  C   -0.216844
    11  C   -0.217068
    12  C   -0.140459
    13  C    0.030237
    14  C   -0.126188
    15  C   -0.137910
    16  C    0.026222
    17  B    0.482000
    18  O   -0.472282
    19  C    0.246493
    20  C   -0.325947
    21  C   -0.319387
    22  C    0.246864
    23  C   -0.319218
    24  C   -0.325884
    25  O   -0.473321
    26  C   -0.137067
    27  C   -0.091233
    28  H    0.274363
    29  H    0.100040
    30  H    0.082017
    31  H    0.105802
    32  H    0.117195
    33  H    0.118664
    34  H    0.118524
    35  H    0.117014
    36  H    0.128934
    37  H    0.091721
    38  H    0.101823
    39  H    0.115472
    40  H    0.101905
    41  H    0.114433
    42  H    0.102122
    43  H    0.114187
    44  H    0.118366
    45  H    0.102300
    46  H    0.113988
    47  H    0.117365
    48  H    0.102072
    49  H    0.113759
    50  H    0.115614
    51  H    0.103329
    52  H    0.111577
 Sum of Mulliken charges =  -0.00000
 Mulliken charges with hydrogens summed into heavy atoms:
               1
     1  O   -0.516576
     2  C    0.559021
     3  N   -0.317652
     4  C    0.467367
     5  N   -0.528928
     6  C    0.200096
     7  C   -0.080648
     8  C    0.195435
     9  C   -0.047486
    10  C    0.019015
    11  C    0.018469
    12  C   -0.011525
    13  C    0.030237
    14  C   -0.034467
    15  C   -0.036087
    16  C    0.026222
    17  B    0.482000
    18  O   -0.472282
    19  C    0.246493
    20  C    0.005863
    21  C    0.015288
    22  C    0.246864
    23  C    0.014436
    24  C    0.005560
    25  O   -0.473321
    26  C   -0.033738
    27  C    0.020344
 Electronic spatial extent (au):  <R**2>=          21355.1303
 Charge=             -0.0000 electrons
 Dipole moment (field-independent basis, Debye):
    X=             -1.6853    Y=              1.3378    Z=             -0.0014  Tot=              2.1517
 Quadrupole moment (field-independent basis, Debye-Ang):
   XX=           -109.4130   YY=           -157.3421   ZZ=           -158.4502
   XY=              0.4538   XZ=              0.6428   YZ=              0.4128
 Traceless Quadrupole moment (field-independent basis, Debye-Ang):
   XX=             32.3222   YY=            -15.6070   ZZ=            -16.7151
   XY=              0.4538   XZ=              0.6428   YZ=              0.4128
 Octapole moment (field-independent basis, Debye-Ang**2):
  XXX=             -1.1641  YYY=              0.7593  ZZZ=              0.8679  XYY=             -3.7002
  XXY=             -1.9155  XXZ=              5.3821  XZZ=            -17.6572  YZZ=             -3.0635
  YYZ=             -2.4565  XYZ=              1.8117
 Hexadecapole moment (field-independent basis, Debye-Ang**3):
 XXXX=         -23468.3097 YYYY=          -1582.1764 ZZZZ=           -608.9936 XXXY=           -107.7150
 XXXZ=             10.3012 YYYX=              9.7999 YYYZ=             10.9853 ZZZX=              7.2099
 ZZZY=              3.5359 XXYY=          -4506.1943 XXZZ=          -4551.5519 YYZZ=           -373.8326
 XXYZ=            -65.5850 YYXZ=             -2.3041 ZZXY=            -18.5412
 N-N= 2.217759892906D+03 E-N=-7.167629268143D+03  KE= 1.164432385339D+03
 Calling FoFJK, ICntrl=      2127 FMM=F ISym2X=0 I1Cent= 0 IOpClX= 0 NMat=1 NMatS=1 NMatT=0.
 ***** Axes restored to original set *****
 -------------------------------------------------------------------
 Center     Atomic                   Forces (Hartrees/Bohr)
 Number     Number              X              Y              Z
 -------------------------------------------------------------------
      1        8           0.001758630    0.000162372    0.004745403
      2        6          -0.006286490   -0.000095364   -0.036168335
      3        7           0.004647513   -0.000190709    0.016493584
      4        6           0.012819031    0.003690723    0.019293898
      5        7           0.006340821    0.000783692   -0.000652644
      6        6          -0.008516992   -0.004294620   -0.024273176
      7        6          -0.006471029   -0.000297038    0.002015629
      8        6           0.016032333    0.000840581   -0.005897629
      9        6          -0.018524273   -0.002215284   -0.001520775
     10        6           0.002848880   -0.000480688    0.002575517
     11        6           0.002682645    0.001722049    0.002317103
     12        6           0.002397760   -0.000107378   -0.002139313
     13        6           0.000422137   -0.001658747    0.007168329
     14        6          -0.003519526    0.002117085   -0.003216503
     15        6           0.006298550    0.000961046    0.000922800
     16        6          -0.027507893   -0.004577944   -0.005251204
     17        5           0.009651310    0.001557595    0.002321506
     18        8           0.027936872    0.009343783    0.004208952
     19        6          -0.017394273    0.005436131   -0.015718641
     20        6          -0.001228553   -0.004070322    0.004796578
     21        6          -0.008426081   -0.001040170    0.007744236
     22        6          -0.019669094   -0.011477267    0.008162799
     23        6          -0.004730670   -0.001064816   -0.010548908
     24        6          -0.000391009    0.003838571   -0.005245681
     25        8           0.028652979   -0.000283816    0.007258333
     26        6           0.008262689    0.000362826    0.003019248
     27        6           0.000656536    0.000522719   -0.002805484
     28        1          -0.001805904    0.001991947    0.009607714
     29        1          -0.001871610    0.000248360    0.003893769
     30        1           0.002845610    0.000747611    0.002967319
     31        1          -0.000516453    0.000450674    0.003776867
     32        1          -0.001274040   -0.005125376   -0.000130028
     33        1          -0.001925871   -0.004262643    0.000748863
     34        1          -0.002779845    0.003811135   -0.000347109
     35        1          -0.002315105    0.004529180   -0.001492240
     36        1          -0.004859777   -0.000399299   -0.002988880
     37        1           0.003672693   -0.001164989    0.002601541
     38        1          -0.001981297   -0.001344562    0.001794565
     39        1           0.001612817   -0.000145939    0.003547158
     40        1          -0.003129195   -0.002158246    0.000031679
     41        1           0.002755128   -0.003038443   -0.001245301
     42        1          -0.003238752   -0.001518540    0.000003025
     43        1           0.001071124    0.000269375    0.003500925
     44        1           0.000364920    0.005949414    0.000337175
     45        1          -0.003243762    0.000453979   -0.001338047
     46        1           0.002400139    0.000305364   -0.002768933
     47        1           0.002276265   -0.005523005    0.000243293
     48        1          -0.003389930    0.001097223   -0.001377115
     49        1           0.000968274    0.003624397    0.002114477
     50        1           0.002746760    0.000841475   -0.002602288
     51        1          -0.001663151    0.000808118   -0.002285315
     52        1           0.004538159    0.000067780    0.001801264
 -------------------------------------------------------------------
 Cartesian Forces:  Max     0.036168335 RMS     0.007435433

 GradGradGradGradGradGradGradGradGradGradGradGradGradGradGradGradGradGrad
 Berny optimization.
 FormGI is forming the generalized inverse of G from B-inverse, IUseBI=4.
 Internal  Forces:  Max     0.025789022 RMS     0.004573130
 Search for a local minimum.
 Step number   1 out of a maximum of  294
 All quantities printed in internal units (Hartrees-Bohrs-Radians)
 Mixed Optimization -- RFO/linear search
 Second derivative matrix not updated -- first step.
 ITU=  0
     Eigenvalues ---    0.00230   0.00230   0.00230   0.00230   0.00230
     Eigenvalues ---    0.00438   0.00585   0.00822   0.01310   0.01424
     Eigenvalues ---    0.01519   0.01547   0.01629   0.01723   0.01862
     Eigenvalues ---    0.01973   0.02059   0.02069   0.02070   0.02089
     Eigenvalues ---    0.02098   0.02127   0.02128   0.02129   0.02151
     Eigenvalues ---    0.02155   0.02168   0.02172   0.02193   0.02233
     Eigenvalues ---    0.02252   0.02343   0.02406   0.02989   0.02989
     Eigenvalues ---    0.03432   0.03485   0.03723   0.03810   0.05299
     Eigenvalues ---    0.05302   0.05309   0.05312   0.05362   0.05364
     Eigenvalues ---    0.05382   0.05383   0.05758   0.06308   0.07709
     Eigenvalues ---    0.09996   0.10276   0.10896   0.11661   0.12781
     Eigenvalues ---    0.14683   0.15627   0.15997   0.15997   0.16000
     Eigenvalues ---    0.16000   0.16000   0.16000   0.16000   0.16000
     Eigenvalues ---    0.16000   0.16000   0.16000   0.16000   0.16000
     Eigenvalues ---    0.16000   0.16000   0.16000   0.16000   0.16000
     Eigenvalues ---    0.16000   0.16000   0.16000   0.17374   0.17862
     Eigenvalues ---    0.21364   0.21999   0.22001   0.22315   0.22969
     Eigenvalues ---    0.23492   0.23999   0.24554   0.24989   0.24996
     Eigenvalues ---    0.25000   0.25000   0.25000   0.25000   0.25000
     Eigenvalues ---    0.25007   0.25046   0.26306   0.27205   0.27714
     Eigenvalues ---    0.27720   0.28335   0.28338   0.29908   0.30912
     Eigenvalues ---    0.30981   0.34540   0.34693   0.34694   0.34715
     Eigenvalues ---    0.34719   0.34723   0.34723   0.34729   0.34732
     Eigenvalues ---    0.34744   0.34758   0.34800   0.34804   0.34845
     Eigenvalues ---    0.34847   0.34853   0.34861   0.35683   0.35855
     Eigenvalues ---    0.35862   0.35885   0.35922   0.36093   0.36234
     Eigenvalues ---    0.39792   0.40956   0.41760   0.41812   0.42051
     Eigenvalues ---    0.43643   0.45032   0.45387   0.45467   0.45852
     Eigenvalues ---    0.46012   0.46146   0.46484   0.46902   0.47224
     Eigenvalues ---    0.48791   0.51923   0.53046   0.55878   0.90866
 RFO step:  Lambda=-2.12567721D-02 EMin= 2.30000000D-03
 Linear search not attempted -- first point.
 Iteration  1 RMS(Cart)=  0.09704329 RMS(Int)=  0.00125901
 Iteration  2 RMS(Cart)=  0.00353524 RMS(Int)=  0.00026996
 Iteration  3 RMS(Cart)=  0.00000168 RMS(Int)=  0.00026996
 Iteration  4 RMS(Cart)=  0.00000000 RMS(Int)=  0.00026996
 Variable       Old X    -DE/DX   Delta X   Delta X   Delta X     New X
                                 (Linear)    (Quad)   (Total)
    R1        2.32537  -0.00245   0.00000  -0.00263  -0.00263   2.32274
    R2        2.54360   0.02351   0.00000   0.04052   0.04052   2.58412
    R3        2.86049  -0.00569   0.00000  -0.01718  -0.01718   2.84332
    R4        2.64118  -0.00360   0.00000  -0.00748  -0.00748   2.63370
    R5        1.89475   0.00748   0.00000   0.01515   0.01515   1.90990
    R6        2.56313  -0.01586   0.00000  -0.02967  -0.02963   2.53350
    R7        2.65298  -0.00614   0.00000  -0.01292  -0.01288   2.64010
    R8        2.56284  -0.01923   0.00000  -0.03582  -0.03583   2.52701
    R9        2.63573  -0.00408   0.00000  -0.00860  -0.00864   2.62709
   R10        2.04204   0.00408   0.00000   0.01071   0.01071   2.05275
   R11        2.64420   0.00019   0.00000   0.00185   0.00181   2.64601
   R12        2.03937   0.00409   0.00000   0.01071   0.01071   2.05008
   R13        2.88146  -0.02209   0.00000  -0.06895  -0.06895   2.81251
   R14        2.64317  -0.00604   0.00000  -0.01096  -0.01096   2.63221
   R15        2.86152  -0.00183   0.00000  -0.00227  -0.00218   2.85934
   R16        2.86143  -0.00179   0.00000  -0.00214  -0.00205   2.85938
   R17        2.06428  -0.00375   0.00000  -0.01022  -0.01022   2.05406
   R18        2.86247  -0.00739   0.00000  -0.02891  -0.02910   2.83337
   R19        2.06128  -0.00297   0.00000  -0.00807  -0.00807   2.05321
   R20        2.06175  -0.00349   0.00000  -0.00949  -0.00949   2.05226
   R21        2.06177  -0.00349   0.00000  -0.00948  -0.00948   2.05228
   R22        2.06141  -0.00301   0.00000  -0.00817  -0.00817   2.05324
   R23        2.03717   0.00267   0.00000   0.00697   0.00697   2.04414
   R24        2.65591  -0.00164   0.00000  -0.00416  -0.00416   2.65175
   R25        2.64853  -0.00377   0.00000  -0.00865  -0.00866   2.63987
   R26        2.63184   0.00063   0.00000   0.00135   0.00135   2.63320
   R27        2.04261   0.00397   0.00000   0.01045   0.01045   2.05306
   R28        2.63744   0.00551   0.00000   0.01205   0.01206   2.64950
   R29        2.04309   0.00298   0.00000   0.00783   0.00783   2.05092
   R30        2.99191  -0.01614   0.00000  -0.05950  -0.05950   2.93241
   R31        2.63724   0.00694   0.00000   0.01494   0.01494   2.65218
   R32        2.60132  -0.00134   0.00000  -0.00450  -0.00407   2.59726
   R33        2.60206  -0.00135   0.00000  -0.00451  -0.00407   2.59799
   R34        2.67530   0.02579   0.00000   0.05886   0.05879   2.73409
   R35        2.91405  -0.00928   0.00000  -0.03047  -0.03047   2.88358
   R36        2.92769  -0.01034   0.00000  -0.03465  -0.03465   2.89304
   R37        2.97173  -0.00566   0.00000  -0.01943  -0.02008   2.95165
   R38        2.06001   0.00127   0.00000   0.00343   0.00343   2.06344
   R39        2.05928   0.00368   0.00000   0.00995   0.00995   2.06923
   R40        2.06092   0.00162   0.00000   0.00438   0.00438   2.06530
   R41        2.05902   0.00355   0.00000   0.00959   0.00959   2.06861
   R42        2.06134   0.00209   0.00000   0.00567   0.00567   2.06701
   R43        2.06116   0.00089   0.00000   0.00241   0.00241   2.06357
   R44        2.92754  -0.01029   0.00000  -0.03449  -0.03449   2.89305
   R45        2.91411  -0.00929   0.00000  -0.03048  -0.03048   2.88363
   R46        2.67575   0.02566   0.00000   0.05860   0.05854   2.73430
   R47        2.05914   0.00351   0.00000   0.00949   0.00949   2.06864
   R48        2.06127   0.00211   0.00000   0.00572   0.00572   2.06699
   R49        2.06113   0.00091   0.00000   0.00248   0.00248   2.06361
   R50        2.05924   0.00370   0.00000   0.01000   0.01000   2.06924
   R51        2.06069   0.00171   0.00000   0.00463   0.00463   2.06532
   R52        2.05995   0.00127   0.00000   0.00345   0.00345   2.06340
   R53        2.63076   0.00023   0.00000   0.00041   0.00041   2.63116
   R54        2.04298   0.00287   0.00000   0.00757   0.00757   2.05055
   R55        2.04580   0.00139   0.00000   0.00366   0.00366   2.04946
    A1        2.17932  -0.00517   0.00000  -0.01880  -0.01891   2.16041
    A2        2.09636   0.00508   0.00000   0.01894   0.01884   2.11520
    A3        2.00698   0.00012   0.00000   0.00067   0.00057   2.00755
    A4        2.27892  -0.00977   0.00000  -0.04055  -0.04057   2.23835
    A5        2.01604   0.01105   0.00000   0.05422   0.05420   2.07024
    A6        1.98785  -0.00129   0.00000  -0.01390  -0.01391   1.97395
    A7        1.97186  -0.00173   0.00000  -0.00540  -0.00544   1.96641
    A8        2.18338  -0.00949   0.00000  -0.03403  -0.03407   2.14931
    A9        2.12793   0.01122   0.00000   0.03945   0.03953   2.16745
   A10        2.06776  -0.00622   0.00000  -0.03060  -0.03056   2.03721
   A11        2.14265   0.00591   0.00000   0.02141   0.02136   2.16401
   A12        2.03079  -0.00444   0.00000  -0.01888  -0.01886   2.01194
   A13        2.10974  -0.00147   0.00000  -0.00253  -0.00251   2.10724
   A14        2.07410  -0.00187   0.00000  -0.00461  -0.00470   2.06941
   A15        2.09934   0.00008   0.00000  -0.00240  -0.00236   2.09698
   A16        2.10975   0.00179   0.00000   0.00701   0.00706   2.11680
   A17        2.12128   0.00386   0.00000   0.01120   0.01122   2.13250
   A18        2.07299  -0.00346   0.00000  -0.00668  -0.00671   2.06628
   A19        2.08891  -0.00040   0.00000  -0.00453  -0.00451   2.08440
   A20        2.13958  -0.00200   0.00000  -0.01627  -0.01647   2.12311
   A21        2.13961  -0.00199   0.00000  -0.01618  -0.01638   2.12323
   A22        1.96303   0.00048   0.00000   0.00968   0.00980   1.97282
   A23        2.00473   0.00240   0.00000   0.01229   0.01230   2.01703
   A24        2.00518   0.00240   0.00000   0.01222   0.01223   2.01741
   A25        2.07202  -0.00152   0.00000  -0.00909  -0.00912   2.06290
   A26        2.06183  -0.00128   0.00000  -0.00731  -0.00731   2.05452
   A27        2.09066  -0.00311   0.00000  -0.02011  -0.02008   2.07058
   A28        2.08420  -0.00013   0.00000  -0.00483  -0.00490   2.07930
   A29        1.95217   0.00326   0.00000   0.02334   0.02335   1.97552
   A30        2.06200  -0.00128   0.00000  -0.00728  -0.00727   2.05473
   A31        2.07210  -0.00153   0.00000  -0.00920  -0.00923   2.06286
   A32        2.08410  -0.00011   0.00000  -0.00476  -0.00483   2.07926
   A33        2.09039  -0.00311   0.00000  -0.02002  -0.01999   2.07040
   A34        1.95224   0.00325   0.00000   0.02331   0.02332   1.97556
   A35        2.08093  -0.00558   0.00000  -0.01896  -0.01892   2.06201
   A36        2.12352  -0.00233   0.00000  -0.01877  -0.01879   2.10472
   A37        2.07873   0.00791   0.00000   0.03774   0.03771   2.11645
   A38        2.12428   0.00508   0.00000   0.01994   0.01992   2.14419
   A39        2.08503  -0.00832   0.00000  -0.02944  -0.02945   2.05557
   A40        2.07376   0.00323   0.00000   0.00935   0.00933   2.08308
   A41        2.10068  -0.00014   0.00000  -0.00188  -0.00189   2.09879
   A42        2.12108  -0.00229   0.00000  -0.01216  -0.01218   2.10889
   A43        2.06126   0.00242   0.00000   0.01385   0.01383   2.07509
   A44        2.10211   0.00059   0.00000   0.00389   0.00390   2.10601
   A45        2.09209   0.00003   0.00000  -0.00014  -0.00015   2.09195
   A46        2.08896  -0.00062   0.00000  -0.00374  -0.00375   2.08521
   A47        2.09904   0.00199   0.00000   0.00615   0.00615   2.10518
   A48        2.08477  -0.00448   0.00000  -0.01418  -0.01417   2.07060
   A49        2.09937   0.00249   0.00000   0.00802   0.00801   2.10738
   A50        2.16895  -0.00227   0.00000  -0.00668  -0.00667   2.16227
   A51        2.16821  -0.00213   0.00000  -0.00615  -0.00614   2.16207
   A52        1.94603   0.00440   0.00000   0.01283   0.01282   1.95884
   A53        1.87254  -0.00121   0.00000   0.00083   0.00026   1.87280
   A54        1.86760   0.00252   0.00000   0.03430   0.03422   1.90182
   A55        1.84324   0.00168   0.00000   0.03151   0.03189   1.87513
   A56        1.77265  -0.00032   0.00000   0.00806   0.00806   1.78071
   A57        1.92787   0.00096   0.00000  -0.00209  -0.00401   1.92386
   A58        2.01249   0.00020   0.00000  -0.00897  -0.00969   2.00280
   A59        2.01809  -0.00433   0.00000  -0.04863  -0.04899   1.96910
   A60        1.95671  -0.00385   0.00000  -0.02042  -0.02055   1.93617
   A61        1.93828   0.00049   0.00000   0.00271   0.00270   1.94098
   A62        1.94260  -0.00450   0.00000  -0.02560  -0.02575   1.91685
   A63        1.88170   0.00204   0.00000   0.01269   0.01271   1.89441
   A64        1.85963   0.00446   0.00000   0.02463   0.02437   1.88400
   A65        1.88106   0.00188   0.00000   0.00884   0.00881   1.88987
   A66        1.94275   0.00155   0.00000   0.01073   0.01080   1.95355
   A67        1.95182  -0.00266   0.00000  -0.01463  -0.01487   1.93695
   A68        1.94449  -0.00777   0.00000  -0.04503  -0.04527   1.89922
   A69        1.87950   0.00125   0.00000   0.01092   0.01097   1.89047
   A70        1.87487   0.00330   0.00000   0.01819   0.01826   1.89313
   A71        1.86641   0.00493   0.00000   0.02313   0.02258   1.88899
   A72        2.01775  -0.00431   0.00000  -0.04852  -0.04888   1.96888
   A73        2.01214   0.00025   0.00000  -0.00870  -0.00941   2.00273
   A74        1.77349  -0.00040   0.00000   0.00730   0.00730   1.78079
   A75        1.92796   0.00092   0.00000  -0.00213  -0.00404   1.92392
   A76        1.84292   0.00175   0.00000   0.03195   0.03231   1.87523
   A77        1.86780   0.00252   0.00000   0.03419   0.03410   1.90190
   A78        1.94243   0.00158   0.00000   0.01095   0.01102   1.95345
   A79        1.95157  -0.00266   0.00000  -0.01464  -0.01489   1.93668
   A80        1.94491  -0.00778   0.00000  -0.04515  -0.04539   1.89952
   A81        1.87923   0.00124   0.00000   0.01098   0.01103   1.89026
   A82        1.87479   0.00330   0.00000   0.01816   0.01824   1.89303
   A83        1.86693   0.00492   0.00000   0.02302   0.02246   1.88939
   A84        1.93804   0.00050   0.00000   0.00281   0.00281   1.94085
   A85        1.94292  -0.00449   0.00000  -0.02561  -0.02576   1.91716
   A86        1.95643  -0.00382   0.00000  -0.02029  -0.02041   1.93602
   A87        1.88116   0.00186   0.00000   0.00873   0.00870   1.88986
   A88        1.88140   0.00204   0.00000   0.01280   0.01283   1.89423
   A89        1.86005   0.00443   0.00000   0.02439   0.02413   1.88418
   A90        1.87241  -0.00111   0.00000   0.00111   0.00056   1.87297
   A91        2.10045   0.00195   0.00000   0.00919   0.00919   2.10964
   A92        2.09333  -0.00158   0.00000  -0.00794  -0.00794   2.08539
   A93        2.08940  -0.00037   0.00000  -0.00126  -0.00126   2.08815
   A94        2.10449  -0.00116   0.00000  -0.00643  -0.00644   2.09805
   A95        2.10087  -0.00420   0.00000  -0.02317  -0.02317   2.07770
   A96        2.07783   0.00536   0.00000   0.02960   0.02961   2.10744
    D1       -0.05501   0.00061   0.00000   0.01433   0.01427  -0.04074
    D2        3.05499   0.00011   0.00000   0.00453   0.00429   3.05928
    D3        3.12162  -0.00048   0.00000  -0.01278  -0.01254   3.10908
    D4       -0.05157  -0.00098   0.00000  -0.02258  -0.02252  -0.07408
    D5        2.65246  -0.00027   0.00000  -0.00579  -0.00592   2.64654
    D6       -0.47189   0.00011   0.00000   0.00522   0.00503  -0.46686
    D7       -0.52236   0.00055   0.00000   0.01913   0.01931  -0.50305
    D8        2.63647   0.00093   0.00000   0.03013   0.03026   2.66674
    D9        3.09614   0.00019   0.00000   0.00513   0.00525   3.10139
   D10       -0.05275   0.00034   0.00000   0.00789   0.00796  -0.04479
   D11       -0.01427   0.00050   0.00000   0.01380   0.01374  -0.00053
   D12        3.12003   0.00065   0.00000   0.01656   0.01644   3.13647
   D13        3.13920  -0.00006   0.00000  -0.00071  -0.00067   3.13853
   D14        0.00464  -0.00011   0.00000  -0.00302  -0.00306   0.00158
   D15       -3.13786  -0.00001   0.00000  -0.00023  -0.00020  -3.13806
   D16        0.00156   0.00019   0.00000   0.00445   0.00441   0.00597
   D17       -0.00418   0.00009   0.00000   0.00255   0.00260  -0.00158
   D18        3.13524   0.00029   0.00000   0.00723   0.00720  -3.14074
   D19       -0.00242   0.00009   0.00000   0.00194   0.00193  -0.00049
   D20        3.13912   0.00009   0.00000   0.00211   0.00209   3.14121
   D21       -0.00024  -0.00001   0.00000  -0.00027  -0.00029  -0.00053
   D22        3.14155  -0.00003   0.00000  -0.00070  -0.00071   3.14084
   D23        3.14141  -0.00002   0.00000  -0.00045  -0.00046   3.14095
   D24        0.00001  -0.00004   0.00000  -0.00087  -0.00088  -0.00087
   D25       -3.14044  -0.00004   0.00000  -0.00082  -0.00083  -3.14127
   D26        0.00073  -0.00001   0.00000  -0.00020  -0.00021   0.00052
   D27        0.00095  -0.00002   0.00000  -0.00039  -0.00040   0.00055
   D28       -3.14106   0.00001   0.00000   0.00023   0.00022  -3.14085
   D29       -0.63492   0.00239   0.00000   0.01480   0.01465  -0.62027
   D30        0.63624  -0.00237   0.00000  -0.01427  -0.01412   0.62212
   D31       -3.14046   0.00001   0.00000   0.00027   0.00027  -3.14020
   D32        2.50710   0.00237   0.00000   0.01417   0.01402   2.52112
   D33       -2.50492  -0.00239   0.00000  -0.01490  -0.01475  -2.51967
   D34        0.00156  -0.00001   0.00000  -0.00036  -0.00036   0.00120
   D35        0.00138  -0.00005   0.00000  -0.00097  -0.00093   0.00045
   D36       -3.13810  -0.00023   0.00000  -0.00546  -0.00549   3.13959
   D37       -3.14063  -0.00002   0.00000  -0.00035  -0.00032  -3.14095
   D38        0.00308  -0.00021   0.00000  -0.00484  -0.00489  -0.00181
   D39        0.03380  -0.00006   0.00000  -0.00049  -0.00042   0.03338
   D40       -2.42248  -0.00197   0.00000  -0.01986  -0.01977  -2.44225
   D41        2.52566   0.00170   0.00000   0.01318   0.01313   2.53878
   D42        0.06937  -0.00022   0.00000  -0.00620  -0.00622   0.06315
   D43        2.42271   0.00198   0.00000   0.01997   0.01987   2.44257
   D44       -0.03410   0.00007   0.00000   0.00076   0.00069  -0.03340
   D45       -0.06995   0.00022   0.00000   0.00627   0.00629  -0.06366
   D46       -2.52675  -0.00169   0.00000  -0.01294  -0.01289  -2.53964
   D47       -2.52334  -0.00115   0.00000  -0.00511  -0.00508  -2.52842
   D48       -0.00023   0.00001   0.00000   0.00021   0.00021  -0.00002
   D49        0.00028  -0.00000   0.00000  -0.00002  -0.00002   0.00026
   D50        2.52338   0.00115   0.00000   0.00530   0.00528   2.52866
   D51       -3.14036   0.00043   0.00000   0.00967   0.00980  -3.13056
   D52       -0.01903  -0.00003   0.00000  -0.00139  -0.00121  -0.02024
   D53       -0.01590  -0.00007   0.00000  -0.00164  -0.00169  -0.01759
   D54        3.10543  -0.00053   0.00000  -0.01271  -0.01270   3.09273
   D55        3.14148  -0.00014   0.00000  -0.00514  -0.00499   3.13649
   D56       -0.00017  -0.00013   0.00000  -0.00474  -0.00462  -0.00480
   D57        0.01663   0.00021   0.00000   0.00543   0.00544   0.02207
   D58       -3.12502   0.00023   0.00000   0.00583   0.00581  -3.11922
   D59        0.00498  -0.00015   0.00000  -0.00313  -0.00313   0.00185
   D60        3.13905  -0.00014   0.00000  -0.00274  -0.00277   3.13628
   D61       -3.11703   0.00035   0.00000   0.00785   0.00796  -3.10907
   D62        0.01703   0.00036   0.00000   0.00824   0.00833   0.02536
   D63        3.14152   0.00009   0.00000   0.00206   0.00206  -3.13961
   D64        0.00547   0.00014   0.00000   0.00388   0.00387   0.00934
   D65        0.00744   0.00008   0.00000   0.00165   0.00168   0.00912
   D66       -3.12861   0.00013   0.00000   0.00347   0.00350  -3.12511
   D67       -3.13877  -0.00021   0.00000  -0.00961  -0.00960   3.13482
   D68        0.00301  -0.00023   0.00000  -0.01041  -0.01040  -0.00739
   D69       -0.00276  -0.00028   0.00000  -0.01151  -0.01153  -0.01429
   D70        3.13902  -0.00030   0.00000  -0.01232  -0.01233   3.12669
   D71       -0.00477   0.00001   0.00000  -0.00006  -0.00006  -0.00484
   D72        3.13342  -0.00001   0.00000  -0.00101  -0.00099   3.13243
   D73       -3.14083   0.00006   0.00000   0.00177   0.00176  -3.13906
   D74       -0.00263   0.00004   0.00000   0.00082   0.00083  -0.00180
   D75        2.93956   0.00196   0.00000   0.01922   0.01908   2.95864
   D76       -0.20220   0.00198   0.00000   0.01993   0.01980  -0.18239
   D77        2.94696   0.00190   0.00000   0.01797   0.01784   2.96480
   D78       -0.19446   0.00188   0.00000   0.01726   0.01712  -0.17734
   D79        2.58030   0.00053   0.00000  -0.02569  -0.02628   2.55402
   D80       -1.64850   0.00366   0.00000   0.00375   0.00357  -1.64493
   D81        0.46398  -0.00062   0.00000  -0.03403  -0.03451   0.42947
   D82       -0.94649   0.00084   0.00000   0.00626   0.00647  -0.94002
   D83       -3.05274   0.00054   0.00000   0.00217   0.00247  -3.05027
   D84        1.13459   0.00085   0.00000   0.00633   0.00668   1.14128
   D85       -2.94461  -0.00301   0.00000  -0.04874  -0.04909  -2.99370
   D86        1.23232  -0.00332   0.00000  -0.05283  -0.05309   1.17923
   D87       -0.86353  -0.00301   0.00000  -0.04867  -0.04888  -0.91240
   D88        1.01035   0.00216   0.00000   0.03321   0.03312   1.04347
   D89       -1.09591   0.00185   0.00000   0.02912   0.02913  -1.06678
   D90        3.09143   0.00217   0.00000   0.03329   0.03334   3.12477
   D91       -3.10009  -0.00149   0.00000  -0.00644  -0.00691  -3.10699
   D92        1.07990  -0.00233   0.00000  -0.01778  -0.01809   1.06181
   D93       -1.00778  -0.00149   0.00000  -0.00651  -0.00715  -1.01494
   D94       -1.08663   0.00285   0.00000   0.04995   0.04973  -1.03690
   D95        3.09336   0.00201   0.00000   0.03861   0.03855   3.13191
   D96        1.00567   0.00285   0.00000   0.04989   0.04949   1.05516
   D97        1.23877  -0.00004   0.00000  -0.01216  -0.01145   1.22732
   D98       -0.86442  -0.00089   0.00000  -0.02350  -0.02263  -0.88706
   D99       -2.95211  -0.00005   0.00000  -0.01223  -0.01169  -2.96381
   D100       1.42203   0.00368   0.00000   0.06891   0.06848   1.49051
   D101      -2.57589   0.00085   0.00000   0.00607   0.00624  -2.56965
   D102      -0.56333   0.00372   0.00000   0.04749   0.04727  -0.51606
   D103      -0.58992   0.00077   0.00000   0.02699   0.02696  -0.56296
   D104       1.69535  -0.00206   0.00000  -0.03585  -0.03529   1.66006
   D105      -2.57528   0.00081   0.00000   0.00558   0.00574  -2.56954
   D106      -2.87578   0.00360   0.00000   0.09026   0.08962  -2.78616
   D107      -0.59051   0.00077   0.00000   0.02742   0.02737  -0.56314
   D108       1.42204   0.00364   0.00000   0.06885   0.06840   1.49045
   D109       1.23772  -0.00001   0.00000  -0.01175  -0.01103   1.22669
   D110      -0.86474  -0.00087   0.00000  -0.02330  -0.02243  -0.88716
   D111      -2.95320  -0.00001   0.00000  -0.01177  -0.01123  -2.96444
   D112      -1.08693   0.00284   0.00000   0.04985   0.04962  -1.03730
   D113       3.09381   0.00198   0.00000   0.03829   0.03823   3.13203
   D114       1.00534   0.00284   0.00000   0.04982   0.04942   1.05476
   D115      -3.10049  -0.00151   0.00000  -0.00663  -0.00710  -3.10759
   D116       1.08025  -0.00237   0.00000  -0.01818  -0.01850   1.06175
   D117      -1.00822  -0.00151   0.00000  -0.00665  -0.00730  -1.01553
   D118      -1.09477   0.00181   0.00000   0.02860   0.02861  -1.06617
   D119       3.09238   0.00213   0.00000   0.03284   0.03289   3.12527
   D120       1.01074   0.00214   0.00000   0.03301   0.03292   1.04367
   D121       1.23271  -0.00334   0.00000  -0.05292  -0.05318   1.17953
   D122      -0.86332  -0.00302   0.00000  -0.04868  -0.04889  -0.91221
   D123      -2.94496  -0.00301   0.00000  -0.04851  -0.04886  -2.99382
   D124      -3.05258   0.00057   0.00000   0.00252   0.00282  -3.04977
   D125       1.13457   0.00089   0.00000   0.00676   0.00710   1.14167
[...]
 Alpha virt. eigenvalues --    0.25718   0.25937   0.26104   0.26599   0.27214
 Alpha virt. eigenvalues --    0.27782   0.27908   0.28395   0.29084   0.29364
 Alpha virt. eigenvalues --    0.29509   0.30336   0.30516   0.30723   0.31599
 Alpha virt. eigenvalues --    0.31757   0.32416   0.32532   0.33612   0.33775
 Alpha virt. eigenvalues --    0.33866   0.34115   0.34406   0.34659   0.34964
 Alpha virt. eigenvalues --    0.35615   0.35697   0.36182   0.36470   0.37022
 Alpha virt. eigenvalues --    0.37368   0.37886   0.38135   0.38233   0.39223
 Alpha virt. eigenvalues --    0.39592   0.39839   0.40156   0.40317   0.40562
 Alpha virt. eigenvalues --    0.40814   0.41137   0.41628   0.42037   0.42404
 Alpha virt. eigenvalues --    0.42885   0.43042   0.43354   0.43472   0.43728
 Alpha virt. eigenvalues --    0.43885   0.44145   0.44206   0.45052   0.45192
 Alpha virt. eigenvalues --    0.45385   0.45613   0.45764   0.45982   0.46382
 Alpha virt. eigenvalues --    0.47063   0.47313   0.47471   0.47874   0.48374
 Alpha virt. eigenvalues --    0.48742   0.48965   0.49077   0.49722   0.49958
 Alpha virt. eigenvalues --    0.50452   0.50580   0.50803   0.51018   0.51198
 Alpha virt. eigenvalues --    0.51489   0.51603   0.51993   0.52321   0.52739
 Alpha virt. eigenvalues --    0.53014   0.53467   0.53537   0.54368   0.54685
 Alpha virt. eigenvalues --    0.55108   0.55622   0.56109   0.56310   0.56860
 Alpha virt. eigenvalues --    0.57169   0.57598   0.57925   0.57971   0.58617
 Alpha virt. eigenvalues --    0.58991   0.59546   0.59800   0.60699   0.61508
 Alpha virt. eigenvalues --    0.61802   0.61945   0.62297   0.63635   0.63762
 Alpha virt. eigenvalues --    0.64345   0.65754   0.66058   0.66363   0.67070
 Alpha virt. eigenvalues --    0.67537   0.68187   0.68368   0.68695   0.69011
 Alpha virt. eigenvalues --    0.69353   0.69854   0.70716   0.71267   0.71751
 Alpha virt. eigenvalues --    0.72300   0.73101   0.73334   0.73600   0.73718
 Alpha virt. eigenvalues --    0.74436   0.75494   0.75733   0.76375   0.77226
 Alpha virt. eigenvalues --    0.77446   0.77951   0.78638   0.79131   0.79373
 Alpha virt. eigenvalues --    0.79728   0.80510   0.81050   0.81573   0.82373
 Alpha virt. eigenvalues --    0.82784   0.83326   0.83893   0.84622   0.85443
 Alpha virt. eigenvalues --    0.85870   0.86714   0.87972   0.88455   0.88731
 Alpha virt. eigenvalues --    0.88924   0.89564   0.90005   0.90102   0.90847
 Alpha virt. eigenvalues --    0.91023   0.91604   0.92135   0.92875   0.93344
 Alpha virt. eigenvalues --    0.93897   0.94067   0.94543   0.94944   0.95363
 Alpha virt. eigenvalues --    0.96014   0.97012   0.97789   0.98495   0.98743
 Alpha virt. eigenvalues --    0.99948   1.00746   1.00930   1.01471   1.01688
 Alpha virt. eigenvalues --    1.02023   1.02371   1.03026   1.03472   1.04175
 Alpha virt. eigenvalues --    1.05448   1.05690   1.06286   1.06730   1.06903
 Alpha virt. eigenvalues --    1.08327   1.09053   1.09276   1.10437   1.10604
 Alpha virt. eigenvalues --    1.11295   1.12154   1.12932   1.13151   1.13309
 Alpha virt. eigenvalues --    1.14572   1.15250   1.16350   1.16790   1.17134
 Alpha virt. eigenvalues --    1.17348   1.17750   1.18086   1.18766   1.19082
 Alpha virt. eigenvalues --    1.20256   1.20570   1.21313   1.22033   1.22280
 Alpha virt. eigenvalues --    1.23172   1.24534   1.24757   1.25207   1.25630
 Alpha virt. eigenvalues --    1.26151   1.27404   1.27926   1.28217   1.28956
 Alpha virt. eigenvalues --    1.29490   1.29710   1.30412   1.30999   1.32381
 Alpha virt. eigenvalues --    1.32668   1.32945   1.34187   1.34460   1.35139
 Alpha virt. eigenvalues --    1.35531   1.36469   1.37030   1.37265   1.39426
 Alpha virt. eigenvalues --    1.40148   1.41156   1.42090   1.42300   1.43789
 Alpha virt. eigenvalues --    1.44548   1.45510   1.46154   1.46737   1.47275
 Alpha virt. eigenvalues --    1.48245   1.49696   1.50154   1.51053   1.51707
 Alpha virt. eigenvalues --    1.52289   1.52452   1.52747   1.52882   1.53532
 Alpha virt. eigenvalues --    1.54046   1.54478   1.54941   1.55755   1.56422
 Alpha virt. eigenvalues --    1.57014   1.57720   1.58084   1.58612   1.58754
 Alpha virt. eigenvalues --    1.59228   1.59870   1.59979   1.60548   1.60656
 Alpha virt. eigenvalues --    1.61771   1.62455   1.62655   1.63239   1.63757
 Alpha virt. eigenvalues --    1.63990   1.64404   1.64666   1.65222   1.65555
 Alpha virt. eigenvalues --    1.66346   1.66538   1.66664   1.66981   1.67688
 Alpha virt. eigenvalues --    1.68457   1.68572   1.68938   1.70148   1.70852
 Alpha virt. eigenvalues --    1.71304   1.71790   1.72417   1.73066   1.73324
 Alpha virt. eigenvalues --    1.73429   1.73718   1.74709   1.74857   1.76487
 Alpha virt. eigenvalues --    1.77414   1.78233   1.79071   1.79340   1.79731
 Alpha virt. eigenvalues --    1.79978   1.80492   1.81888   1.82678   1.82712
 Alpha virt. eigenvalues --    1.82841   1.83198   1.84039   1.84970   1.85151
 Alpha virt. eigenvalues --    1.86289   1.86971   1.88331   1.88983   1.89599
 Alpha virt. eigenvalues --    1.90698   1.91206   1.91480   1.92179   1.92402
 Alpha virt. eigenvalues --    1.93384   1.94120   1.94358   1.95463   1.95892
 Alpha virt. eigenvalues --    1.96591   1.96815   1.97562   1.97646   1.97839
 Alpha virt. eigenvalues --    1.99077   1.99914   2.01468   2.01954   2.03787
 Alpha virt. eigenvalues --    2.04054   2.04336   2.05133   2.05745   2.06857
 Alpha virt. eigenvalues --    2.07617   2.08414   2.08949   2.09689   2.10576
 Alpha virt. eigenvalues --    2.11588   2.11748   2.12092   2.12888   2.14484
 Alpha virt. eigenvalues --    2.14589   2.15286   2.15690   2.16256   2.16598
 Alpha virt. eigenvalues --    2.17376   2.17904   2.19082   2.19187   2.19561
 Alpha virt. eigenvalues --    2.19903   2.20795   2.21190   2.22481   2.22947
 Alpha virt. eigenvalues --    2.24183   2.25049   2.25734   2.27799   2.28403
 Alpha virt. eigenvalues --    2.29065   2.29773   2.30456   2.31453   2.31776
 Alpha virt. eigenvalues --    2.32590   2.32601   2.33178   2.34417   2.34559
 Alpha virt. eigenvalues --    2.35531   2.35676   2.36394   2.37332   2.38161
 Alpha virt. eigenvalues --    2.38377   2.38579   2.38894   2.39163   2.39387
 Alpha virt. eigenvalues --    2.40230   2.40557   2.41329   2.42141   2.42282
 Alpha virt. eigenvalues --    2.42563   2.43249   2.44161   2.45234   2.45814
 Alpha virt. eigenvalues --    2.46385   2.47325   2.48166   2.48403   2.48982
 Alpha virt. eigenvalues --    2.50044   2.50346   2.51323   2.51961   2.52793
 Alpha virt. eigenvalues --    2.53256   2.53409   2.54251   2.54771   2.55438
 Alpha virt. eigenvalues --    2.56238   2.57087   2.57322   2.57953   2.58714
 Alpha virt. eigenvalues --    2.59044   2.59270   2.60176   2.60700   2.61209
 Alpha virt. eigenvalues --    2.61755   2.62292   2.62716   2.63205   2.63536
 Alpha virt. eigenvalues --    2.63839   2.64319   2.64779   2.65889   2.66756
 Alpha virt. eigenvalues --    2.67333   2.67851   2.68341   2.68813   2.68968
 Alpha virt. eigenvalues --    2.69833   2.70297   2.70533   2.71311   2.71465
 Alpha virt. eigenvalues --    2.71836   2.71958   2.72716   2.73078   2.73353
 Alpha virt. eigenvalues --    2.73874   2.74449   2.75637   2.75863   2.76725
 Alpha virt. eigenvalues --    2.77194   2.77629   2.78026   2.78514   2.79058
 Alpha virt. eigenvalues --    2.79491   2.79645   2.80891   2.81505   2.81729
 Alpha virt. eigenvalues --    2.82672   2.83610   2.84476   2.85125   2.85254
 Alpha virt. eigenvalues --    2.85847   2.87265   2.87850   2.88548   2.89303
 Alpha virt. eigenvalues --    2.89494   2.90027   2.90284   2.90837   2.91406
 Alpha virt. eigenvalues --    2.92194   2.92490   2.92555   2.93776   2.94201
 Alpha virt. eigenvalues --    2.95427   2.96619   2.96838   2.97299   2.97815
 Alpha virt. eigenvalues --    2.98798   2.99646   3.00221   3.00792   3.02253
 Alpha virt. eigenvalues --    3.02557   3.03562   3.04221   3.04318   3.05605
 Alpha virt. eigenvalues --    3.05938   3.05990   3.06442   3.07290   3.07356
 Alpha virt. eigenvalues --    3.07903   3.07936   3.08811   3.09597   3.10229
 Alpha virt. eigenvalues --    3.11160   3.11798   3.12268   3.12361   3.13058
 Alpha virt. eigenvalues --    3.13382   3.14125   3.14681   3.15044   3.15364
 Alpha virt. eigenvalues --    3.16089   3.16320   3.17064   3.17335   3.17552
 Alpha virt. eigenvalues --    3.17662   3.18787   3.18958   3.19846   3.20012
 Alpha virt. eigenvalues --    3.20293   3.20648   3.21649   3.21968   3.22725
 Alpha virt. eigenvalues --    3.22922   3.23621   3.23850   3.24014   3.24655
 Alpha virt. eigenvalues --    3.26328   3.26665   3.26977   3.27442   3.27927
 Alpha virt. eigenvalues --    3.28255   3.28671   3.29009   3.30088   3.30581
 Alpha virt. eigenvalues --    3.31138   3.31469   3.32278   3.33160   3.33273
 Alpha virt. eigenvalues --    3.34449   3.35034   3.35456   3.35950   3.36136
 Alpha virt. eigenvalues --    3.37147   3.37330   3.37885   3.38090   3.38501
 Alpha virt. eigenvalues --    3.38932   3.39221   3.39351   3.39603   3.40056
 Alpha virt. eigenvalues --    3.40780   3.41159   3.42081   3.42821   3.43450
 Alpha virt. eigenvalues --    3.43917   3.44493   3.45722   3.45953   3.47074
 Alpha virt. eigenvalues --    3.47667   3.48041   3.48232   3.48475   3.49159
 Alpha virt. eigenvalues --    3.49974   3.51105   3.51419   3.51917   3.52676
 Alpha virt. eigenvalues --    3.53463   3.54109   3.54327   3.54863   3.55308
 Alpha virt. eigenvalues --    3.55569   3.56212   3.57631   3.57839   3.58859
 Alpha virt. eigenvalues --    3.59255   3.59608   3.59878   3.60230   3.62965
 Alpha virt. eigenvalues --    3.63246   3.63442   3.65068   3.66194   3.66658
 Alpha virt. eigenvalues --    3.67733   3.68971   3.69662   3.71065   3.72619
 Alpha virt. eigenvalues --    3.73725   3.74133   3.75912   3.76396   3.76772
 Alpha virt. eigenvalues --    3.78161   3.78533   3.78698   3.79540   3.80849
 Alpha virt. eigenvalues --    3.81178   3.83394   3.83814   3.84837   3.85187
 Alpha virt. eigenvalues --    3.86668   3.89062   3.89939   3.91477   3.92579
 Alpha virt. eigenvalues --    3.93377   3.94722   3.95528   3.96324   3.96749
 Alpha virt. eigenvalues --    3.97279   3.99046   4.00314   4.00543   4.00928
 Alpha virt. eigenvalues --    4.01597   4.03135   4.04121   4.04675   4.04939
 Alpha virt. eigenvalues --    4.05474   4.05760   4.06165   4.07285   4.08066
 Alpha virt. eigenvalues --    4.08135   4.08544   4.10460   4.10639   4.11486
 Alpha virt. eigenvalues --    4.12130   4.12488   4.14013   4.14673   4.15721
 Alpha virt. eigenvalues --    4.15796   4.16094   4.16565   4.17089   4.17591
 Alpha virt. eigenvalues --    4.18114   4.19992   4.20891   4.22050   4.22740
 Alpha virt. eigenvalues --    4.24017   4.25459   4.25950   4.26015   4.27055
 Alpha virt. eigenvalues --    4.28622   4.29099   4.29793   4.31280   4.34041
 Alpha virt. eigenvalues --    4.34176   4.36245   4.37042   4.38547   4.39139
 Alpha virt. eigenvalues --    4.40219   4.40763   4.41785   4.41927   4.42640
 Alpha virt. eigenvalues --    4.43348   4.44442   4.46568   4.46875   4.47305
 Alpha virt. eigenvalues --    4.48554   4.49399   4.50807   4.52169   4.53992
 Alpha virt. eigenvalues --    4.54578   4.55111   4.55596   4.56897   4.58361
 Alpha virt. eigenvalues --    4.59160   4.59485   4.60979   4.62149   4.66146
 Alpha virt. eigenvalues --    4.68007   4.70287   4.71317   4.74873   4.76600
 Alpha virt. eigenvalues --    4.77014   4.78838   4.80270   4.80961   4.84937
 Alpha virt. eigenvalues --    4.85565   4.86114   4.87080   4.87439   4.88366
 Alpha virt. eigenvalues --    4.88554   4.89617   4.91012   4.94349   4.95353
 Alpha virt. eigenvalues --    4.96228   4.97906   5.01540   5.01924   5.05415
 Alpha virt. eigenvalues --    5.05781   5.07391   5.07730   5.08987   5.11469
 Alpha virt. eigenvalues --    5.16554   5.17798   5.19822   5.21049   5.21281
 Alpha virt. eigenvalues --    5.26396   5.28478   5.29041   5.29903   5.30836
 Alpha virt. eigenvalues --    5.32278   5.35189   5.40365   5.40628   5.42630
 Alpha virt. eigenvalues --    5.44268   5.46481   5.48343   5.52171   5.54861
 Alpha virt. eigenvalues --    5.58022   5.59750   5.60267   5.64101   5.65582
 Alpha virt. eigenvalues --    5.67396   5.68746   5.73653   5.74043   5.79712
 Alpha virt. eigenvalues --    5.81369   5.85454   5.86898   5.92839   5.95661
 Alpha virt. eigenvalues --    6.05006   6.11652   6.15336   6.16409   6.20038
 Alpha virt. eigenvalues --    6.36703   6.41701   6.52858   6.62845   6.75653
 Alpha virt. eigenvalues --    6.77969   6.79153   6.80840   6.83319   6.88384
 Alpha virt. eigenvalues --    6.94989   6.96184   7.10376   7.15438   7.19289
 Alpha virt. eigenvalues --    7.23611   7.37077   7.46114  16.36894  22.36006
 Alpha virt. eigenvalues --   22.48768  22.49844  22.52992  22.53478  22.57199
 Alpha virt. eigenvalues --   22.57739  22.58560  22.76770  22.77810  22.81820
 Alpha virt. eigenvalues --   22.82280  22.82863  22.84244  22.84733  22.90496
 Alpha virt. eigenvalues --   23.04324  23.16352  23.31813  23.37943  23.55468
 Alpha virt. eigenvalues --   32.59362  32.85758  44.12362  44.39559  44.43399
          Condensed to atoms (all electrons):
 Mulliken charges:
               1
     1  O   -0.411111
     2  C    0.356837
     3  N   -0.329997
     4  C    0.302899
     5  N   -0.313060
     6  C   -0.095565
     7  C   -0.258852
     8  C    0.238967
     9  C   -0.233334
    10  C   -0.240409
    11  C   -0.240803
    12  C   -0.293505
    13  C    0.078280
    14  C   -0.189538
    15  C   -0.210636
    16  C   -0.042803
    17  B    0.429072
    18  O   -0.334494
    19  C    0.129837
    20  C   -0.432719
    21  C   -0.499226
    22  C    0.130181
    23  C   -0.499511
    24  C   -0.432571
    25  O   -0.336209
    26  C   -0.172277
    27  C   -0.162701
    28  H    0.246504
    29  H    0.140264
    30  H    0.161363
    31  H    0.132039
    32  H    0.147240
    33  H    0.141256
    34  H    0.141195
    35  H    0.147288
    36  H    0.215520
    37  H    0.157356
    38  H    0.158944
    39  H    0.158719
    40  H    0.155756
    41  H    0.159469
    42  H    0.164030
    43  H    0.166572
    44  H    0.165953
    45  H    0.164223
    46  H    0.166689
    47  H    0.165123
    48  H    0.155880
    49  H    0.158906
    50  H    0.158855
    51  H    0.159017
    52  H    0.175088
 Sum of Mulliken charges =  -0.00000
 Mulliken charges with hydrogens summed into heavy atoms:
               1
     1  O   -0.411111
     2  C    0.356837
     3  N   -0.083492
     4  C    0.302899
     5  N   -0.313060
     6  C    0.044698
     7  C   -0.097489
     8  C    0.238967
     9  C   -0.101295
    10  C    0.048087
    11  C    0.047680
    12  C   -0.077984
    13  C    0.078280
    14  C   -0.032182
    15  C   -0.051693
    16  C   -0.042803
    17  B    0.429072
    18  O   -0.334494
    19  C    0.129837
    20  C    0.041224
    21  C   -0.002671
    22  C    0.130181
    23  C   -0.003477
    24  C    0.041069
    25  O   -0.336209
    26  C   -0.013260
    27  C    0.012388
 Electronic spatial extent (au):  <R**2>=          21262.9399
 Charge=              0.0000 electrons
 Dipole moment (field-independent basis, Debye):
    X=             -2.2882    Y=              1.0378    Z=              0.0210  Tot=              2.5126
 Quadrupole moment (field-independent basis, Debye-Ang):
   XX=           -105.7462   YY=           -159.1047   ZZ=           -163.1213
   XY=             -1.1740   XZ=              0.5887   YZ=              0.0981
 Traceless Quadrupole moment (field-independent basis, Debye-Ang):
   XX=             36.9112   YY=            -16.4473   ZZ=            -20.4639
   XY=             -1.1740   XZ=              0.5887   YZ=              0.0981
 Octapole moment (field-independent basis, Debye-Ang**2):
  XXX=            -42.9923  YYY=             -2.8859  ZZZ=              0.8482  XYY=              0.5287
  XXY=            -11.4075  XXZ=              4.8961  XZZ=            -21.5907  YZZ=             -3.0738
  YYZ=             -1.4542  XYZ=              1.0681
 Hexadecapole moment (field-independent basis, Debye-Ang**3):
 XXXX=         -23293.4182 YYYY=          -1606.1641 ZZZZ=           -609.3480 XXXY=           -164.3240
 XXXZ=             18.2388 YYYX=             -8.7862 YYYZ=             12.2449 ZZZX=              7.0422
 ZZZY=              2.6991 XXYY=          -4545.1398 XXZZ=          -4645.3277 YYZZ=           -386.8962
 XXYZ=            -65.0450 YYXZ=             -1.4886 ZZXY=            -21.8916
 N-N= 2.224381498090D+03 E-N=-7.184323708793D+03  KE= 1.169133518006D+03
 Unable to Open any file for archive entry.
 1\1\GINC-COMPUTE-0-33\SP\RM062X\def2TZVP\C21H25B1N2O3\ZTAN64\14-Aug-20
 24\0\\# M062X/def2tzvp int=(grid=ultrafine) nmr=giao guess=read geom=c
 heck\\pyrd4.xyz\\0,1\O,0,2.6468082211,1.1635941423,1.7929414554\C,0,1.
 8401456607,1.0691833241,2.7128090686\N,0,2.1797187734,1.2044154906,4.0
 393220207\C,0,3.4390895856,1.4264653292,4.6115434264\N,0,3.3799090855,
 1.5635849227,5.943655723\C,0,4.5362129031,1.7720627593,6.5822510777\C,
 0,5.7707136447,1.8510371289,5.9502170094\C,0,5.8250433108,1.7073969082
 ,4.5545986591\C,0,7.0948869366,1.7783740885,3.7896714034\C,0,8.2093153
 835,2.7169513769,4.2167921045\C,0,8.3874626673,1.2385049411,4.37547497
 22\C,0,4.6264066555,1.4905083536,3.8719724151\C,0,0.3843792912,0.81083
 32807,2.4565349969\C,0,-0.4840185968,0.2569336714,3.4079548576\C,0,-1.
 8215250074,0.0407707333,3.0901890095\C,0,-2.3266838999,0.3695580687,1.
 8223118104\B,0,-3.8202185523,0.1302592116,1.4762137452\O,0,-4.38436772
 52,0.4963487021,0.2801555911\C,0,-5.7141320526,-0.094776717,0.23767263
 83\C,0,-6.6492092341,0.8619584591,-0.4904801098\C,0,-5.5841600647,-1.4
 084802815,-0.5378376359\C,0,-6.0340176205,-0.3052642085,1.7628972777\C
 ,0,-6.648230913,0.9305356255,2.4259528774\C,0,-6.8585277894,-1.5453298
 636,2.0827599222\O,0,-4.7060025824,-0.4685281092,2.3368932507\C,0,-1.4
 424647279,0.9110009549,0.873860421\C,0,-0.1038949226,1.1232786152,1.18
 13058435\H,0,1.4424422826,1.220956213,4.7300311231\H,0,4.4662550943,1.
 8814494764,7.6625173211\H,0,6.6658162526,2.02238432,6.538292917\H,0,6.
 9684859989,1.6484250255,2.7191643314\H,0,8.0371156572,3.3155950974,5.1
 057528207\H,0,8.7604817242,3.2268870384,3.4333813461\H,0,9.0626192499,
 0.7199918833,3.7025185953\H,0,8.3383130395,0.8158352034,5.3740904479\H
 ,0,4.5930887139,1.378107716,2.7980312395\H,0,-0.1176800602,-0.04321973
 46,4.3853721753\H,0,-2.4878076294,-0.3948207959,3.8283834387\H,0,-6.63
 61072617,1.8553648335,-0.0404291105\H,0,-7.675948884,0.4829141217,-0.4
 761649947\H,0,-6.3368625618,0.9577278879,-1.533631992\H,0,-6.555714682
 4,-1.8901252957,-0.6782650787\H,0,-4.9199425734,-2.1066789863,-0.02180
 96858\H,0,-5.1568140243,-1.1970278156,-1.5210458546\H,0,-7.6800124218,
 1.0900389614,2.1010386325\H,0,-6.0681921428,1.8287812837,2.1986791866\
 H,0,-6.6441976381,0.7886075891,3.5094402434\H,0,-7.8407998433,-1.48923
 07531,1.6031198925\H,0,-7.0113945409,-1.6161922237,3.1628400673\H,0,-6
 .3581049822,-2.4558404707,1.7508816914\H,0,-1.8174100845,1.1631124756,
 -0.1133730834\H,0,0.5885328874,1.5291800411,0.4525504982\\Version=ES64
 L-G16RevC.01\State=1-A\HF=-1175.4033018\RMSD=2.960e-09\Dipole=-0.96495
 26,-0.1730743,0.1269666\Quadrupole=23.621017,-14.2909665,-9.3300504,5.
 9893965,10.2688772,1.4384772\PG=C01 [X(C21H25B1N2O3)]\\@
 The archive entry for this job was punched.


 MYSTERY IS THE WISDOM OF BLOCKHEADS... HORACE WALPOLE 
 Job cpu time:       0 days  4 hours 11 minutes 30.7 seconds.
 Elapsed time:       0 days  0 hours 17 minutes  5.6 seconds.
 File lengths (MBytes):  RWF=    543 Int=      0 D2E=      0 Chk=     88 Scr=      1
 Normal termination of Gaussian 16 at Wed Aug 14 20:11:01 2024.
 
 
-----Kestrel cluster job statistics-----
Time info:

real	78m1.515s
user	1223m37.697s
sys	0m45.808s
 
Disk space usage:
88M	/scratch/362967.kestrel.chem.wisc.edu
