 Entering Gaussian System, Link 0=/share/apps/gaussian/g16/g16
 Initial command:
 /share/apps/gaussian/g16/l1.exe "/scratch/362971.kestrel.chem.wisc.edu/Gau-3285.inp" -scrdir="/scratch/362971.kestrel.chem.wisc.edu/"
 Entering Link 1 = /share/apps/gaussian/g16/l1.exe PID=      3286.
  
 Copyright (c) 1988-2019, Gaussian, Inc.  All Rights Reserved.
  
 This is part of the Gaussian(R) 16 program.  It is based on
 the Gaussian(R) 09 system (copyright 2009, Gaussian, Inc.),
 the Gaussian(R) 03 system (copyright 2003, Gaussian, Inc.),
 the Gaussian(R) 98 system (copyright 1998, Gaussian, Inc.),
 the Gaussian(R) 94 system (copyright 1995, Gaussian, Inc.),
 the Gaussian 92(TM) system (copyright 1992, Gaussian, Inc.),
 the Gaussian 90(TM) system (copyright 1990, Gaussian, Inc.),
 the Gaussian 88(TM) system (copyright 1988, Gaussian, Inc.),
 the Gaussian 86(TM) system (copyright 1986, Carnegie Mellon
 University), and the Gaussian 82(TM) system (copyright 1983,
 Carnegie Mellon University). Gaussian is a federally registered
 trademark of Gaussian, Inc.
  
 This software contains proprietary and confidential information,
 including trade secrets, belonging to Gaussian, Inc.
  
 This software is provided under written license and may be
 used, copied, transmitted, or stored only in accord with that
 written license.
  
 The following legend is applicable only to US Government
 contracts under FAR:
  
                    RESTRICTED RIGHTS LEGEND
  
 Use, reproduction and disclosure by the US Government is
 subject to restrictions as set forth in subparagraphs (a)
 and (c) of the Commercial Computer Software - Restricted
 Rights clause in FAR 52.227-19.
  
 Gaussian, Inc.
 340 Quinnipiac St., Bldg. 40, Wallingford CT 06492
  
  
 ---------------------------------------------------------------
 Warning -- This program may not be used in any manner that
 competes with the business of Gaussian, Inc. or will provide
 assistance to any competitor of Gaussian, Inc.  The licensee
 of this program is prohibited from giving any competitor of
 Gaussian, Inc. access to this program.  By using this program,
 the user acknowledges that Gaussian, Inc. is engaged in the
 business of creating and licensing software in the field of
 computational chemistry and represents and warrants to the
 licensee that it is not a competitor of Gaussian, Inc. and that
 it will not use this program in any manner prohibited above.
 ---------------------------------------------------------------
  

 Cite this work as:
 Gaussian 16, Revision C.01,
 M. J. Frisch, G. W. Trucks, H. B. Schlegel, G. E. Scuseria, 
 M. A. Robb, J. R. Cheeseman, G. Scalmani, V. Barone, 
 G. A. Petersson, H. Nakatsuji, X. Li, M. Caricato, A. V. Marenich, 
 J. Bloino, B. G. Janesko, R. Gomperts, B. Mennucci, H. P. Hratchian, 
 J. V. Ortiz, A. F. Izmaylov, J. L. Sonnenberg, D. Williams-Young, 
 F. Ding, F. Lipparini, F. Egidi, J. Goings, B. Peng, A. Petrone, 
 T. Henderson, D. Ranasinghe, V. G. Zakrzewski, J. Gao, N. Rega, 
 G. Zheng, W. Liang, M. Hada, M. Ehara, K. Toyota, R. Fukuda, 
 J. Hasegawa, M. Ishida, T. Nakajima, Y. Honda, O. Kitao, H. Nakai, 
 T. Vreven, K. Throssell, J. A. Montgomery, Jr., J. E. Peralta, 
 F. Ogliaro, M. J. Bearpark, J. J. Heyd, E. N. Brothers, K. N. Kudin, 
 V. N. Staroverov, T. A. Keith, R. Kobayashi, J. Normand, 
 K. Raghavachari, A. P. Rendell, J. C. Burant, S. S. Iyengar, 
 J. Tomasi, M. Cossi, J. M. Millam, M. Klene, C. Adamo, R. Cammi, 
 J. W. Ochterski, R. L. Martin, K. Morokuma, O. Farkas, 
 J. B. Foresman, and D. J. Fox, Gaussian, Inc., Wallingford CT, 2019.
 
 ******************************************
 Gaussian 16:  ES64L-G16RevC.01  3-Jul-2019
                14-Aug-2024 
 ******************************************
 %nprocs=16
 Will use up to   16 processors via shared memory.
 %mem=16GB
 %chk=pyrd4_conf-8.chk
 ----------------------------------------------------------------------
 # B3LYP/6-31G(d,p) symmetry=loose empiricaldispersion=GD3BJ int=(grid=
 ultrafine) opt freq=noraman
 ----------------------------------------------------------------------
 1/18=20,19=15,26=4,38=1/1,3;
 2/9=110,12=2,17=4,18=3,40=1/2;
 3/5=1,6=6,7=101,11=2,25=1,30=1,71=1,74=-5,75=-5,124=41/1,2,3;
 4//1;
 5/5=2,38=5/2;
 6/7=2,8=2,9=2,10=2,28=1/1;
 7//1,2,3,16;
 1/18=20,19=15,26=4/3(2);
 2/9=110/2;
 99//99;
 2/9=110/2;
 3/5=1,6=6,7=101,11=2,25=1,30=1,71=1,74=-5,75=-5,124=41/1,2,3;
 4/5=5,16=3,69=1/1;
 5/5=2,38=5/2;
 7//1,2,3,16;
 1/18=20,19=15,26=4/3(-5);
 2/9=110/2;
 6/7=2,8=2,9=2,10=2,19=2,28=1/1;
 99/9=1/99;
 ---------
 pyrd4.xyz
 ---------
 Symbolic Z-matrix:
 Charge =  0 Multiplicity = 1
 O                     2.124    -1.4773    3.862 
 C                     1.6774   -0.3563    3.6199 
 N                     2.3678    0.7929    3.7542 
 C                     3.6747    0.982     4.2194 
 N                     4.2886    0.0574    5.0072 
 C                     5.5452    0.3127    5.4449 
 C                     6.2284    1.4877    5.131 
 C                     5.5936    2.4447    4.331 
 C                     6.2838    3.7508    3.9522 
 C                     7.2       4.4933    4.9023 
 C                     7.7679    3.8333    3.6629 
 C                     4.2968    2.1858    3.8736 
 C                     0.2747   -0.1963    3.0753 
 C                    -0.4907    0.953     3.3351 
 C                    -1.7793    1.0713    2.8199 
 C                    -2.3277    0.048     2.0452 
 B                    -3.793     0.1866    1.462 
 O                    -4.605     1.281     1.6595 
 C                    -5.7114    1.1472    0.786 
 C                    -6.9252    1.7813    1.4948 
 C                    -5.3409    1.9565   -0.482 
 C                    -5.7817   -0.4128    0.6001 
 C                    -6.4958   -1.1913    1.7333 
 C                    -6.2798   -0.8907   -0.7788 
 O                    -4.4154   -0.7713    0.6939 
 C                    -1.5767   -1.1017    1.7957 
 C                    -0.2886   -1.2256    2.3092 
 H                     1.914     1.6028    3.3785 
 H                     5.9979   -0.4527    6.0588 
 H                     7.2289    1.648     5.5022 
 H                     5.6584    4.3887    3.3245 
 H                     7.3997    4.0613    5.884 
 H                     7.1295    5.5812    4.9444 
 H                     8.0981    4.4544    2.8289 
 H                     8.3722    2.93      3.7597 
 H                     3.7912    2.9102    3.2542 
 H                    -0.1117    1.7553    3.9523 
 H                    -2.3634    1.9571    3.0277 
 H                    -7.0884    1.3581    2.4861 
 H                    -7.8368    1.6347    0.916 
 H                    -6.7877    2.8542    1.6335 
 H                    -6.1542    1.9498   -1.2072 
 H                    -4.4546    1.5546   -0.9747 
 H                    -5.1266    2.9985   -0.2413 
 H                    -7.5707   -1.0134    1.7195 
 H                    -6.1251   -0.9048    2.7184 
 H                    -6.3416   -2.2666    1.6362 
 H                    -7.3051   -0.5683   -0.958 
 H                    -6.2548   -1.9783   -0.8539 
 H                    -5.6632   -0.5091   -1.5927 
 H                    -1.9969   -1.9033    1.2045 
 H                     0.2736   -2.129     2.1096 
 

 GradGradGradGradGradGradGradGradGradGradGradGradGradGradGradGradGradGrad
 Berny optimization.
 Initialization pass.
                           ----------------------------
                           !    Initial Parameters    !
                           ! (Angstroms and Degrees)  !
 --------------------------                            --------------------------
 ! Name  Definition              Value          Derivative Info.                !
 --------------------------------------------------------------------------------
 ! R1    R(1,2)                  1.2307         estimate D2E/DX2                !
 ! R2    R(2,3)                  1.3473         estimate D2E/DX2                !
 ! R3    R(2,13)                 1.5132         estimate D2E/DX2                !
 ! R4    R(3,4)                  1.4001         estimate D2E/DX2                !
 ! R5    R(3,28)                 1.0015         estimate D2E/DX2                !
 ! R6    R(4,5)                  1.361          estimate D2E/DX2                !
 ! R7    R(4,12)                 1.3985         estimate D2E/DX2                !
 ! R8    R(5,6)                  1.3549         estimate D2E/DX2                !
 ! R9    R(6,7)                  1.395          estimate D2E/DX2                !
 ! R10   R(6,29)                 1.0806         estimate D2E/DX2                !
 ! R11   R(7,8)                  1.3996         estimate D2E/DX2                !
 ! R12   R(7,30)                 1.0791         estimate D2E/DX2                !
 ! R13   R(8,9)                  1.525          estimate D2E/DX2                !
 ! R14   R(8,12)                 1.3993         estimate D2E/DX2                !
 ! R15   R(9,10)                 1.5144         estimate D2E/DX2                !
 ! R16   R(9,11)                 1.5143         estimate D2E/DX2                !
 ! R17   R(9,31)                 1.0918         estimate D2E/DX2                !
 ! R18   R(10,11)                1.5147         estimate D2E/DX2                !
 ! R19   R(10,32)                1.091          estimate D2E/DX2                !
 ! R20   R(10,33)                1.091          estimate D2E/DX2                !
 ! R21   R(11,34)                1.091          estimate D2E/DX2                !
 ! R22   R(11,35)                1.0911         estimate D2E/DX2                !
 ! R23   R(12,36)                1.0789         estimate D2E/DX2                !
 ! R24   R(13,14)                1.4051         estimate D2E/DX2                !
 ! R25   R(13,27)                1.4013         estimate D2E/DX2                !
 ! R26   R(14,15)                1.3928         estimate D2E/DX2                !
 ! R27   R(14,37)                1.0809         estimate D2E/DX2                !
 ! R28   R(15,16)                1.3957         estimate D2E/DX2                !
 ! R29   R(15,38)                1.0812         estimate D2E/DX2                !
 ! R30   R(16,17)                1.5832         estimate D2E/DX2                !
 ! R31   R(16,26)                1.3957         estimate D2E/DX2                !
 ! R32   R(17,18)                1.377          estimate D2E/DX2                !
 ! R33   R(17,25)                1.3766         estimate D2E/DX2                !
 ! R34   R(18,19)                1.416          estimate D2E/DX2                !
 ! R35   R(19,20)                1.542          estimate D2E/DX2                !
 ! R36   R(19,21)                1.5492         estimate D2E/DX2                !
 ! R37   R(19,22)                1.5726         estimate D2E/DX2                !
 ! R38   R(20,39)                1.0901         estimate D2E/DX2                !
 ! R39   R(20,40)                1.0897         estimate D2E/DX2                !
 ! R40   R(20,41)                1.0905         estimate D2E/DX2                !
 ! R41   R(21,42)                1.0897         estimate D2E/DX2                !
 ! R42   R(21,43)                1.0908         estimate D2E/DX2                !
 ! R43   R(21,44)                1.0907         estimate D2E/DX2                !
 ! R44   R(22,23)                1.5492         estimate D2E/DX2                !
 ! R45   R(22,24)                1.542          estimate D2E/DX2                !
 ! R46   R(22,25)                1.4157         estimate D2E/DX2                !
 ! R47   R(23,45)                1.0896         estimate D2E/DX2                !
 ! R48   R(23,46)                1.0908         estimate D2E/DX2                !
 ! R49   R(23,47)                1.0906         estimate D2E/DX2                !
 ! R50   R(24,48)                1.0896         estimate D2E/DX2                !
 ! R51   R(24,49)                1.0905         estimate D2E/DX2                !
 ! R52   R(24,50)                1.0901         estimate D2E/DX2                !
 ! R53   R(26,27)                1.3922         estimate D2E/DX2                !
 ! R54   R(26,51)                1.081          estimate D2E/DX2                !
 ! R55   R(27,52)                1.0826         estimate D2E/DX2                !
 ! A1    A(1,2,3)              124.8435         estimate D2E/DX2                !
 ! A2    A(1,2,13)             120.2306         estimate D2E/DX2                !
 ! A3    A(3,2,13)             114.8778         estimate D2E/DX2                !
 ! A4    A(2,3,4)              128.8028         estimate D2E/DX2                !
 ! A5    A(2,3,28)             114.8456         estimate D2E/DX2                !
 ! A6    A(4,3,28)             116.0011         estimate D2E/DX2                !
 ! A7    A(3,4,5)              121.4408         estimate D2E/DX2                !
 ! A8    A(3,4,12)             116.7018         estimate D2E/DX2                !
 ! A9    A(5,4,12)             121.82           estimate D2E/DX2                !
 ! A10   A(4,5,6)              118.5099         estimate D2E/DX2                !
 ! A11   A(5,6,7)              122.7002         estimate D2E/DX2                !
 ! A12   A(5,6,29)             116.015          estimate D2E/DX2                !
 ! A13   A(7,6,29)             121.2848         estimate D2E/DX2                !
 ! A14   A(6,7,8)              118.845          estimate D2E/DX2                !
 ! A15   A(6,7,30)             120.1193         estimate D2E/DX2                !
 ! A16   A(8,7,30)             121.0357         estimate D2E/DX2                !
 ! A17   A(7,8,9)              121.4876         estimate D2E/DX2                !
 ! A18   A(7,8,12)             118.7301         estimate D2E/DX2                !
 ! A19   A(9,8,12)             119.7822         estimate D2E/DX2                !
 ! A20   A(8,9,10)             122.5392         estimate D2E/DX2                !
 ! A21   A(8,9,11)             122.5251         estimate D2E/DX2                !
 ! A22   A(8,9,31)             112.5779         estimate D2E/DX2                !
 ! A23   A(10,9,31)            114.8836         estimate D2E/DX2                !
 ! A24   A(11,9,31)            114.8172         estimate D2E/DX2                !
 ! A25   A(9,10,32)            118.7593         estimate D2E/DX2                !
 ! A26   A(9,10,33)            118.2953         estimate D2E/DX2                !
 ! A27   A(11,10,32)           119.6783         estimate D2E/DX2                !
 ! A28   A(11,10,33)           119.3607         estimate D2E/DX2                !
 ! A29   A(32,10,33)           111.8363         estimate D2E/DX2                !
 ! A30   A(9,11,34)            118.2728         estimate D2E/DX2                !
 ! A31   A(9,11,35)            118.7345         estimate D2E/DX2                !
 ! A32   A(10,11,34)           119.4004         estimate D2E/DX2                !
 ! A33   A(10,11,35)           119.7225         estimate D2E/DX2                !
 ! A34   A(34,11,35)           111.8075         estimate D2E/DX2                !
 ! A35   A(4,12,8)             119.3872         estimate D2E/DX2                !
 ! A36   A(4,12,36)            120.7605         estimate D2E/DX2                !
 ! A37   A(8,12,36)            119.8507         estimate D2E/DX2                !
 ! A38   A(2,13,14)            121.662          estimate D2E/DX2                !
 ! A39   A(2,13,27)            119.4537         estimate D2E/DX2                !
 ! A40   A(14,13,27)           118.8768         estimate D2E/DX2                !
 ! A41   A(13,14,15)           120.3356         estimate D2E/DX2                !
 ! A42   A(13,14,37)           121.4484         estimate D2E/DX2                !
 ! A43   A(15,14,37)           118.2024         estimate D2E/DX2                !
 ! A44   A(14,15,16)           120.4348         estimate D2E/DX2                !
 ! A45   A(14,15,38)           119.888          estimate D2E/DX2                !
 ! A46   A(16,15,38)           119.6749         estimate D2E/DX2                !
 ! A47   A(15,16,17)           120.2611         estimate D2E/DX2                !
 ! A48   A(15,16,26)           119.4547         estimate D2E/DX2                !
 ! A49   A(17,16,26)           120.283          estimate D2E/DX2                !
 ! A50   A(16,17,18)           124.2314         estimate D2E/DX2                !
 ! A51   A(16,17,25)           124.2707         estimate D2E/DX2                !
 ! A52   A(18,17,25)           111.4979         estimate D2E/DX2                !
 ! A53   A(17,18,19)           107.2887         estimate D2E/DX2                !
 ! A54   A(18,19,20)           107.016          estimate D2E/DX2                !
 ! A55   A(18,19,21)           105.5857         estimate D2E/DX2                !
 ! A56   A(18,19,22)           101.6297         estimate D2E/DX2                !
 ! A57   A(20,19,21)           110.4663         estimate D2E/DX2                !
 ! A58   A(20,19,22)           115.2817         estimate D2E/DX2                !
 ! A59   A(21,19,22)           115.6036         estimate D2E/DX2                !
 ! A60   A(19,20,39)           112.0977         estimate D2E/DX2                !
 ! A61   A(19,20,40)           111.04           estimate D2E/DX2                !
 ! A62   A(19,20,41)           111.3326         estimate D2E/DX2                !
 ! A63   A(39,20,40)           107.7897         estimate D2E/DX2                !
 ! A64   A(39,20,41)           106.5679         estimate D2E/DX2                !
 ! A65   A(40,20,41)           107.7811         estimate D2E/DX2                !
 ! A66   A(19,21,42)           111.2847         estimate D2E/DX2                !
 ! A67   A(19,21,43)           111.8111         estimate D2E/DX2                !
 ! A68   A(19,21,44)           111.4342         estimate D2E/DX2                !
 ! A69   A(42,21,43)           107.6723         estimate D2E/DX2                !
 ! A70   A(42,21,44)           107.4208         estimate D2E/DX2                !
 ! A71   A(43,21,44)           106.9798         estimate D2E/DX2                !
 ! A72   A(19,22,23)           115.6336         estimate D2E/DX2                !
 ! A73   A(19,22,24)           115.3139         estimate D2E/DX2                !
 ! A74   A(19,22,25)           101.5505         estimate D2E/DX2                !
 ! A75   A(23,22,24)           110.4538         estimate D2E/DX2                !
 ! A76   A(23,22,25)           105.6134         estimate D2E/DX2                !
 ! A77   A(24,22,25)           107.0089         estimate D2E/DX2                !
 ! A78   A(22,23,45)           111.3095         estimate D2E/DX2                !
 ! A79   A(22,23,46)           111.835          estimate D2E/DX2                !
 ! A80   A(22,23,47)           111.4167         estimate D2E/DX2                !
 ! A81   A(45,23,46)           107.6859         estimate D2E/DX2                !
 ! A82   A(45,23,47)           107.417          estimate D2E/DX2                !
 ! A83   A(46,23,47)           106.9361         estimate D2E/DX2                !
 ! A84   A(22,24,48)           111.0577         estimate D2E/DX2                !
 ! A85   A(22,24,49)           111.3016         estimate D2E/DX2                !
 ! A86   A(22,24,50)           112.1143         estimate D2E/DX2                !
 ! A87   A(48,24,49)           107.779          estimate D2E/DX2                !
 ! A88   A(48,24,50)           107.8114         estimate D2E/DX2                !
 ! A89   A(49,24,50)           106.5444         estimate D2E/DX2                !
 ! A90   A(17,25,22)           107.2851         estimate D2E/DX2                !
 ! A91   A(16,26,27)           120.3452         estimate D2E/DX2                !
 ! A92   A(16,26,51)           119.9611         estimate D2E/DX2                !
 ! A93   A(27,26,51)           119.6931         estimate D2E/DX2                !
 ! A94   A(13,27,26)           120.5438         estimate D2E/DX2                !
 ! A95   A(13,27,52)           120.3302         estimate D2E/DX2                !
 ! A96   A(26,27,52)           119.1259         estimate D2E/DX2                !
 ! D1    D(1,2,3,4)             -2.2654         estimate D2E/DX2                !
 ! D2    D(1,2,3,28)           170.5901         estimate D2E/DX2                !
 ! D3    D(13,2,3,4)          -179.7373         estimate D2E/DX2                !
 ! D4    D(13,2,3,28)           -6.8818         estimate D2E/DX2                !
 ! D5    D(1,2,13,14)          150.8161         estimate D2E/DX2                !
 ! D6    D(1,2,13,27)          -28.1742         estimate D2E/DX2                !
 ! D7    D(3,2,13,14)          -31.5853         estimate D2E/DX2                !
 ! D8    D(3,2,13,27)          149.4244         estimate D2E/DX2                !
 ! D9    D(2,3,4,5)            -21.7683         estimate D2E/DX2                !
 ! D10   D(2,3,4,12)           160.4146         estimate D2E/DX2                !
 ! D11   D(28,3,4,5)           165.4454         estimate D2E/DX2                !
 ! D12   D(28,3,4,12)          -12.3717         estimate D2E/DX2                !
 ! D13   D(3,4,5,6)           -178.7579         estimate D2E/DX2                !
 ! D14   D(12,4,5,6)            -1.053          estimate D2E/DX2                !
 ! D15   D(3,4,12,8)           178.745          estimate D2E/DX2                !
 ! D16   D(3,4,12,36)           -1.7097         estimate D2E/DX2                !
 ! D17   D(5,4,12,8)             0.9368         estimate D2E/DX2                !
 ! D18   D(5,4,12,36)         -179.5179         estimate D2E/DX2                !
 ! D19   D(4,5,6,7)              0.5923         estimate D2E/DX2                !
 ! D20   D(4,5,6,29)          -179.3876         estimate D2E/DX2                !
 ! D21   D(5,6,7,8)             -0.0193         estimate D2E/DX2                !
 ! D22   D(5,6,7,30)          -179.991          estimate D2E/DX2                !
 ! D23   D(29,6,7,8)           179.9595         estimate D2E/DX2                !
 ! D24   D(29,6,7,30)           -0.0122         estimate D2E/DX2                !
 ! D25   D(6,7,8,9)            179.9367         estimate D2E/DX2                !
 ! D26   D(6,7,8,12)            -0.1063         estimate D2E/DX2                !
 ! D27   D(30,7,8,9)            -0.0919         estimate D2E/DX2                !
 ! D28   D(30,7,8,12)          179.8652         estimate D2E/DX2                !
 ! D29   D(7,8,9,10)           -36.3906         estimate D2E/DX2                !
 ! D30   D(7,8,9,11)            36.3759         estimate D2E/DX2                !
 ! D31   D(7,8,9,31)           179.9164         estimate D2E/DX2                !
 ! D32   D(12,8,9,10)          143.6527         estimate D2E/DX2                !
 ! D33   D(12,8,9,11)         -143.5807         estimate D2E/DX2                !
 ! D34   D(12,8,9,31)           -0.0402         estimate D2E/DX2                !
 ! D35   D(7,8,12,4)            -0.3338         estimate D2E/DX2                !
 ! D36   D(7,8,12,36)         -179.8833         estimate D2E/DX2                !
 ! D37   D(9,8,12,4)           179.624          estimate D2E/DX2                !
 ! D38   D(9,8,12,36)            0.0745         estimate D2E/DX2                !
 ! D39   D(8,9,10,32)            2.0171         estimate D2E/DX2                !
 ! D40   D(8,9,10,33)         -138.9993         estimate D2E/DX2                !
 ! D41   D(31,9,10,32)         144.9548         estimate D2E/DX2                !
 ! D42   D(31,9,10,33)           3.9384         estimate D2E/DX2                !
 ! D43   D(8,9,11,34)          138.9162         estimate D2E/DX2                !
 ! D44   D(8,9,11,35)           -1.9727         estimate D2E/DX2                !
 ! D45   D(31,9,11,34)          -3.8882         estimate D2E/DX2                !
 ! D46   D(31,9,11,35)        -144.7771         estimate D2E/DX2                !
 ! D47   D(32,10,11,34)       -144.3148         estimate D2E/DX2                !
 ! D48   D(32,10,11,35)          0.0458         estimate D2E/DX2                !
 ! D49   D(33,10,11,34)         -0.0413         estimate D2E/DX2                !
 ! D50   D(33,10,11,35)        144.3193         estimate D2E/DX2                !
 ! D51   D(2,13,14,15)        -179.9943         estimate D2E/DX2                !
 ! D52   D(2,13,14,37)          -1.3612         estimate D2E/DX2                !
 ! D53   D(27,13,14,15)         -0.9983         estimate D2E/DX2                !
 ! D54   D(27,13,14,37)        177.6348         estimate D2E/DX2                !
 ! D55   D(2,13,27,26)        -179.9259         estimate D2E/DX2                !
 ! D56   D(2,13,27,52)           0.114          estimate D2E/DX2                !
 ! D57   D(14,13,27,26)          1.0555         estimate D2E/DX2                !
 ! D58   D(14,13,27,52)       -178.9046         estimate D2E/DX2                !
 ! D59   D(13,14,15,16)          0.2959         estimate D2E/DX2                !
 ! D60   D(13,14,15,38)        179.7505         estimate D2E/DX2                !
 ! D61   D(37,14,15,16)       -178.3809         estimate D2E/DX2                !
 ! D62   D(37,14,15,38)          1.0737         estimate D2E/DX2                !
 ! D63   D(14,15,16,17)        179.9814         estimate D2E/DX2                !
 ! D64   D(14,15,16,26)          0.3642         estimate D2E/DX2                !
 ! D65   D(38,15,16,17)          0.5257         estimate D2E/DX2                !
 ! D66   D(38,15,16,26)       -179.0915         estimate D2E/DX2                !
 ! D67   D(15,16,17,18)          0.2473         estimate D2E/DX2                !
 ! D68   D(15,16,17,25)       -179.7577         estimate D2E/DX2                !
 ! D69   D(26,16,17,18)        179.8613         estimate D2E/DX2                !
 ! D70   D(26,16,17,25)         -0.1437         estimate D2E/DX2                !
 ! D71   D(15,16,26,27)         -0.3088         estimate D2E/DX2                !
 ! D72   D(15,16,26,51)        179.425          estimate D2E/DX2                !
 ! D73   D(17,16,26,27)       -179.9259         estimate D2E/DX2                !
 ! D74   D(17,16,26,51)         -0.1921         estimate D2E/DX2                !
 ! D75   D(16,17,18,19)        169.0249         estimate D2E/DX2                !
 ! D76   D(25,17,18,19)        -10.9707         estimate D2E/DX2                !
 ! D77   D(16,17,25,22)        168.2531         estimate D2E/DX2                !
 ! D78   D(18,17,25,22)        -11.7513         estimate D2E/DX2                !
 ! D79   D(17,18,19,20)        147.493          estimate D2E/DX2                !
 ! D80   D(17,18,19,21)        -94.7975         estimate D2E/DX2                !
 ! D81   D(17,18,19,22)         26.23           estimate D2E/DX2                !
 ! D82   D(18,19,20,39)        -54.2701         estimate D2E/DX2                !
 ! D83   D(18,19,20,40)       -174.8992         estimate D2E/DX2                !
 ! D84   D(18,19,20,41)         65.0021         estimate D2E/DX2                !
 ! D85   D(21,19,20,39)       -168.7345         estimate D2E/DX2                !
 ! D86   D(21,19,20,40)         70.6364         estimate D2E/DX2                !
 ! D87   D(21,19,20,41)        -49.4622         estimate D2E/DX2                !
 ! D88   D(22,19,20,39)         57.9205         estimate D2E/DX2                !
 ! D89   D(22,19,20,40)        -62.7086         estimate D2E/DX2                !
 ! D90   D(22,19,20,41)        177.1928         estimate D2E/DX2                !
 ! D91   D(18,19,21,42)       -177.6504         estimate D2E/DX2                !
 ! D92   D(18,19,21,43)         61.8972         estimate D2E/DX2                !
 ! D93   D(18,19,21,44)        -57.7749         estimate D2E/DX2                !
 ! D94   D(20,19,21,42)        -62.2855         estimate D2E/DX2                !
 ! D95   D(20,19,21,43)        177.2621         estimate D2E/DX2                !
 ! D96   D(20,19,21,44)         57.5901         estimate D2E/DX2                !
 ! D97   D(22,19,21,42)         70.8968         estimate D2E/DX2                !
 ! D98   D(22,19,21,43)        -49.5556         estimate D2E/DX2                !
 ! D99   D(22,19,21,44)       -169.2277         estimate D2E/DX2                !
 ! D100  D(18,19,22,23)         81.4826         estimate D2E/DX2                !
 ! D101  D(18,19,22,24)       -147.5422         estimate D2E/DX2                !
 ! D102  D(18,19,22,25)        -32.2683         estimate D2E/DX2                !
 ! D103  D(20,19,22,23)        -33.8345         estimate D2E/DX2                !
 ! D104  D(20,19,22,24)         97.1407         estimate D2E/DX2                !
 ! D105  D(20,19,22,25)       -147.5854         estimate D2E/DX2                !
 ! D106  D(21,19,22,23)       -164.7638         estimate D2E/DX2                !
 ! D107  D(21,19,22,24)        -33.7887         estimate D2E/DX2                !
 ! D108  D(21,19,22,25)         81.4852         estimate D2E/DX2                !
 ! D109  D(19,22,23,45)         70.9913         estimate D2E/DX2                !
 ! D110  D(19,22,23,46)        -49.5123         estimate D2E/DX2                !
 ! D111  D(19,22,23,47)       -169.1329         estimate D2E/DX2                !
 ! D112  D(24,22,23,45)        -62.2544         estimate D2E/DX2                !
 ! D113  D(24,22,23,46)        177.242          estimate D2E/DX2                !
 ! D114  D(24,22,23,47)         57.6214         estimate D2E/DX2                !
 ! D115  D(25,22,23,45)       -177.62           estimate D2E/DX2                !
 ! D116  D(25,22,23,46)         61.8764         estimate D2E/DX2                !
 ! D117  D(25,22,23,47)        -57.7442         estimate D2E/DX2                !
 ! D118  D(19,22,24,48)        -62.7983         estimate D2E/DX2                !
 ! D119  D(19,22,24,49)        177.1147         estimate D2E/DX2                !
 ! D120  D(19,22,24,50)         57.8825         estimate D2E/DX2                !
 ! D121  D(23,22,24,48)         70.6089         estimate D2E/DX2                !
 ! D122  D(23,22,24,49)        -49.4781         estimate D2E/DX2                !
 ! D123  D(23,22,24,50)       -168.7103         estimate D2E/DX2                !
 ! D124  D(25,22,24,48)       -174.9042         estimate D2E/DX2                !
 ! D125  D(25,22,24,49)         65.0088         estimate D2E/DX2                !
 ! D126  D(25,22,24,50)        -54.2234         estimate D2E/DX2                !
 ! D127  D(19,22,25,17)         26.6729         estimate D2E/DX2                !
 ! D128  D(23,22,25,17)        -94.3638         estimate D2E/DX2                !
 ! D129  D(24,22,25,17)        147.931          estimate D2E/DX2                !
 ! D130  D(16,26,27,13)         -0.4091         estimate D2E/DX2                !
 ! D131  D(16,26,27,52)        179.5515         estimate D2E/DX2                !
 ! D132  D(51,26,27,13)        179.8564         estimate D2E/DX2                !
 ! D133  D(51,26,27,52)         -0.1831         estimate D2E/DX2                !
 --------------------------------------------------------------------------------
 Trust Radius=3.00D-01 FncErr=1.00D-07 GrdErr=1.00D-06 EigMax=2.50D+02 EigMin=1.00D-04
 Number of steps in this run=    294 maximum allowed number of steps=    312.
 GradGradGradGradGradGradGradGradGradGradGradGradGradGradGradGradGradGrad

 Stoichiometry    C21H25BN2O3
 Framework group  C1[X(C21H25BN2O3)]
 Deg. of freedom   150
 Full point group                 C1      NOp   1
 Largest Abelian subgroup         C1      NOp   1
 Largest concise Abelian subgroup C1      NOp   1
                         Standard orientation:                         
 ---------------------------------------------------------------------
 Center     Atomic      Atomic             Coordinates (Angstroms)
 Number     Number       Type             X           Y           Z
 ---------------------------------------------------------------------
      1          8           0       -2.060472   -2.706593    0.120008
      2          6           0       -1.756719   -1.523719   -0.032471
      3          7           0       -2.638289   -0.512259   -0.155479
      4          6           0       -4.037039   -0.566059   -0.183073
      5          7           0       -4.697115   -1.708750   -0.516157
      6          6           0       -6.051473   -1.687222   -0.548634
      7          6           0       -6.793934   -0.540391   -0.266767
      8          6           0       -6.116001    0.638511    0.064016
      9          6           0       -6.867298    1.927098    0.381597
     10          6           0       -8.140881    2.325105   -0.334641
     11          6           0       -8.184077    1.938682    1.129270
     12          6           0       -4.717347    0.622098    0.101857
     13          6           0       -0.302722   -1.104620   -0.034152
     14          6           0        0.142014    0.012445   -0.761200
     15          6           0        1.487112    0.373422   -0.743264
     16          6           0        2.409709   -0.372950   -0.008560
     17          5           0        3.937761    0.040813    0.008580
     18          8           0        4.454421    1.124523   -0.665732
     19          6           0        5.780455    1.312948   -0.206217
     20          6           0        6.595283    1.864816   -1.393351
     21          6           0        5.683672    2.369881    0.922316
     22          6           0        6.165665   -0.140331    0.254973
     23          6           0        6.620453   -1.102360   -0.870999
     24          6           0        7.133582   -0.217083    1.452930
     25          8           0        4.916699   -0.637139    0.699227
     26          6           0        1.975397   -1.491577    0.704258
     27          6           0        0.632228   -1.857495    0.688845
     28          1           0       -2.234668    0.403806   -0.124863
     29          1           0       -6.534206   -2.618596   -0.807783
     30          1           0       -7.871960   -0.570278   -0.304880
     31          1           0       -6.197011    2.754979    0.621132
     32          1           0       -8.554770    1.649038   -1.084219
     33          1           0       -8.270777    3.371214   -0.615805
     34          1           0       -8.343774    2.711453    1.882712
     35          1           0       -8.627981    0.986725    1.424611
     36          1           0       -4.176448    1.520206    0.356561
     37          1           0       -0.536553    0.599991   -1.363362
     38          1           0        1.822124    1.231980   -1.308632
     39          1           0        6.517151    1.228853   -2.275312
     40          1           0        7.650991    1.950460   -1.137106
     41          1           0        6.243479    2.853316   -1.690602
     42          1           0        6.668339    2.617194    1.318148
     43          1           0        5.070827    2.019797    1.753981
     44          1           0        5.233970    3.296387    0.563179
     45          1           0        7.602276   -0.826703   -1.254776
     46          1           0        5.924286   -1.101913   -1.710804
     47          1           0        6.686546   -2.130669   -0.513664
     48          1           0        8.095035    0.233895    1.208958
     49          1           0        7.316143   -1.250559    1.749136
     50          1           0        6.739613    0.292841    2.332142
     51          1           0        2.684535   -2.080961    1.268526
     52          1           0        0.318207   -2.732996    1.242856
 ---------------------------------------------------------------------
 Rotational constants (GHZ):           0.5424471           0.0521071           0.0492238
 Standard basis: 6-31G(d,p) (6D, 7F)
 There are   530 symmetry adapted cartesian basis functions of A   symmetry.
 There are   530 symmetry adapted basis functions of A   symmetry.
   530 basis functions,   931 primitive gaussians,   530 cartesian basis functions
    97 alpha electrons       97 beta electrons
       nuclear repulsion energy      2216.9062592787 Hartrees.
 NAtoms=   52 NActive=   52 NUniq=   52 SFac= 1.00D+00 NAtFMM=   60 NAOKFM=F Big=F
 Integral buffers will be    131072 words long.
 Raffenetti 2 integral format.
 Two-electron integral symmetry is turned on.
 Nuclear repulsion after empirical dispersion term =     2216.8002720804 Hartrees.
 One-electron integrals computed using PRISM.
 NBasis=   530 RedAO= T EigKep=  4.38D-04  NBF=   530
 NBsUse=   530 1.00D-06 EigRej= -1.00D+00 NBFU=   530
 ExpMin= 1.27D-01 ExpMax= 5.48D+03 ExpMxC= 8.25D+02 IAcc=3 IRadAn=         5 AccDes= 0.00D+00
 Harris functional with IExCor=  402 and IRadAn=       5 diagonalized for initial guess.
 HarFok:  IExCor=  402 AccDes= 0.00D+00 IRadAn=         5 IDoV= 1 UseB2=F ITyADJ=14
 ICtDFT=  3500011 ScaDFX=  1.000000  1.000000  1.000000  1.000000
 FoFCou: FMM=F IPFlag=           0 FMFlag=      100000 FMFlg1=           0
         NFxFlg=           0 DoJE=T BraDBF=F KetDBF=T FulRan=T
         wScrn=  0.000000 ICntrl=       500 IOpCl=  0 I1Cent=   200000004 NGrid=           0
         NMat0=    1 NMatS0=      1 NMatT0=    0 NMatD0=    1 NMtDS0=    0 NMtDT0=    0
 Petite list used in FoFCou.
 Requested convergence on RMS density matrix=1.00D-08 within 128 cycles.
 Requested convergence on MAX density matrix=1.00D-06.
 Requested convergence on             energy=1.00D-06.
 No special actions if energy rises.
 Integral accuracy reduced to 1.0D-05 until final iterations.
 Initial convergence to 1.0D-05 achieved.  Increase integral accuracy.
 SCF Done:  E(RB3LYP) =  -1175.56458677     A.U. after   15 cycles
            NFock= 15  Conv=0.54D-08     -V/T= 2.0096

 **********************************************************************

            Population analysis using the SCF Density.

 **********************************************************************

 Orbital symmetries:
       Occupied  (A) (A) (A) (A) (A) (A) (A) (A) (A) (A) (A) (A)
                 (A) (A) (A) (A) (A) (A) (A) (A) (A) (A) (A) (A)
                 (A) (A) (A) (A) (A) (A) (A) (A) (A) (A) (A) (A)
                 (A) (A) (A) (A) (A) (A) (A) (A) (A) (A) (A) (A)
                 (A) (A) (A) (A) (A) (A) (A) (A) (A) (A) (A) (A)
                 (A) (A) (A) (A) (A) (A) (A) (A) (A) (A) (A) (A)
                 (A) (A) (A) (A) (A) (A) (A) (A) (A) (A) (A) (A)
                 (A) (A) (A) (A) (A) (A) (A) (A) (A) (A) (A) (A)
                 (A)
       Virtual   (A) (A) (A) (A) (A) (A) (A) (A) (A) (A) (A) (A)
                 (A) (A) (A) (A) (A) (A) (A) (A) (A) (A) (A) (A)
                 (A) (A) (A) (A) (A) (A) (A) (A) (A) (A) (A) (A)
                 (A) (A) (A) (A) (A) (A) (A) (A) (A) (A) (A) (A)
                 (A) (A) (A) (A) (A) (A) (A) (A) (A) (A) (A) (A)
                 (A) (A) (A) (A) (A) (A) (A) (A) (A) (A) (A) (A)
                 (A) (A) (A) (A) (A) (A) (A) (A) (A) (A) (A) (A)
                 (A) (A) (A) (A) (A) (A) (A) (A) (A) (A) (A) (A)
                 (A) (A) (A) (A) (A) (A) (A) (A) (A) (A) (A) (A)
                 (A) (A) (A) (A) (A) (A) (A) (A) (A) (A) (A) (A)
                 (A) (A) (A) (A) (A) (A) (A) (A) (A) (A) (A) (A)
                 (A) (A) (A) (A) (A) (A) (A) (A) (A) (A) (A) (A)
                 (A) (A) (A) (A) (A) (A) (A) (A) (A) (A) (A) (A)
                 (A) (A) (A) (A) (A) (A) (A) (A) (A) (A) (A) (A)
                 (A) (A) (A) (A) (A) (A) (A) (A) (A) (A) (A) (A)
                 (A) (A) (A) (A) (A) (A) (A) (A) (A) (A) (A) (A)
                 (A) (A) (A) (A) (A) (A) (A) (A) (A) (A) (A) (A)
                 (A) (A) (A) (A) (A) (A) (A) (A) (A) (A) (A) (A)
                 (A) (A) (A) (A) (A) (A) (A) (A) (A) (A) (A) (A)
                 (A) (A) (A) (A) (A) (A) (A) (A) (A) (A) (A) (A)
                 (A) (A) (A) (A) (A) (A) (A) (A) (A) (A) (A) (A)
                 (A) (A) (A) (A) (A) (A) (A) (A) (A) (A) (A) (A)
                 (A) (A) (A) (A) (A) (A) (A) (A) (A) (A) (A) (A)
                 (A) (A) (A) (A) (A) (A) (A) (A) (A) (A) (A) (A)
                 (A) (A) (A) (A) (A) (A) (A) (A) (A) (A) (A) (A)
                 (A) (A) (A) (A) (A) (A) (A) (A) (A) (A) (A) (A)
                 (A) (A) (A) (A) (A) (A) (A) (A) (A) (A) (A) (A)
                 (A) (A) (A) (A) (A) (A) (A) (A) (A) (A) (A) (A)
                 (A) (A) (A) (A) (A) (A) (A) (A) (A) (A) (A) (A)
                 (A) (A) (A) (A) (A) (A) (A) (A) (A) (A) (A) (A)
                 (A) (A) (A) (A) (A) (A) (A) (A) (A) (A) (A) (A)
                 (A) (A) (A) (A) (A) (A) (A) (A) (A) (A) (A) (A)
                 (A) (A) (A) (A) (A) (A) (A) (A) (A) (A) (A) (A)
                 (A) (A) (A) (A) (A) (A) (A) (A) (A) (A) (A) (A)
                 (A) (A) (A) (A) (A) (A) (A) (A) (A) (A) (A) (A)
                 (A) (A) (A) (A) (A) (A) (A) (A) (A) (A) (A) (A)
                 (A)
 The electronic state is 1-A.
 Alpha  occ. eigenvalues --  -19.15110 -19.15065 -19.10375 -14.37572 -14.32164
 Alpha  occ. eigenvalues --  -10.28441 -10.26757 -10.25434 -10.25398 -10.22213
 Alpha  occ. eigenvalues --  -10.21828 -10.21159 -10.20320 -10.20162 -10.20132
 Alpha  occ. eigenvalues --  -10.19738 -10.19709 -10.19225 -10.19000 -10.18981
 Alpha  occ. eigenvalues --  -10.18920 -10.18183 -10.18168 -10.18120 -10.18076
 Alpha  occ. eigenvalues --  -10.17640  -6.77882  -1.07437  -1.02747  -1.00247
 Alpha  occ. eigenvalues --   -0.95830  -0.90957  -0.86895  -0.85519  -0.79979
 Alpha  occ. eigenvalues --   -0.79676  -0.77101  -0.75080  -0.74629  -0.74412
 Alpha  occ. eigenvalues --   -0.70814  -0.68581  -0.67102  -0.64287  -0.62982
 Alpha  occ. eigenvalues --   -0.61929  -0.61077  -0.60826  -0.59183  -0.56659
 Alpha  occ. eigenvalues --   -0.56065  -0.54682  -0.54062  -0.51878  -0.50070
 Alpha  occ. eigenvalues --   -0.49560  -0.47977  -0.47417  -0.46462  -0.45775
 Alpha  occ. eigenvalues --   -0.45562  -0.45159  -0.44674  -0.44041  -0.43627
 Alpha  occ. eigenvalues --   -0.43441  -0.42248  -0.41905  -0.40659  -0.40207
 Alpha  occ. eigenvalues --   -0.40045  -0.40011  -0.38955  -0.38788  -0.38115
 Alpha  occ. eigenvalues --   -0.37930  -0.37817  -0.37253  -0.36904  -0.36276
 Alpha  occ. eigenvalues --   -0.35977  -0.35917  -0.34508  -0.33382  -0.33189
 Alpha  occ. eigenvalues --   -0.32693  -0.32507  -0.31050  -0.30548  -0.29914
 Alpha  occ. eigenvalues --   -0.27104  -0.26442  -0.25765  -0.25436  -0.24876
 Alpha  occ. eigenvalues --   -0.22892  -0.22528
 Alpha virt. eigenvalues --   -0.04674  -0.01850  -0.00656  -0.00453   0.04867
 Alpha virt. eigenvalues --    0.07293   0.07597   0.08626   0.09666   0.09788
 Alpha virt. eigenvalues --    0.10677   0.12147   0.12456   0.12826   0.13064
 Alpha virt. eigenvalues --    0.13395   0.13448   0.14039   0.14468   0.14708
 Alpha virt. eigenvalues --    0.15185   0.15365   0.15679   0.15884   0.17097
 Alpha virt. eigenvalues --    0.17464   0.17803   0.18307   0.18631   0.19040
 Alpha virt. eigenvalues --    0.19458   0.19619   0.19949   0.20907   0.21714
 Alpha virt. eigenvalues --    0.21838   0.21846   0.22061   0.22719   0.22888
 Alpha virt. eigenvalues --    0.24325   0.24450   0.25724   0.26243   0.27096
 Alpha virt. eigenvalues --    0.28688   0.28835   0.29800   0.31008   0.31850
 Alpha virt. eigenvalues --    0.32324   0.32711   0.33268   0.34636   0.35757
 Alpha virt. eigenvalues --    0.37615   0.38538   0.39759   0.43914   0.44253
 Alpha virt. eigenvalues --    0.45643   0.46211   0.46396   0.48191   0.49215
 Alpha virt. eigenvalues --    0.49879   0.50983   0.51372   0.52242   0.52495
 Alpha virt. eigenvalues --    0.53740   0.54151   0.55060   0.55303   0.55933
 Alpha virt. eigenvalues --    0.56014   0.56926   0.56961   0.57588   0.57752
 Alpha virt. eigenvalues --    0.57978   0.58228   0.58609   0.58915   0.59153
 Alpha virt. eigenvalues --    0.59533   0.59790   0.60190   0.60738   0.60992
 Alpha virt. eigenvalues --    0.61792   0.62359   0.63274   0.63794   0.64035
 Alpha virt. eigenvalues --    0.64117   0.64989   0.65936   0.66679   0.67054
 Alpha virt. eigenvalues --    0.67526   0.69173   0.70360   0.70726   0.70858
 Alpha virt. eigenvalues --    0.71577   0.72100   0.72570   0.73544   0.73650
 Alpha virt. eigenvalues --    0.75406   0.75907   0.77782   0.78585   0.78932
 Alpha virt. eigenvalues --    0.79633   0.80091   0.80444   0.80670   0.81624
 Alpha virt. eigenvalues --    0.82074   0.82661   0.83183   0.83958   0.84141
 Alpha virt. eigenvalues --    0.84572   0.85246   0.85324   0.85767   0.87336
 Alpha virt. eigenvalues --    0.87664   0.87677   0.87858   0.88426   0.88701
 Alpha virt. eigenvalues --    0.88989   0.89233   0.89359   0.90253   0.91442
 Alpha virt. eigenvalues --    0.92224   0.92856   0.93029   0.93203   0.93716
 Alpha virt. eigenvalues --    0.94705   0.94739   0.95334   0.96059   0.97633
 Alpha virt. eigenvalues --    0.98301   0.98684   0.98940   1.01398   1.01628
 Alpha virt. eigenvalues --    1.02446   1.02669   1.03722   1.05503   1.07054
 Alpha virt. eigenvalues --    1.07858   1.09931   1.10595   1.11767   1.13837
 Alpha virt. eigenvalues --    1.14546   1.15898   1.16653   1.17449   1.18475
 Alpha virt. eigenvalues --    1.19723   1.20047   1.20689   1.21799   1.22378
 Alpha virt. eigenvalues --    1.24585   1.25515   1.27004   1.28029   1.29027
 Alpha virt. eigenvalues --    1.29645   1.31474   1.32081   1.33888   1.34395
 Alpha virt. eigenvalues --    1.34922   1.36301   1.36880   1.37923   1.39503
 Alpha virt. eigenvalues --    1.40055   1.40482   1.41004   1.41093   1.42742
 Alpha virt. eigenvalues --    1.44139   1.44597   1.45445   1.46176   1.46690
 Alpha virt. eigenvalues --    1.48144   1.49181   1.49941   1.52086   1.53130
 Alpha virt. eigenvalues --    1.56300   1.56628   1.58195   1.58660   1.60608
 Alpha virt. eigenvalues --    1.61014   1.65358   1.65530   1.66832   1.68199
 Alpha virt. eigenvalues --    1.69289   1.69477   1.71257   1.72119   1.72386
 Alpha virt. eigenvalues --    1.73562   1.74958   1.75915   1.76861   1.76909
 Alpha virt. eigenvalues --    1.77656   1.78621   1.79637   1.80502   1.81677
 Alpha virt. eigenvalues --    1.82542   1.82951   1.84832   1.85420   1.86036
 Alpha virt. eigenvalues --    1.87245   1.87740   1.88612   1.89363   1.90374
 Alpha virt. eigenvalues --    1.91296   1.91619   1.92772   1.92882   1.93509
 Alpha virt. eigenvalues --    1.94074   1.95193   1.95590   1.96125   1.96684
 Alpha virt. eigenvalues --    1.97596   2.00464   2.01092   2.01660   2.03346
 Alpha virt. eigenvalues --    2.03872   2.03954   2.04776   2.05683   2.05973
 Alpha virt. eigenvalues --    2.06220   2.07135   2.07385   2.08533   2.09042
 Alpha virt. eigenvalues --    2.09330   2.09497   2.10124   2.11011   2.11336
 Alpha virt. eigenvalues --    2.11482   2.11737   2.13800   2.14100   2.14698
 Alpha virt. eigenvalues --    2.15134   2.15379   2.16144   2.17685   2.18690
 Alpha virt. eigenvalues --    2.18983   2.20678   2.21524   2.22887   2.23623
 Alpha virt. eigenvalues --    2.24495   2.25278   2.25286   2.25354   2.25631
 Alpha virt. eigenvalues --    2.27019   2.28334   2.28937   2.29996   2.31107
 Alpha virt. eigenvalues --    2.31461   2.32419   2.33285   2.33743   2.35931
 Alpha virt. eigenvalues --    2.36388   2.36614   2.37501   2.37656   2.39051
 Alpha virt. eigenvalues --    2.40665   2.41060   2.41466   2.42529   2.42973
 Alpha virt. eigenvalues --    2.43550   2.44924   2.45560   2.46457   2.47678
 Alpha virt. eigenvalues --    2.48381   2.48643   2.50036   2.50158   2.51090
 Alpha virt. eigenvalues --    2.52457   2.53097   2.54317   2.56107   2.57147
 Alpha virt. eigenvalues --    2.57959   2.58827   2.59190   2.59939   2.61121
 Alpha virt. eigenvalues --    2.62197   2.63139   2.63892   2.65838   2.66383
 Alpha virt. eigenvalues --    2.67329   2.67555   2.68219   2.68544   2.69075
 Alpha virt. eigenvalues --    2.71266   2.72604   2.73747   2.74631   2.74785
 Alpha virt. eigenvalues --    2.75167   2.75905   2.76407   2.77690   2.78151
 Alpha virt. eigenvalues --    2.79200   2.79671   2.82134   2.83028   2.83786
 Alpha virt. eigenvalues --    2.84408   2.84959   2.85989   2.86913   2.87974
 Alpha virt. eigenvalues --    2.88230   2.90497   2.91224   2.91769   2.93306
 Alpha virt. eigenvalues --    2.95615   2.97536   2.98172   2.99926   3.00547
 Alpha virt. eigenvalues --    3.01438   3.03185   3.06570   3.08722   3.10563
 Alpha virt. eigenvalues --    3.15477   3.16834   3.19182   3.19347   3.21266
 Alpha virt. eigenvalues --    3.21694   3.22602   3.23785   3.25165   3.26319
 Alpha virt. eigenvalues --    3.27026   3.29991   3.33353   3.35219   3.37131
 Alpha virt. eigenvalues --    3.38229   3.42544   3.42641   3.44665   3.44755
 Alpha virt. eigenvalues --    3.45952   3.47341   3.48405   3.49272   3.50296
 Alpha virt. eigenvalues --    3.51299   3.52245   3.57447   3.58359   3.71868
 Alpha virt. eigenvalues --    3.77269   3.83574   4.08380   4.10334   4.15170
 Alpha virt. eigenvalues --    4.15636   4.16343   4.19055   4.22340   4.26154
 Alpha virt. eigenvalues --    4.30735   4.30933   4.31885   4.36028   4.37357
 Alpha virt. eigenvalues --    4.43672   4.44506   4.48082   4.49500   4.53229
 Alpha virt. eigenvalues --    4.54875   4.56018   4.61404   4.65566   4.67978
 Alpha virt. eigenvalues --    4.78181   4.84140   4.85798
          Condensed to atoms (all electrons):
 Mulliken charges:
               1
     1  O   -0.482775
     2  C    0.553903
     3  N   -0.599892
     4  C    0.512725
     5  N   -0.469189
     6  C    0.095418
     7  C   -0.166311
     8  C    0.213706
     9  C   -0.156597
    10  C   -0.217151
    11  C   -0.216483
    12  C   -0.194273
    13  C    0.021160
    14  C   -0.125781
    15  C   -0.137661
    16  C    0.026055
    17  B    0.480703
    18  O   -0.473784
    19  C    0.247199
    20  C   -0.325780
    21  C   -0.319029
    22  C    0.246464
    23  C   -0.319451
    24  C   -0.325968
    25  O   -0.472126
    26  C   -0.137401
    27  C   -0.090511
    28  H    0.265094
    29  H    0.105579
    30  H    0.083454
    31  H    0.095458
    32  H    0.119884
    33  H    0.117428
    34  H    0.117867
    35  H    0.120535
    36  H    0.077667
    37  H    0.084116
    38  H    0.099106
    39  H    0.115903
    40  H    0.102036
    41  H    0.113005
    42  H    0.102287
    43  H    0.113613
    44  H    0.116266
    45  H    0.101848
    46  H    0.114504
    47  H    0.118886
    48  H    0.101714
    49  H    0.114815
    50  H    0.115060
    51  H    0.103160
    52  H    0.113543
 Sum of Mulliken charges =  -0.00000
 Mulliken charges with hydrogens summed into heavy atoms:
               1
     1  O   -0.482775
     2  C    0.553903
     3  N   -0.334798
     4  C    0.512725
     5  N   -0.469189
     6  C    0.200997
     7  C   -0.082857
     8  C    0.213706
     9  C   -0.061139
    10  C    0.020162
    11  C    0.021918
    12  C   -0.116606
    13  C    0.021160
    14  C   -0.041664
    15  C   -0.038554
    16  C    0.026055
    17  B    0.480703
    18  O   -0.473784
    19  C    0.247199
    20  C    0.005165
    21  C    0.013137
    22  C    0.246464
    23  C    0.015788
    24  C    0.005621
    25  O   -0.472126
    26  C   -0.034241
    27  C    0.023033
 Electronic spatial extent (au):  <R**2>=          20977.9896
 Charge=             -0.0000 electrons
 Dipole moment (field-independent basis, Debye):
    X=              1.3621    Y=              5.6854    Z=              0.3857  Tot=              5.8590
 Quadrupole moment (field-independent basis, Debye-Ang):
   XX=           -111.5823   YY=           -162.7522   ZZ=           -158.0592
   XY=            -13.4420   XZ=             -0.9221   YZ=             -0.0195
 Traceless Quadrupole moment (field-independent basis, Debye-Ang):
   XX=             32.5489   YY=            -18.6210   ZZ=            -13.9280
   XY=            -13.4420   XZ=             -0.9221   YZ=             -0.0195
 Octapole moment (field-independent basis, Debye-Ang**2):
  XXX=             -0.8810  YYY=             41.5746  ZZZ=              2.1231  XYY=             20.7094
  XXY=             66.2462  XXZ=              2.4039  XZZ=             14.2718  YZZ=             -0.8137
  YYZ=              7.0876  XYZ=             -4.0137
 Hexadecapole moment (field-independent basis, Debye-Ang**3):
 XXXX=         -22510.0088 YYYY=          -2180.6522 ZZZZ=           -693.5885 XXXY=             31.3877
 XXXZ=             -8.8995 YYYX=           -117.8221 YYYZ=            -14.1847 ZZZX=             -8.5672
 ZZZY=             -7.2725 XXYY=          -4430.8477 XXZZ=          -4385.1082 YYZZ=           -462.6637
 XXYZ=             77.6485 YYXZ=             -0.8580 ZZXY=             -2.0489
 N-N= 2.216800272080D+03 E-N=-7.165734905085D+03  KE= 1.164430442303D+03
 Calling FoFJK, ICntrl=      2127 FMM=F ISym2X=0 I1Cent= 0 IOpClX= 0 NMat=1 NMatS=1 NMatT=0.
 ***** Axes restored to original set *****
 -------------------------------------------------------------------
 Center     Atomic                   Forces (Hartrees/Bohr)
 Number     Number              X              Y              Z
 -------------------------------------------------------------------
      1        8          -0.004035975    0.012737764   -0.002960223
      2        6          -0.013557674   -0.048363172   -0.003879602
      3        7           0.012746605    0.013204655    0.008205781
      4        6           0.022604433   -0.008002917    0.017586618
      5        7          -0.005758619    0.007521356   -0.006699786
      6        6          -0.021268920    0.012037362   -0.017362848
      7        6          -0.004142748   -0.005511358    0.000598041
      8        6           0.009042833    0.018332489   -0.004682585
      9        6          -0.013994673   -0.010941214   -0.000598521
     10        6           0.004152078   -0.000245209    0.000642643
     11        6           0.003308050    0.000567638    0.002390797
     12        6           0.010913862    0.000184697    0.004463671
     13        6           0.000927564    0.007187501    0.002399399
     14        6          -0.002938352   -0.002288960   -0.004250373
     15        6           0.005572331   -0.000830015    0.002311377
     16        6          -0.026479789    0.003146082   -0.010335725
     17        5           0.009774976   -0.000718020    0.003813956
     18        8           0.025019752   -0.001024473    0.015186222
     19        6          -0.019768419    0.013734104    0.001194648
     20        6           0.000185741   -0.005009467   -0.004077573
     21        6          -0.007217934   -0.008783009   -0.002659731
     22        6          -0.015498112   -0.010326307   -0.015082423
     23        6          -0.005515073    0.009918219   -0.002312434
     24        6          -0.001793422    0.005124824    0.003478465
     25        8           0.028629823   -0.004192428    0.006170385
     26        6           0.007996355    0.000471902    0.004288508
     27        6          -0.000348737   -0.002725430   -0.000691782
     28        1           0.000551428    0.007433271   -0.002733769
     29        1           0.000815225   -0.003241970    0.002514752
     30        1           0.003853610    0.000745338    0.001415441
     31        1           0.001268374   -0.002215718    0.001825357
     32        1          -0.000271419   -0.002704983   -0.004666123
     33        1          -0.000347299   -0.003315385   -0.003328779
     34        1          -0.003392649    0.000228390    0.003348522
     35        1          -0.003961294    0.001649956    0.003401640
     36        1          -0.002392257    0.003509101   -0.003582556
     37        1           0.003413983    0.001559579    0.003258098
     38        1          -0.001948544    0.002354248    0.000359278
     39        1           0.002029390   -0.003287701    0.000282398
     40        1          -0.002580373   -0.000394985   -0.002767122
     41        1           0.003172652    0.001619722   -0.002412128
     42        1          -0.002764796   -0.000365674   -0.002157912
     43        1           0.001403697   -0.003352263    0.000610997
     44        1          -0.000857938   -0.000206365    0.005914746
     45        1          -0.003436851    0.000978212   -0.000278770
     46        1           0.001925696    0.003024999    0.000693075
     47        1           0.003421424   -0.000008713   -0.004917520
     48        1          -0.003725910    0.001006076    0.000315215
     49        1           0.000412713   -0.001939847    0.003835320
     50        1           0.002203131    0.002964474    0.001302026
     51        1          -0.001637468   -0.001741075   -0.001849303
     52        1           0.004289522    0.000494698    0.002480209
 -------------------------------------------------------------------
 Cartesian Forces:  Max     0.048363172 RMS     0.008375919

 GradGradGradGradGradGradGradGradGradGradGradGradGradGradGradGradGradGrad
 Berny optimization.
 FormGI is forming the generalized inverse of G from B-inverse, IUseBI=4.
 Internal  Forces:  Max     0.032245253 RMS     0.004978408
 Search for a local minimum.
 Step number   1 out of a maximum of  294
 All quantities printed in internal units (Hartrees-Bohrs-Radians)
 Mixed Optimization -- RFO/linear search
 Second derivative matrix not updated -- first step.
 ITU=  0
     Eigenvalues ---    0.00230   0.00230   0.00230   0.00230   0.00230
     Eigenvalues ---    0.00435   0.00591   0.00822   0.01310   0.01421
     Eigenvalues ---    0.01520   0.01542   0.01632   0.01691   0.01861
     Eigenvalues ---    0.01985   0.02062   0.02063   0.02101   0.02101
     Eigenvalues ---    0.02104   0.02125   0.02129   0.02137   0.02151
     Eigenvalues ---    0.02154   0.02167   0.02171   0.02193   0.02223
     Eigenvalues ---    0.02252   0.02341   0.02388   0.02989   0.02990
     Eigenvalues ---    0.03432   0.03483   0.03723   0.03808   0.05299
     Eigenvalues ---    0.05302   0.05309   0.05313   0.05363   0.05363
     Eigenvalues ---    0.05381   0.05383   0.05758   0.06307   0.07709
     Eigenvalues ---    0.10004   0.10271   0.10898   0.11660   0.12781
     Eigenvalues ---    0.14683   0.15638   0.15950   0.15996   0.15999
     Eigenvalues ---    0.16000   0.16000   0.16000   0.16000   0.16000
     Eigenvalues ---    0.16000   0.16000   0.16000   0.16000   0.16000
     Eigenvalues ---    0.16000   0.16000   0.16000   0.16000   0.16000
     Eigenvalues ---    0.16000   0.16000   0.16000   0.17375   0.17862
     Eigenvalues ---    0.21364   0.21999   0.22021   0.22315   0.22969
     Eigenvalues ---    0.23489   0.23999   0.24547   0.24982   0.24987
     Eigenvalues ---    0.24996   0.24999   0.25000   0.25000   0.25000
     Eigenvalues ---    0.25013   0.25044   0.26302   0.27193   0.27716
     Eigenvalues ---    0.27718   0.28340   0.28342   0.29886   0.30907
     Eigenvalues ---    0.31032   0.34604   0.34686   0.34694   0.34698
     Eigenvalues ---    0.34700   0.34716   0.34722   0.34732   0.34740
     Eigenvalues ---    0.34751   0.34758   0.34796   0.34805   0.34844
     Eigenvalues ---    0.34849   0.34855   0.34858   0.35681   0.35850
     Eigenvalues ---    0.35869   0.35890   0.35925   0.36102   0.36127
     Eigenvalues ---    0.39792   0.40956   0.41782   0.42058   0.42147
     Eigenvalues ---    0.43563   0.45031   0.45413   0.45611   0.45767
     Eigenvalues ---    0.45861   0.46233   0.46467   0.46888   0.47424
     Eigenvalues ---    0.48789   0.51376   0.52968   0.55589   0.90781
 RFO step:  Lambda=-2.25782716D-02 EMin= 2.30000000D-03
 Linear search not attempted -- first point.
 Iteration  1 RMS(Cart)=  0.06078143 RMS(Int)=  0.00074474
 Iteration  2 RMS(Cart)=  0.00149261 RMS(Int)=  0.00025812
 Iteration  3 RMS(Cart)=  0.00000053 RMS(Int)=  0.00025812
 Variable       Old X    -DE/DX   Delta X   Delta X   Delta X     New X
                                 (Linear)    (Quad)   (Total)
    R1        2.32575  -0.01365   0.00000  -0.01467  -0.01467   2.31108
    R2        2.54612   0.03225   0.00000   0.05574   0.05574   2.60186
    R3        2.85952  -0.00439   0.00000  -0.01318  -0.01318   2.84635
    R4        2.64572   0.00065   0.00000   0.00136   0.00136   2.64709
    R5        1.89258   0.00679   0.00000   0.01366   0.01366   1.90624
    R6        2.57196  -0.02828   0.00000  -0.05287  -0.05287   2.51909
    R7        2.64273   0.00490   0.00000   0.01038   0.01039   2.65312
    R8        2.56042  -0.01812   0.00000  -0.03384  -0.03385   2.52657
    R9        2.63610  -0.00282   0.00000  -0.00609  -0.00610   2.63000
   R10        2.04200   0.00407   0.00000   0.01065   0.01065   2.05265
   R11        2.64482  -0.00282   0.00000  -0.00422  -0.00422   2.64060
   R12        2.03923   0.00417   0.00000   0.01087   0.01087   2.05010
   R13        2.88192  -0.02128   0.00000  -0.06620  -0.06620   2.81572
   R14        2.64422  -0.00870   0.00000  -0.01620  -0.01619   2.62803
   R15        2.86181  -0.00189   0.00000  -0.00266  -0.00258   2.85923
   R16        2.86158  -0.00189   0.00000  -0.00265  -0.00257   2.85901
   R17        2.06322  -0.00307   0.00000  -0.00833  -0.00833   2.05489
   R18        2.86231  -0.00734   0.00000  -0.02824  -0.02841   2.83390
   R19        2.06165  -0.00318   0.00000  -0.00860  -0.00860   2.05306
   R20        2.06168  -0.00341   0.00000  -0.00923  -0.00923   2.05245
   R21        2.06175  -0.00346   0.00000  -0.00935  -0.00935   2.05240
   R22        2.06188  -0.00326   0.00000  -0.00882  -0.00882   2.05306
   R23        2.03884   0.00553   0.00000   0.01442   0.01442   2.05326
   R24        2.65520  -0.00138   0.00000  -0.00358  -0.00358   2.65162
   R25        2.64810  -0.00373   0.00000  -0.00853  -0.00854   2.63956
   R26        2.63203   0.00096   0.00000   0.00202   0.00202   2.63405
   R27        2.04253   0.00422   0.00000   0.01105   0.01105   2.05358
   R28        2.63754   0.00533   0.00000   0.01167   0.01168   2.64921
   R29        2.04317   0.00305   0.00000   0.00800   0.00800   2.05118
   R30        2.99176  -0.01627   0.00000  -0.05966  -0.05966   2.93210
   R31        2.63755   0.00712   0.00000   0.01527   0.01528   2.65282
   R32        2.60211  -0.00110   0.00000  -0.00397  -0.00356   2.59855
   R33        2.60133  -0.00126   0.00000  -0.00430  -0.00390   2.59744
   R34        2.67583   0.02559   0.00000   0.05825   0.05820   2.73404
   R35        2.91397  -0.00924   0.00000  -0.03021  -0.03021   2.88377
   R36        2.92759  -0.01029   0.00000  -0.03434  -0.03434   2.89325
   R37        2.97180  -0.00570   0.00000  -0.01955  -0.02017   2.95163
   R38        2.06007   0.00123   0.00000   0.00332   0.00332   2.06339
   R39        2.05929   0.00368   0.00000   0.00992   0.00992   2.06922
   R40        2.06081   0.00169   0.00000   0.00456   0.00456   2.06536
   R41        2.05921   0.00350   0.00000   0.00944   0.00944   2.06865
   R42        2.06128   0.00210   0.00000   0.00568   0.00568   2.06696
   R43        2.06112   0.00094   0.00000   0.00254   0.00254   2.06366
   R44        2.92764  -0.01031   0.00000  -0.03441  -0.03441   2.89323
   R45        2.91401  -0.00927   0.00000  -0.03028  -0.03028   2.88373
   R46        2.67521   0.02575   0.00000   0.05856   0.05849   2.73371
   R47        2.05906   0.00355   0.00000   0.00957   0.00957   2.06864
   R48        2.06138   0.00207   0.00000   0.00561   0.00561   2.06699
   R49        2.06099   0.00093   0.00000   0.00251   0.00251   2.06351
   R50        2.05910   0.00375   0.00000   0.01011   0.01011   2.06921
   R51        2.06070   0.00168   0.00000   0.00454   0.00454   2.06524
   R52        2.05993   0.00131   0.00000   0.00354   0.00354   2.06347
   R53        2.63089   0.00027   0.00000   0.00049   0.00048   2.63137
   R54        2.04287   0.00294   0.00000   0.00771   0.00771   2.05058
   R55        2.04583   0.00136   0.00000   0.00358   0.00358   2.04941
    A1        2.17893   0.00130   0.00000   0.00499   0.00493   2.18386
    A2        2.09842   0.00329   0.00000   0.01225   0.01220   2.11062
    A3        2.00500  -0.00456   0.00000  -0.01650  -0.01655   1.98844
    A4        2.24803   0.00091   0.00000   0.00365   0.00364   2.25168
    A5        2.00443   0.00319   0.00000   0.01803   0.01803   2.02246
    A6        2.02460  -0.00412   0.00000  -0.02211  -0.02211   2.00249
    A7        2.11954  -0.01429   0.00000  -0.05108  -0.05110   2.06844
    A8        2.03683   0.00501   0.00000   0.01978   0.01976   2.05659
    A9        2.12616   0.00929   0.00000   0.03159   0.03159   2.15775
   A10        2.06839  -0.00775   0.00000  -0.03805  -0.03807   2.03031
   A11        2.14152   0.00983   0.00000   0.03623   0.03619   2.17772
   A12        2.02484  -0.00585   0.00000  -0.02325  -0.02325   2.00159
   A13        2.11682  -0.00398   0.00000  -0.01297  -0.01297   2.10385
   A14        2.07424  -0.00223   0.00000  -0.00629  -0.00631   2.06793
   A15        2.09648   0.00124   0.00000   0.00382   0.00382   2.10030
   A16        2.11247   0.00099   0.00000   0.00248   0.00248   2.11495
   A17        2.12036   0.00523   0.00000   0.01595   0.01594   2.13630
   A18        2.07223  -0.00750   0.00000  -0.02102  -0.02100   2.05123
   A19        2.09059   0.00227   0.00000   0.00507   0.00506   2.09565
   A20        2.13871  -0.00184   0.00000  -0.01520  -0.01537   2.12334
   A21        2.13847  -0.00186   0.00000  -0.01526  -0.01543   2.12303
   A22        1.96486   0.00054   0.00000   0.00978   0.00989   1.97474
   A23        2.00510   0.00216   0.00000   0.01076   0.01077   2.01587
   A24        2.00394   0.00220   0.00000   0.01119   0.01120   2.01514
   A25        2.07274  -0.00167   0.00000  -0.01065  -0.01068   2.06206
   A26        2.06464  -0.00125   0.00000  -0.00781  -0.00781   2.05683
   A27        2.08878  -0.00298   0.00000  -0.01849  -0.01846   2.07032
   A28        2.08324  -0.00017   0.00000  -0.00448  -0.00454   2.07870
   A29        1.95191   0.00328   0.00000   0.02335   0.02337   1.97528
   A30        2.06425  -0.00126   0.00000  -0.00770  -0.00770   2.05655
   A31        2.07231  -0.00166   0.00000  -0.01039  -0.01042   2.06189
   A32        2.08393  -0.00023   0.00000  -0.00490  -0.00496   2.07897
   A33        2.08955  -0.00298   0.00000  -0.01876  -0.01873   2.07082
   A34        1.95141   0.00331   0.00000   0.02358   0.02360   1.97501
   A35        2.08370  -0.00164   0.00000  -0.00243  -0.00240   2.08130
   A36        2.10767   0.00084   0.00000   0.00130   0.00129   2.10896
   A37        2.09179   0.00080   0.00000   0.00112   0.00110   2.09289
   A38        2.12340   0.00467   0.00000   0.01837   0.01836   2.14176
   A39        2.08486  -0.00756   0.00000  -0.02653  -0.02653   2.05833
   A40        2.07479   0.00288   0.00000   0.00802   0.00800   2.08279
   A41        2.10025   0.00019   0.00000  -0.00048  -0.00049   2.09976
   A42        2.11967  -0.00270   0.00000  -0.01412  -0.01413   2.10554
   A43        2.06302   0.00250   0.00000   0.01439   0.01437   2.07739
   A44        2.10198   0.00041   0.00000   0.00312   0.00314   2.10512
   A45        2.09244   0.00021   0.00000   0.00070   0.00070   2.09314
   A46        2.08872  -0.00062   0.00000  -0.00382  -0.00383   2.08489
   A47        2.09895   0.00199   0.00000   0.00616   0.00615   2.10510
   A48        2.08488  -0.00452   0.00000  -0.01431  -0.01430   2.07058
   A49        2.09933   0.00253   0.00000   0.00815   0.00814   2.10748
   A50        2.16825  -0.00206   0.00000  -0.00588  -0.00588   2.16237
   A51        2.16893  -0.00220   0.00000  -0.00638  -0.00638   2.16255
   A52        1.94601   0.00426   0.00000   0.01227   0.01225   1.95826
   A53        1.87254  -0.00107   0.00000   0.00110   0.00059   1.87313
   A54        1.86778   0.00252   0.00000   0.03357   0.03348   1.90126
   A55        1.84282   0.00176   0.00000   0.03139   0.03173   1.87454
   A56        1.77377  -0.00040   0.00000   0.00685   0.00686   1.78064
   A57        1.92800   0.00091   0.00000  -0.00193  -0.00375   1.92425
   A58        2.01204   0.00025   0.00000  -0.00835  -0.00902   2.00302
   A59        2.01766  -0.00431   0.00000  -0.04778  -0.04812   1.96955
   A60        1.95647  -0.00384   0.00000  -0.02027  -0.02039   1.93609
   A61        1.93801   0.00051   0.00000   0.00282   0.00282   1.94084
   A62        1.94312  -0.00449   0.00000  -0.02541  -0.02556   1.91757
   A63        1.88128   0.00204   0.00000   0.01272   0.01274   1.89402
   A64        1.85996   0.00444   0.00000   0.02427   0.02401   1.88397
   A65        1.88114   0.00186   0.00000   0.00869   0.00866   1.88980
   A66        1.94228   0.00163   0.00000   0.01109   0.01117   1.95345
   A67        1.95147  -0.00269   0.00000  -0.01472  -0.01496   1.93651
   A68        1.94489  -0.00778   0.00000  -0.04479  -0.04503   1.89986
   A69        1.87924   0.00124   0.00000   0.01079   0.01084   1.89008
   A70        1.87485   0.00327   0.00000   0.01795   0.01803   1.89287
   A71        1.86715   0.00494   0.00000   0.02297   0.02242   1.88957
   A72        2.01819  -0.00436   0.00000  -0.04807  -0.04841   1.96978
   A73        2.01261   0.00018   0.00000  -0.00875  -0.00945   2.00316
   A74        1.77239  -0.00027   0.00000   0.00794   0.00795   1.78034
   A75        1.92778   0.00100   0.00000  -0.00173  -0.00358   1.92421
   A76        1.84330   0.00168   0.00000   0.03095   0.03131   1.87461
   A77        1.86766   0.00250   0.00000   0.03357   0.03348   1.90114
   A78        1.94272   0.00156   0.00000   0.01068   0.01075   1.95346
   A79        1.95189  -0.00264   0.00000  -0.01447  -0.01471   1.93718
   A80        1.94459  -0.00779   0.00000  -0.04481  -0.04505   1.89954
   A81        1.87947   0.00124   0.00000   0.01078   0.01083   1.89030
   A82        1.87478   0.00332   0.00000   0.01819   0.01826   1.89304
   A83        1.86639   0.00492   0.00000   0.02293   0.02239   1.88877
   A84        1.93832   0.00049   0.00000   0.00268   0.00267   1.94100
   A85        1.94258  -0.00451   0.00000  -0.02545  -0.02559   1.91698
   A86        1.95676  -0.00385   0.00000  -0.02030  -0.02042   1.93635
   A87        1.88110   0.00188   0.00000   0.00882   0.00879   1.88989
   A88        1.88166   0.00204   0.00000   0.01261   0.01263   1.89430
   A89        1.85955   0.00446   0.00000   0.02448   0.02422   1.88377
   A90        1.87248  -0.00116   0.00000   0.00084   0.00030   1.87277
   A91        2.10042   0.00211   0.00000   0.00972   0.00972   2.11014
   A92        2.09372  -0.00175   0.00000  -0.00864  -0.00864   2.08508
   A93        2.08904  -0.00037   0.00000  -0.00108  -0.00109   2.08795
   A94        2.10389  -0.00108   0.00000  -0.00611  -0.00612   2.09776
   A95        2.10016  -0.00435   0.00000  -0.02374  -0.02374   2.07642
   A96        2.07914   0.00543   0.00000   0.02986   0.02986   2.10900
    D1       -0.03954  -0.00029   0.00000  -0.00619  -0.00618  -0.04572
    D2        2.97736  -0.00070   0.00000  -0.01193  -0.01196   2.96540
    D3       -3.13701  -0.00106   0.00000  -0.02597  -0.02593   3.12024
    D4       -0.12011  -0.00147   0.00000  -0.03171  -0.03171  -0.15182
    D5        2.63224  -0.00010   0.00000   0.00064   0.00065   2.63288
    D6       -0.49173   0.00024   0.00000   0.01004   0.01000  -0.48173
    D7       -0.55127   0.00059   0.00000   0.01928   0.01932  -0.53195
    D8        2.60795   0.00093   0.00000   0.02868   0.02867   2.63662
    D9       -0.37993   0.00027   0.00000   0.00198   0.00191  -0.37802
   D10        2.79976  -0.00031   0.00000  -0.00696  -0.00685   2.79291
   D11        2.88757   0.00025   0.00000   0.00536   0.00525   2.89282
   D12       -0.21593  -0.00033   0.00000  -0.00358  -0.00351  -0.21944
   D13       -3.11991  -0.00049   0.00000  -0.00895  -0.00880  -3.12872
   D14       -0.01838  -0.00002   0.00000   0.00006   0.00009  -0.01828
   D15        3.11969  -0.00011   0.00000   0.00120   0.00139   3.12107
   D16       -0.02984  -0.00013   0.00000   0.00024   0.00038  -0.02946
   D17        0.01635  -0.00014   0.00000  -0.00583  -0.00591   0.01044
   D18       -3.13318  -0.00016   0.00000  -0.00680  -0.00692  -3.14010
   D19        0.01034   0.00017   0.00000   0.00456   0.00460   0.01494
   D20       -3.13090  -0.00018   0.00000  -0.00387  -0.00387  -3.13477
   D21       -0.00034  -0.00013   0.00000  -0.00318  -0.00324  -0.00357
   D22       -3.14143  -0.00019   0.00000  -0.00483  -0.00490   3.13685
   D23        3.14089   0.00024   0.00000   0.00568   0.00570  -3.13660
   D24       -0.00021   0.00018   0.00000   0.00404   0.00403   0.00382
   D25        3.14049   0.00004   0.00000   0.00069   0.00064   3.14112
   D26       -0.00185  -0.00009   0.00000  -0.00305  -0.00311  -0.00497
   D27       -0.00160   0.00010   0.00000   0.00235   0.00232   0.00071
   D28        3.13924  -0.00003   0.00000  -0.00139  -0.00143   3.13781
   D29       -0.63514   0.00220   0.00000   0.01188   0.01172  -0.62342
   D30        0.63488  -0.00234   0.00000  -0.01561  -0.01550   0.61938
   D31        3.14013  -0.00005   0.00000  -0.00150  -0.00153   3.13861
   D32        2.50721   0.00234   0.00000   0.01567   0.01557   2.52278
   D33       -2.50596  -0.00221   0.00000  -0.01182  -0.01165  -2.51761
   D34       -0.00070   0.00008   0.00000   0.00229   0.00232   0.00162
   D35       -0.00583   0.00033   0.00000   0.00767   0.00763   0.00180
   D36       -3.13956   0.00035   0.00000   0.00863   0.00862  -3.13093
   D37        3.13503   0.00021   0.00000   0.00400   0.00398   3.13901
   D38        0.00130   0.00023   0.00000   0.00495   0.00497   0.00627
   D39        0.03520  -0.00013   0.00000  -0.00202  -0.00197   0.03323
   D40       -2.42600  -0.00192   0.00000  -0.01831  -0.01822  -2.44421
   D41        2.52994   0.00160   0.00000   0.01103   0.01098   2.54092
   D42        0.06874  -0.00019   0.00000  -0.00525  -0.00527   0.06347
   D43        2.42455   0.00195   0.00000   0.01877   0.01868   2.44323
   D44       -0.03443   0.00009   0.00000   0.00148   0.00142  -0.03301
   D45       -0.06786   0.00019   0.00000   0.00512   0.00514  -0.06273
   D46       -2.52684  -0.00166   0.00000  -0.01218  -0.01212  -2.53896
   D47       -2.51877  -0.00134   0.00000  -0.00837  -0.00833  -2.52710
   D48        0.00080  -0.00002   0.00000  -0.00043  -0.00043   0.00037
   D49       -0.00072   0.00001   0.00000   0.00032   0.00032  -0.00040
   D50        2.51885   0.00133   0.00000   0.00826   0.00822   2.52707
   D51       -3.14149   0.00041   0.00000   0.00892   0.00901  -3.13248
   D52       -0.02376  -0.00003   0.00000  -0.00128  -0.00113  -0.02489
   D53       -0.01742  -0.00004   0.00000  -0.00076  -0.00080  -0.01823
   D54        3.10031  -0.00047   0.00000  -0.01097  -0.01095   3.08937
   D55       -3.14030  -0.00014   0.00000  -0.00495  -0.00483   3.13806
   D56        0.00199  -0.00010   0.00000  -0.00378  -0.00370  -0.00171
   D57        0.01842   0.00017   0.00000   0.00407   0.00408   0.02250
   D58       -3.12247   0.00021   0.00000   0.00524   0.00520  -3.11727
   D59        0.00517  -0.00016   0.00000  -0.00314  -0.00314   0.00202
   D60        3.13724  -0.00014   0.00000  -0.00272  -0.00274   3.13450
   D61       -3.11333   0.00033   0.00000   0.00712   0.00722  -3.10611
   D62        0.01874   0.00035   0.00000   0.00754   0.00762   0.02636
   D63        3.14127   0.00008   0.00000   0.00169   0.00169  -3.14023
   D64        0.00636   0.00013   0.00000   0.00347   0.00347   0.00982
   D65        0.00918   0.00006   0.00000   0.00124   0.00126   0.01044
   D66       -3.12574   0.00011   0.00000   0.00302   0.00304  -3.12269
   D67        0.00432  -0.00021   0.00000  -0.00917  -0.00916  -0.00484
   D68       -3.13736  -0.00020   0.00000  -0.00846  -0.00845   3.13737
   D69        3.13917  -0.00029   0.00000  -0.01105  -0.01106   3.12811
   D70       -0.00251  -0.00027   0.00000  -0.01035  -0.01036  -0.01286
   D71       -0.00539   0.00001   0.00000  -0.00012  -0.00013  -0.00552
   D72        3.13156   0.00001   0.00000  -0.00056  -0.00055   3.13101
   D73       -3.14030   0.00006   0.00000   0.00167   0.00166  -3.13864
   D74       -0.00335   0.00006   0.00000   0.00123   0.00124  -0.00211
   D75        2.95004   0.00187   0.00000   0.01676   0.01663   2.96667
   D76       -0.19147   0.00185   0.00000   0.01613   0.01599  -0.17548
   D77        2.93657   0.00199   0.00000   0.01924   0.01911   2.95568
   D78       -0.20510   0.00200   0.00000   0.01987   0.01974  -0.18536
   D79        2.57424   0.00063   0.00000  -0.02270  -0.02329   2.55095
   D80       -1.65453   0.00374   0.00000   0.00651   0.00635  -1.64818
   D81        0.45780  -0.00053   0.00000  -0.03091  -0.03136   0.42644
   D82       -0.94719   0.00091   0.00000   0.00714   0.00733  -0.93986
   D83       -3.05257   0.00058   0.00000   0.00282   0.00310  -3.04947
   D84        1.13450   0.00089   0.00000   0.00696   0.00729   1.14179
   D85       -2.94497  -0.00302   0.00000  -0.04741  -0.04775  -2.99272
   D86        1.23284  -0.00334   0.00000  -0.05173  -0.05198   1.18086
   D87       -0.86328  -0.00303   0.00000  -0.04759  -0.04779  -0.91107
   D88        1.01090   0.00214   0.00000   0.03247   0.03239   1.04330
   D89       -1.09447   0.00182   0.00000   0.02815   0.02816  -1.06631
   D90        3.09260   0.00213   0.00000   0.03229   0.03235   3.12495
   D91       -3.10059  -0.00151   0.00000  -0.00701  -0.00747  -3.10805
   D92        1.08031  -0.00237   0.00000  -0.01837  -0.01866   1.06164
   D93       -1.00836  -0.00150   0.00000  -0.00697  -0.00760  -1.01596
   D94       -1.08709   0.00284   0.00000   0.04853   0.04832  -1.03877
   D95        3.09381   0.00199   0.00000   0.03718   0.03712   3.13093
   D96        1.00514   0.00285   0.00000   0.04858   0.04819   1.05332
   D97        1.23738  -0.00002   0.00000  -0.01160  -0.01092   1.22646
   D98       -0.86491  -0.00088   0.00000  -0.02296  -0.02212  -0.88703
   D99       -2.95358  -0.00001   0.00000  -0.01156  -0.01105  -2.96463
   D100       1.42214   0.00364   0.00000   0.06669   0.06625   1.48839
   D101      -2.57510   0.00081   0.00000   0.00475   0.00492  -2.57018
   D102      -0.56319   0.00370   0.00000   0.04582   0.04560  -0.51759
   D103      -0.59052   0.00077   0.00000   0.02611   0.02606  -0.56447
   D104       1.69543  -0.00206   0.00000  -0.03582  -0.03528   1.66015
   D105      -2.57585   0.00083   0.00000   0.00524   0.00541  -2.57045
   D106      -2.87567   0.00361   0.00000   0.08748   0.08685  -2.78882
   D107      -0.58972   0.00078   0.00000   0.02554   0.02552  -0.56420
   D108       1.42218   0.00367   0.00000   0.06661   0.06620   1.48839
   D109       1.23903  -0.00007   0.00000  -0.01220  -0.01152   1.22751
   D110      -0.86415  -0.00092   0.00000  -0.02343  -0.02260  -0.88675
   D111      -2.95193  -0.00006   0.00000  -0.01216  -0.01165  -2.96358
   D112      -1.08654   0.00285   0.00000   0.04870   0.04849  -1.03806
   D113       3.09346   0.00200   0.00000   0.03747   0.03741   3.13087
   D114       1.00568   0.00286   0.00000   0.04874   0.04836   1.05404
   D115      -3.10005  -0.00148   0.00000  -0.00670  -0.00715  -3.10720
   D116       1.07995  -0.00233   0.00000  -0.01793  -0.01823   1.06172
   D117      -1.00783  -0.00147   0.00000  -0.00666  -0.00728  -1.01511
   D118      -1.09604   0.00188   0.00000   0.02880   0.02881  -1.06723
   D119       3.09123   0.00219   0.00000   0.03291   0.03296   3.12420
   D120       1.01024   0.00218   0.00000   0.03284   0.03276   1.04301
   D121       1.23236  -0.00333   0.00000  -0.05177  -0.05203   1.18033
   D122      -0.86356  -0.00302   0.00000  -0.04766  -0.04787  -0.91143
   D123      -2.94455  -0.00303   0.00000  -0.04773  -0.04807  -2.99262
   D124      -3.05265   0.00053   0.00000   0.00235   0.00263  -3.05002
   D125       1.13462   0.00084   0.00000   0.00645   0.00679   1.14141
   D126      -0.94638   0.00083   0.00000   0.00639   0.00659  -0.93979
[...]
 Alpha virt. eigenvalues --    0.27536   0.27877   0.28541   0.28976   0.29680
 Alpha virt. eigenvalues --    0.29852   0.30146   0.30440   0.30695   0.31232
 Alpha virt. eigenvalues --    0.31539   0.32004   0.33307   0.33653   0.33715
 Alpha virt. eigenvalues --    0.33981   0.34344   0.34413   0.34595   0.34991
 Alpha virt. eigenvalues --    0.35505   0.35757   0.35919   0.36505   0.37002
 Alpha virt. eigenvalues --    0.37147   0.37371   0.38539   0.38703   0.39215
 Alpha virt. eigenvalues --    0.39385   0.39658   0.39956   0.40260   0.40275
 Alpha virt. eigenvalues --    0.40728   0.41099   0.41150   0.41746   0.42174
 Alpha virt. eigenvalues --    0.42574   0.42743   0.43168   0.43253   0.43566
 Alpha virt. eigenvalues --    0.43722   0.43923   0.44248   0.44542   0.44939
 Alpha virt. eigenvalues --    0.45079   0.45473   0.45650   0.45917   0.46301
 Alpha virt. eigenvalues --    0.46610   0.47132   0.47376   0.47911   0.48474
 Alpha virt. eigenvalues --    0.48584   0.48758   0.49203   0.49518   0.49809
 Alpha virt. eigenvalues --    0.50057   0.50396   0.50482   0.50582   0.50886
 Alpha virt. eigenvalues --    0.51080   0.51478   0.51736   0.51835   0.52455
 Alpha virt. eigenvalues --    0.52736   0.53432   0.53505   0.53775   0.53985
 Alpha virt. eigenvalues --    0.54605   0.55052   0.55540   0.56087   0.56415
 Alpha virt. eigenvalues --    0.56625   0.57241   0.57846   0.58248   0.58437
 Alpha virt. eigenvalues --    0.58762   0.59243   0.60394   0.60694   0.61104
 Alpha virt. eigenvalues --    0.61893   0.62055   0.62097   0.63070   0.63321
 Alpha virt. eigenvalues --    0.64051   0.64407   0.65798   0.66182   0.66756
 Alpha virt. eigenvalues --    0.67966   0.68055   0.68210   0.68513   0.69326
 Alpha virt. eigenvalues --    0.69432   0.69794   0.70336   0.71002   0.71032
 Alpha virt. eigenvalues --    0.71642   0.72729   0.73189   0.73523   0.73900
 Alpha virt. eigenvalues --    0.74142   0.74742   0.76282   0.76800   0.77171
 Alpha virt. eigenvalues --    0.77453   0.77832   0.78189   0.78821   0.79440
 Alpha virt. eigenvalues --    0.80130   0.80563   0.80940   0.81501   0.82515
 Alpha virt. eigenvalues --    0.83169   0.83390   0.83844   0.84222   0.84821
 Alpha virt. eigenvalues --    0.85550   0.86560   0.87019   0.87459   0.88086
 Alpha virt. eigenvalues --    0.88603   0.89187   0.90002   0.90420   0.90915
 Alpha virt. eigenvalues --    0.91486   0.91677   0.92409   0.93186   0.93503
 Alpha virt. eigenvalues --    0.93719   0.94133   0.94612   0.95137   0.95530
 Alpha virt. eigenvalues --    0.95754   0.96801   0.97062   0.98488   0.98692
 Alpha virt. eigenvalues --    0.99686   1.00251   1.00807   1.01265   1.01425
 Alpha virt. eigenvalues --    1.01933   1.02224   1.03086   1.03587   1.04179
 Alpha virt. eigenvalues --    1.04768   1.05557   1.06025   1.06830   1.07806
 Alpha virt. eigenvalues --    1.08574   1.08835   1.09226   1.10234   1.10752
 Alpha virt. eigenvalues --    1.11004   1.11398   1.11763   1.12442   1.12963
 Alpha virt. eigenvalues --    1.14574   1.15461   1.16023   1.16396   1.16886
 Alpha virt. eigenvalues --    1.17173   1.17615   1.17880   1.18404   1.19684
 Alpha virt. eigenvalues --    1.20115   1.20639   1.21013   1.21673   1.22583
 Alpha virt. eigenvalues --    1.23340   1.23461   1.24635   1.25170   1.25493
 Alpha virt. eigenvalues --    1.26333   1.27527   1.27937   1.28719   1.28840
 Alpha virt. eigenvalues --    1.29423   1.29590   1.30685   1.31474   1.32357
 Alpha virt. eigenvalues --    1.32618   1.33910   1.34139   1.34296   1.34743
 Alpha virt. eigenvalues --    1.35186   1.35893   1.36779   1.37280   1.38767
 Alpha virt. eigenvalues --    1.39665   1.40857   1.42259   1.43130   1.43397
 Alpha virt. eigenvalues --    1.44024   1.45105   1.45986   1.46432   1.47630
 Alpha virt. eigenvalues --    1.47848   1.49540   1.49785   1.50963   1.51401
 Alpha virt. eigenvalues --    1.52391   1.52515   1.52791   1.53353   1.53921
 Alpha virt. eigenvalues --    1.54016   1.54122   1.54586   1.55881   1.56295
 Alpha virt. eigenvalues --    1.56622   1.57018   1.58113   1.58290   1.58476
 Alpha virt. eigenvalues --    1.58967   1.59274   1.60206   1.60457   1.60541
 Alpha virt. eigenvalues --    1.60915   1.61517   1.62125   1.63394   1.63520
 Alpha virt. eigenvalues --    1.63891   1.64231   1.64547   1.64958   1.65381
 Alpha virt. eigenvalues --    1.65693   1.66512   1.66551   1.66777   1.67152
 Alpha virt. eigenvalues --    1.68275   1.68509   1.69051   1.69590   1.70292
 Alpha virt. eigenvalues --    1.70949   1.71817   1.71907   1.72737   1.72892
 Alpha virt. eigenvalues --    1.73573   1.73680   1.74504   1.75679   1.76702
 Alpha virt. eigenvalues --    1.77801   1.78206   1.78503   1.79188   1.79428
 Alpha virt. eigenvalues --    1.80141   1.80945   1.81732   1.82261   1.82792
 Alpha virt. eigenvalues --    1.83236   1.83713   1.84892   1.85396   1.85962
 Alpha virt. eigenvalues --    1.86567   1.87458   1.87992   1.88698   1.89293
 Alpha virt. eigenvalues --    1.90719   1.91268   1.92056   1.92135   1.92603
 Alpha virt. eigenvalues --    1.93562   1.93727   1.94116   1.94483   1.95788
 Alpha virt. eigenvalues --    1.96028   1.96663   1.97101   1.97227   1.97801
 Alpha virt. eigenvalues --    1.98313   1.99488   2.00446   2.02988   2.03234
 Alpha virt. eigenvalues --    2.03874   2.04278   2.05727   2.06149   2.06578
 Alpha virt. eigenvalues --    2.07441   2.08515   2.08595   2.09306   2.09998
 Alpha virt. eigenvalues --    2.10315   2.11802   2.11844   2.12497   2.12796
 Alpha virt. eigenvalues --    2.13707   2.15055   2.15743   2.16244   2.16468
 Alpha virt. eigenvalues --    2.17207   2.17999   2.18539   2.19073   2.19381
 Alpha virt. eigenvalues --    2.19509   2.19644   2.21557   2.22441   2.23166
 Alpha virt. eigenvalues --    2.23278   2.23898   2.25372   2.26207   2.28245
 Alpha virt. eigenvalues --    2.29371   2.29758   2.30092   2.31032   2.31484
 Alpha virt. eigenvalues --    2.32281   2.32690   2.33800   2.34391   2.35016
 Alpha virt. eigenvalues --    2.35447   2.35782   2.36064   2.36868   2.37247
 Alpha virt. eigenvalues --    2.37879   2.38543   2.38678   2.38796   2.39275
 Alpha virt. eigenvalues --    2.39429   2.40687   2.41296   2.41659   2.42108
 Alpha virt. eigenvalues --    2.42580   2.42798   2.43464   2.44928   2.45958
 Alpha virt. eigenvalues --    2.46041   2.47110   2.47659   2.48338   2.48884
 Alpha virt. eigenvalues --    2.49434   2.50347   2.50685   2.52193   2.52336
 Alpha virt. eigenvalues --    2.53418   2.53637   2.54270   2.54540   2.55448
 Alpha virt. eigenvalues --    2.56174   2.56387   2.57681   2.58133   2.58352
 Alpha virt. eigenvalues --    2.58905   2.59362   2.59451   2.60345   2.60989
 Alpha virt. eigenvalues --    2.61351   2.62054   2.62344   2.62964   2.63396
 Alpha virt. eigenvalues --    2.63936   2.64360   2.65130   2.66252   2.66556
 Alpha virt. eigenvalues --    2.67090   2.67550   2.67959   2.68321   2.69188
 Alpha virt. eigenvalues --    2.69472   2.70059   2.70292   2.70917   2.71459
 Alpha virt. eigenvalues --    2.71686   2.71930   2.72690   2.72973   2.73419
 Alpha virt. eigenvalues --    2.74155   2.74227   2.74691   2.75999   2.76590
 Alpha virt. eigenvalues --    2.77183   2.77625   2.77933   2.78673   2.79119
 Alpha virt. eigenvalues --    2.79401   2.79830   2.80573   2.80904   2.81398
 Alpha virt. eigenvalues --    2.81983   2.82902   2.83308   2.83955   2.85065
 Alpha virt. eigenvalues --    2.85605   2.86373   2.87352   2.87897   2.88524
 Alpha virt. eigenvalues --    2.88804   2.89295   2.90072   2.90456   2.90757
 Alpha virt. eigenvalues --    2.91331   2.92342   2.92603   2.92780   2.94263
 Alpha virt. eigenvalues --    2.94975   2.96012   2.97039   2.97164   2.97507
 Alpha virt. eigenvalues --    2.97959   2.99205   2.99533   2.99829   3.01051
 Alpha virt. eigenvalues --    3.02037   3.02164   3.04255   3.04413   3.04901
 Alpha virt. eigenvalues --    3.05251   3.05840   3.06505   3.07087   3.07322
 Alpha virt. eigenvalues --    3.07839   3.08183   3.08533   3.09998   3.10060
 Alpha virt. eigenvalues --    3.10803   3.11312   3.12241   3.12593   3.12812
 Alpha virt. eigenvalues --    3.13665   3.14124   3.14447   3.14558   3.15262
 Alpha virt. eigenvalues --    3.15362   3.15634   3.16021   3.16671   3.17450
 Alpha virt. eigenvalues --    3.18175   3.18625   3.19121   3.19714   3.20050
 Alpha virt. eigenvalues --    3.20504   3.21244   3.21642   3.21914   3.22161
 Alpha virt. eigenvalues --    3.23265   3.23406   3.24131   3.24665   3.25036
 Alpha virt. eigenvalues --    3.25862   3.26710   3.27114   3.27564   3.27927
 Alpha virt. eigenvalues --    3.28638   3.29043   3.29798   3.30177   3.30445
 Alpha virt. eigenvalues --    3.31460   3.31749   3.31791   3.33135   3.33168
 Alpha virt. eigenvalues --    3.33916   3.34730   3.34987   3.35981   3.36011
 Alpha virt. eigenvalues --    3.36723   3.36808   3.37302   3.38263   3.38426
 Alpha virt. eigenvalues --    3.38773   3.39597   3.39651   3.39951   3.40192
 Alpha virt. eigenvalues --    3.41483   3.41617   3.42512   3.43273   3.43517
 Alpha virt. eigenvalues --    3.44483   3.45001   3.45326   3.46210   3.46886
 Alpha virt. eigenvalues --    3.47324   3.47722   3.47931   3.48674   3.49089
 Alpha virt. eigenvalues --    3.49744   3.51001   3.51438   3.51794   3.52003
 Alpha virt. eigenvalues --    3.52528   3.52878   3.53810   3.54730   3.55148
 Alpha virt. eigenvalues --    3.55466   3.55765   3.57060   3.57809   3.58388
 Alpha virt. eigenvalues --    3.59275   3.59689   3.59868   3.61359   3.62258
 Alpha virt. eigenvalues --    3.63328   3.64172   3.65021   3.66335   3.66982
 Alpha virt. eigenvalues --    3.67767   3.67887   3.69776   3.70728   3.72208
 Alpha virt. eigenvalues --    3.73363   3.74125   3.75029   3.76393   3.76611
 Alpha virt. eigenvalues --    3.77605   3.78637   3.79783   3.80816   3.81047
 Alpha virt. eigenvalues --    3.81304   3.82758   3.83580   3.83794   3.84620
 Alpha virt. eigenvalues --    3.85213   3.86694   3.89823   3.90554   3.90969
 Alpha virt. eigenvalues --    3.92660   3.93805   3.95552   3.95799   3.96770
 Alpha virt. eigenvalues --    3.97102   3.98541   4.00038   4.00301   4.01031
 Alpha virt. eigenvalues --    4.01605   4.02246   4.03370   4.03879   4.04747
 Alpha virt. eigenvalues --    4.05161   4.05501   4.05939   4.06163   4.07431
 Alpha virt. eigenvalues --    4.08249   4.08566   4.10101   4.10541   4.10568
 Alpha virt. eigenvalues --    4.10886   4.11731   4.11879   4.13318   4.14943
 Alpha virt. eigenvalues --    4.15924   4.16073   4.16391   4.16623   4.17303
 Alpha virt. eigenvalues --    4.17883   4.19672   4.21195   4.21608   4.22927
 Alpha virt. eigenvalues --    4.23436   4.24728   4.25366   4.26521   4.27313
 Alpha virt. eigenvalues --    4.28381   4.29051   4.30952   4.31389   4.32391
 Alpha virt. eigenvalues --    4.34211   4.35801   4.37426   4.38835   4.39114
 Alpha virt. eigenvalues --    4.39723   4.40252   4.41288   4.41959   4.42722
 Alpha virt. eigenvalues --    4.43210   4.44375   4.44917   4.46908   4.47355
 Alpha virt. eigenvalues --    4.48294   4.50027   4.50766   4.51414   4.52636
 Alpha virt. eigenvalues --    4.53760   4.55321   4.55601   4.56418   4.58158
 Alpha virt. eigenvalues --    4.58499   4.59071   4.60718   4.61553   4.64488
 Alpha virt. eigenvalues --    4.67613   4.70404   4.74048   4.76124   4.77035
 Alpha virt. eigenvalues --    4.79561   4.80153   4.80735   4.81039   4.83766
 Alpha virt. eigenvalues --    4.85619   4.86060   4.87213   4.87771   4.88242
 Alpha virt. eigenvalues --    4.88941   4.89453   4.91588   4.95088   4.95117
 Alpha virt. eigenvalues --    4.95865   5.00354   5.01459   5.01608   5.02019
 Alpha virt. eigenvalues --    5.04789   5.06912   5.07641   5.09436   5.11916
 Alpha virt. eigenvalues --    5.13288   5.16239   5.18730   5.22491   5.23249
 Alpha virt. eigenvalues --    5.25024   5.26711   5.28679   5.30001   5.30805
 Alpha virt. eigenvalues --    5.31651   5.32919   5.40487   5.41618   5.42592
 Alpha virt. eigenvalues --    5.45832   5.46894   5.47267   5.50620   5.55584
 Alpha virt. eigenvalues --    5.57673   5.59750   5.60076   5.64175   5.67352
 Alpha virt. eigenvalues --    5.67739   5.70576   5.73924   5.74966   5.79499
 Alpha virt. eigenvalues --    5.81410   5.85509   5.86925   5.90382   5.93940
 Alpha virt. eigenvalues --    5.95770   6.14526   6.15520   6.20054   6.21719
 Alpha virt. eigenvalues --    6.39036   6.43902   6.52855   6.60960   6.75720
 Alpha virt. eigenvalues --    6.77939   6.78219   6.80899   6.85053   6.88436
 Alpha virt. eigenvalues --    6.95038   6.96262   7.09978   7.14062   7.19384
 Alpha virt. eigenvalues --    7.23653   7.37037   7.46172  16.36713  22.34672
 Alpha virt. eigenvalues --   22.47954  22.49863  22.53007  22.53055  22.55302
 Alpha virt. eigenvalues --   22.57223  22.57767  22.76900  22.77847  22.80617
 Alpha virt. eigenvalues --   22.81948  22.83097  22.84259  22.85279  22.90838
 Alpha virt. eigenvalues --   23.03926  23.15777  23.30790  23.36501  23.50718
 Alpha virt. eigenvalues --   32.60038  32.82405  44.11173  44.39656  44.43491
          Condensed to atoms (all electrons):
 Mulliken charges:
               1
     1  O   -0.327569
     2  C    0.313481
     3  N   -0.375459
     4  C    0.312265
     5  N   -0.233446
     6  C   -0.090094
     7  C   -0.256178
     8  C    0.206529
     9  C   -0.232105
    10  C   -0.241534
    11  C   -0.241647
    12  C   -0.271661
    13  C    0.065736
    14  C   -0.209213
    15  C   -0.198326
    16  C   -0.045927
    17  B    0.429056
    18  O   -0.337154
    19  C    0.130899
    20  C   -0.432637
    21  C   -0.499987
    22  C    0.130067
    23  C   -0.499221
    24  C   -0.432860
    25  O   -0.334434
    26  C   -0.167421
    27  C   -0.167932
    28  H    0.243060
    29  H    0.141391
    30  H    0.161683
    31  H    0.119781
    32  H    0.150301
    33  H    0.140830
    34  H    0.141214
    35  H    0.151408
    36  H    0.158426
    37  H    0.167817
    38  H    0.157236
    39  H    0.159196
    40  H    0.155764
    41  H    0.158236
    42  H    0.164229
    43  H    0.166383
    44  H    0.164211
    45  H    0.163735
    46  H    0.166889
    47  H    0.166308
    48  H    0.155550
    49  H    0.159763
    50  H    0.158272
    51  H    0.158713
    52  H    0.176373
 Sum of Mulliken charges =  -0.00000
 Mulliken charges with hydrogens summed into heavy atoms:
               1
     1  O   -0.327569
     2  C    0.313481
     3  N   -0.132399
     4  C    0.312265
     5  N   -0.233446
     6  C    0.051297
     7  C   -0.094495
     8  C    0.206529
     9  C   -0.112324
    10  C    0.049598
    11  C    0.050975
    12  C   -0.113234
    13  C    0.065736
    14  C   -0.041397
    15  C   -0.041090
    16  C   -0.045927
    17  B    0.429056
    18  O   -0.337154
    19  C    0.130899
    20  C    0.040560
    21  C   -0.005164
    22  C    0.130067
    23  C   -0.002288
    24  C    0.040725
    25  O   -0.334434
    26  C   -0.008708
    27  C    0.008441
 Electronic spatial extent (au):  <R**2>=          21119.2771
 Charge=             -0.0000 electrons
 Dipole moment (field-independent basis, Debye):
    X=              1.7854    Y=              5.5650    Z=              0.4915  Tot=              5.8650
 Quadrupole moment (field-independent basis, Debye-Ang):
   XX=           -106.2519   YY=           -163.5057   ZZ=           -162.1751
   XY=            -13.1561   XZ=             -1.7863   YZ=              1.2643
 Traceless Quadrupole moment (field-independent basis, Debye-Ang):
   XX=             37.7257   YY=            -19.5281   ZZ=            -18.1976
   XY=            -13.1561   XZ=             -1.7863   YZ=              1.2643
 Octapole moment (field-independent basis, Debye-Ang**2):
  XXX=             27.7539  YYY=             36.1245  ZZZ=              3.1973  XYY=             14.5204
  XXY=             79.2813  XXZ=              5.7851  XZZ=             13.8414  YZZ=              0.7191
  YYZ=              6.2324  XYZ=            -13.7292
 Hexadecapole moment (field-independent basis, Debye-Ang**3):
 XXXX=         -22733.3220 YYYY=          -1987.8899 ZZZZ=           -762.5531 XXXY=            -21.9684
 XXXZ=            -26.6176 YYYX=           -111.3597 YYYZ=             -8.4719 ZZZX=            -16.3783
 ZZZY=             -5.3335 XXYY=          -4497.8258 XXZZ=          -4534.7639 YYZZ=           -442.3631
 XXYZ=            129.8911 YYXZ=             -4.5007 ZZXY=             -3.7506
 N-N= 2.220677034537D+03 E-N=-7.176996182911D+03  KE= 1.169121573554D+03
 Unable to Open any file for archive entry.
 1\1\GINC-COMPUTE-0-1\SP\RM062X\def2TZVP\C21H25B1N2O3\ZTAN64\14-Aug-202
 4\0\\# M062X/def2tzvp int=(grid=ultrafine) nmr=giao guess=read geom=ch
 eck\\pyrd4.xyz\\0,1\O,0,2.2063427997,-1.328524885,3.6540663976\C,0,1.7
 010597408,-0.232877241,3.4937986429\N,0,2.3601527511,0.9735177673,3.71
 63909666\C,0,3.6543647837,1.15075739,4.2308719444\N,0,4.0983391146,0.2
 754297684,5.1324663826\C,0,5.3265830898,0.4878633672,5.6192065997\C,0,
 6.1387533192,1.55942018,5.2685068476\C,0,5.662465705,2.4912057045,4.33
 21568614\C,0,6.4523639049,3.6683777293,3.8923862126\C,0,7.3680575314,4
 .3957613638,4.8607055983\C,0,7.9614956216,3.5831992889,3.7514356092\C,
 0,4.3927646685,2.2651817411,3.8031499478\C,0,0.2933375133,-0.069144005
 ,2.9926570442\C,0,-0.4834160258,1.0717522777,3.2386567581\C,0,-1.78388
 90536,1.1504233824,2.7481525207\C,0,-2.3406134573,0.098343512,2.004000
 2935\B,0,-3.7896584165,0.1915531015,1.4580982059\O,0,-4.6259503978,1.2
 494680535,1.7161040982\C,0,-5.7925742371,1.0891001303,0.860423461\C,0,
 -7.0200019432,1.5877626214,1.6118270484\C,0,-5.5436358761,1.9455154512
 ,-0.384148435\C,0,-5.7775186051,-0.4547883715,0.562224026\C,0,-6.49688
 20353,-1.2821752491,1.6309926157\C,0,-6.2609591652,-0.8471055175,-0.82
 78602842\O,0,-4.3619916681,-0.775783327,0.6705925363\C,0,-1.555767086,
 -1.045746904,1.7780018624\C,0,-0.2590292469,-1.1340332924,2.2699172448
 \H,0,1.956735867,1.7814699804,3.2668572403\H,0,5.6754616209,-0.2426036
 438,6.3463684894\H,0,7.1195646014,1.662319744,5.7201348042\H,0,5.94392
 62614,4.2922883713,3.1627957014\H,0,7.4235811462,4.0076871795,5.872823
 9552\H,0,7.4097073509,5.4780365256,4.7930330621\H,0,8.4156274124,4.100
 4782194,2.9125386056\H,0,8.4262774892,2.6336997789,3.9972603429\H,0,3.
 9828682997,2.9404397213,3.0569593028\H,0,-0.0899988273,1.8814017606,3.
 8463500409\H,0,-2.3849299087,2.0322489936,2.9483028788\H,0,-7.12671544
 ,1.0928424438,2.5778441848\H,0,-7.9278373065,1.4139386016,1.0255635302
 \H,0,-6.9306909362,2.6627710997,1.7890732794\H,0,-6.4057870821,1.93768
 52115,-1.0566359873\H,0,-4.6679037909,1.5934986771,-0.9356467862\H,0,-
 5.3571354012,2.9760229319,-0.0719664504\H,0,-7.5814594984,-1.154535278
 1,1.5758425087\H,0,-6.1634031575,-1.0052311715,2.6344922849\H,0,-6.263
 8584248,-2.3383494098,1.4754288507\H,0,-7.3050049574,-0.55102139,-0.97
 07259687\H,0,-6.1961458174,-1.931835336,-0.9463841782\H,0,-5.655499300
 1,-0.3844625681,-1.6082090848\H,0,-1.9773550665,-1.870518057,1.2115306
 031\H,0,0.3501815365,-2.0171264238,2.1125877837\\Version=ES64L-G16RevC
 .01\State=1-A\HF=-1175.3900175\RMSD=3.080e-09\Dipole=-0.8112664,1.9551
 023,-0.9186347\Quadrupole=21.9319403,-10.4140905,-11.5178498,15.639440
 8,8.2870885,3.7758252\PG=C01 [X(C21H25B1N2O3)]\\@
 The archive entry for this job was punched.


 NATURE GIVES TO EVERY TIME AND SEASON SOME BEAUTY OF ITS OWN.

                                                    --DICKENS
 Job cpu time:       0 days  4 hours 23 minutes  3.8 seconds.
 Elapsed time:       0 days  0 hours 17 minutes 43.1 seconds.
 File lengths (MBytes):  RWF=    543 Int=      0 D2E=      0 Chk=     88 Scr=      1
 Normal termination of Gaussian 16 at Wed Aug 14 20:26:04 2024.
 
 
-----Kestrel cluster job statistics-----
Time info:

real	82m42.377s
user	1300m5.121s
sys	0m41.331s
 
Disk space usage:
88M	/scratch/362971.kestrel.chem.wisc.edu
