 Entering Gaussian System, Link 0=/share/apps/gaussian/g16/g16
 Initial command:
 /share/apps/gaussian/g16/l1.exe "/scratch/362945.kestrel.chem.wisc.edu/Gau-83705.inp" -scrdir="/scratch/362945.kestrel.chem.wisc.edu/"
 Entering Link 1 = /share/apps/gaussian/g16/l1.exe PID=     83707.
  
 Copyright (c) 1988-2019, Gaussian, Inc.  All Rights Reserved.
  
 This is part of the Gaussian(R) 16 program.  It is based on
 the Gaussian(R) 09 system (copyright 2009, Gaussian, Inc.),
 the Gaussian(R) 03 system (copyright 2003, Gaussian, Inc.),
 the Gaussian(R) 98 system (copyright 1998, Gaussian, Inc.),
 the Gaussian(R) 94 system (copyright 1995, Gaussian, Inc.),
 the Gaussian 92(TM) system (copyright 1992, Gaussian, Inc.),
 the Gaussian 90(TM) system (copyright 1990, Gaussian, Inc.),
 the Gaussian 88(TM) system (copyright 1988, Gaussian, Inc.),
 the Gaussian 86(TM) system (copyright 1986, Carnegie Mellon
 University), and the Gaussian 82(TM) system (copyright 1983,
 Carnegie Mellon University). Gaussian is a federally registered
 trademark of Gaussian, Inc.
  
 This software contains proprietary and confidential information,
 including trade secrets, belonging to Gaussian, Inc.
  
 This software is provided under written license and may be
 used, copied, transmitted, or stored only in accord with that
 written license.
  
 The following legend is applicable only to US Government
 contracts under FAR:
  
                    RESTRICTED RIGHTS LEGEND
  
 Use, reproduction and disclosure by the US Government is
 subject to restrictions as set forth in subparagraphs (a)
 and (c) of the Commercial Computer Software - Restricted
 Rights clause in FAR 52.227-19.
  
 Gaussian, Inc.
 340 Quinnipiac St., Bldg. 40, Wallingford CT 06492
  
  
 ---------------------------------------------------------------
 Warning -- This program may not be used in any manner that
 competes with the business of Gaussian, Inc. or will provide
 assistance to any competitor of Gaussian, Inc.  The licensee
 of this program is prohibited from giving any competitor of
 Gaussian, Inc. access to this program.  By using this program,
 the user acknowledges that Gaussian, Inc. is engaged in the
 business of creating and licensing software in the field of
 computational chemistry and represents and warrants to the
 licensee that it is not a competitor of Gaussian, Inc. and that
 it will not use this program in any manner prohibited above.
 ---------------------------------------------------------------
  

 Cite this work as:
 Gaussian 16, Revision C.01,
 M. J. Frisch, G. W. Trucks, H. B. Schlegel, G. E. Scuseria, 
 M. A. Robb, J. R. Cheeseman, G. Scalmani, V. Barone, 
 G. A. Petersson, H. Nakatsuji, X. Li, M. Caricato, A. V. Marenich, 
 J. Bloino, B. G. Janesko, R. Gomperts, B. Mennucci, H. P. Hratchian, 
 J. V. Ortiz, A. F. Izmaylov, J. L. Sonnenberg, D. Williams-Young, 
 F. Ding, F. Lipparini, F. Egidi, J. Goings, B. Peng, A. Petrone, 
 T. Henderson, D. Ranasinghe, V. G. Zakrzewski, J. Gao, N. Rega, 
 G. Zheng, W. Liang, M. Hada, M. Ehara, K. Toyota, R. Fukuda, 
 J. Hasegawa, M. Ishida, T. Nakajima, Y. Honda, O. Kitao, H. Nakai, 
 T. Vreven, K. Throssell, J. A. Montgomery, Jr., J. E. Peralta, 
 F. Ogliaro, M. J. Bearpark, J. J. Heyd, E. N. Brothers, K. N. Kudin, 
 V. N. Staroverov, T. A. Keith, R. Kobayashi, J. Normand, 
 K. Raghavachari, A. P. Rendell, J. C. Burant, S. S. Iyengar, 
 J. Tomasi, M. Cossi, J. M. Millam, M. Klene, C. Adamo, R. Cammi, 
 J. W. Ochterski, R. L. Martin, K. Morokuma, O. Farkas, 
 J. B. Foresman, and D. J. Fox, Gaussian, Inc., Wallingford CT, 2019.
 
 ******************************************
 Gaussian 16:  ES64L-G16RevC.01  3-Jul-2019
                14-Aug-2024 
 ******************************************
 %nprocs=16
 Will use up to   16 processors via shared memory.
 %mem=16GB
 %chk=pyrd10_conf-11.chk
 ----------------------------------------------------------------------
 # B3LYP/6-31G(d,p) symmetry=loose empiricaldispersion=GD3BJ int=(grid=
 ultrafine) opt freq=noraman
 ----------------------------------------------------------------------
 1/18=20,19=15,26=4,38=1/1,3;
 2/9=110,12=2,17=4,18=3,40=1/2;
 3/5=1,6=6,7=101,11=2,25=1,30=1,71=1,74=-5,75=-5,124=41/1,2,3;
 4//1;
 5/5=2,38=5/2;
 6/7=2,8=2,9=2,10=2,28=1/1;
 7//1,2,3,16;
 1/18=20,19=15,26=4/3(2);
 2/9=110/2;
 99//99;
 2/9=110/2;
 3/5=1,6=6,7=101,11=2,25=1,30=1,71=1,74=-5,75=-5,124=41/1,2,3;
 4/5=5,16=3,69=1/1;
 5/5=2,38=5/2;
 7//1,2,3,16;
 1/18=20,19=15,26=4/3(-5);
 2/9=110/2;
 6/7=2,8=2,9=2,10=2,19=2,28=1/1;
 99/9=1/99;
 ----------
 pyrd10.xyz
 ----------
 Symbolic Z-matrix:
 Charge =  0 Multiplicity = 1
 Br                    5.9262   -0.9854    1.2563 
 C                     4.3471   -1.291     0.0856 
 C                     3.1036   -1.497     0.9621 
 C                     1.8235   -1.7424    0.1352 
 C                     0.5362   -1.9578    0.9301 
 C                     0.4832   -1.9403    2.3324 
 N                    -0.662    -2.132     3.0354 
 C                    -1.8057   -2.3503    2.3402 
 C                    -1.8472   -2.3846    0.9459 
 C                    -0.6599   -2.1855    0.2388 
 H                     4.2465   -0.4227   -0.5673 
 H                     4.5586   -2.1639   -0.5337 
 H                     3.28     -2.3431    1.6287 
 H                     2.9708   -0.618     1.5955 
 H                     1.9688   -2.6175   -0.501 
 H                     1.6602   -0.8957   -0.5342 
 H                     1.3628   -1.771     2.9348 
 H                    -2.7008   -2.4994    2.9272 
 H                    -2.7767   -2.5612    0.4248 
 H                    -0.6723   -2.2085   -0.8415 
 

 GradGradGradGradGradGradGradGradGradGradGradGradGradGradGradGradGradGrad
 Berny optimization.
 Initialization pass.
                           ----------------------------
                           !    Initial Parameters    !
                           ! (Angstroms and Degrees)  !
 --------------------------                            --------------------------
 ! Name  Definition              Value          Derivative Info.                !
 --------------------------------------------------------------------------------
 ! R1    R(1,2)                  1.9893         estimate D2E/DX2                !
 ! R2    R(2,3)                  1.5352         estimate D2E/DX2                !
 ! R3    R(2,11)                 1.091          estimate D2E/DX2                !
 ! R4    R(2,12)                 1.091          estimate D2E/DX2                !
 ! R5    R(3,4)                  1.5436         estimate D2E/DX2                !
 ! R6    R(3,13)                 1.0915         estimate D2E/DX2                !
 ! R7    R(3,14)                 1.0915         estimate D2E/DX2                !
 ! R8    R(4,5)                  1.5282         estimate D2E/DX2                !
 ! R9    R(4,15)                 1.0916         estimate D2E/DX2                !
 ! R10   R(4,16)                 1.0916         estimate D2E/DX2                !
 ! R11   R(5,6)                  1.4034         estimate D2E/DX2                !
 ! R12   R(5,10)                 1.4001         estimate D2E/DX2                !
 ! R13   R(6,7)                  1.3574         estimate D2E/DX2                !
 ! R14   R(6,17)                 1.0795         estimate D2E/DX2                !
 ! R15   R(7,8)                  1.3561         estimate D2E/DX2                !
 ! R16   R(8,9)                  1.3953         estimate D2E/DX2                !
 ! R17   R(8,18)                 1.0807         estimate D2E/DX2                !
 ! R18   R(9,10)                 1.3962         estimate D2E/DX2                !
 ! R19   R(9,19)                 1.0801         estimate D2E/DX2                !
 ! R20   R(10,20)                1.0806         estimate D2E/DX2                !
 ! A1    A(1,2,3)              109.1214         estimate D2E/DX2                !
 ! A2    A(1,2,11)             107.6438         estimate D2E/DX2                !
 ! A3    A(1,2,12)             107.6431         estimate D2E/DX2                !
 ! A4    A(3,2,11)             111.9475         estimate D2E/DX2                !
 ! A5    A(3,2,12)             111.9471         estimate D2E/DX2                !
 ! A6    A(11,2,12)            108.3576         estimate D2E/DX2                !
 ! A7    A(2,3,4)              112.7804         estimate D2E/DX2                !
 ! A8    A(2,3,13)             108.7709         estimate D2E/DX2                !
 ! A9    A(2,3,14)             108.7707         estimate D2E/DX2                !
 ! A10   A(4,3,13)             109.7523         estimate D2E/DX2                !
 ! A11   A(4,3,14)             109.7542         estimate D2E/DX2                !
 ! A12   A(13,3,14)            106.8285         estimate D2E/DX2                !
 ! A13   A(3,4,5)              116.253          estimate D2E/DX2                !
 ! A14   A(3,4,15)             109.2244         estimate D2E/DX2                !
 ! A15   A(3,4,16)             109.223          estimate D2E/DX2                !
 ! A16   A(5,4,15)             107.5942         estimate D2E/DX2                !
 ! A17   A(5,4,16)             107.5944         estimate D2E/DX2                !
 ! A18   A(15,4,16)            106.5176         estimate D2E/DX2                !
 ! A19   A(4,5,6)              123.353          estimate D2E/DX2                !
 ! A20   A(4,5,10)             119.0589         estimate D2E/DX2                !
 ! A21   A(6,5,10)             117.588          estimate D2E/DX2                !
 ! A22   A(5,6,7)              123.203          estimate D2E/DX2                !
 ! A23   A(5,6,17)             121.9241         estimate D2E/DX2                !
 ! A24   A(7,6,17)             114.8729         estimate D2E/DX2                !
 ! A25   A(6,7,8)              117.9549         estimate D2E/DX2                !
 ! A26   A(7,8,9)              122.7725         estimate D2E/DX2                !
 ! A27   A(7,8,18)             116.249          estimate D2E/DX2                !
 ! A28   A(9,8,18)             120.9785         estimate D2E/DX2                !
 ! A29   A(8,9,10)             118.5079         estimate D2E/DX2                !
 ! A30   A(8,9,19)             120.7765         estimate D2E/DX2                !
 ! A31   A(10,9,19)            120.7156         estimate D2E/DX2                !
 ! A32   A(5,10,9)             119.9737         estimate D2E/DX2                !
 ! A33   A(5,10,20)            120.4546         estimate D2E/DX2                !
 ! A34   A(9,10,20)            119.5717         estimate D2E/DX2                !
 ! D1    D(1,2,3,4)           -179.9993         estimate D2E/DX2                !
 ! D2    D(1,2,3,13)           -58.0029         estimate D2E/DX2                !
 ! D3    D(1,2,3,14)            58.0021         estimate D2E/DX2                !
 ! D4    D(11,2,3,4)            60.9509         estimate D2E/DX2                !
 ! D5    D(11,2,3,13)         -177.0528         estimate D2E/DX2                !
 ! D6    D(11,2,3,14)          -61.0477         estimate D2E/DX2                !
 ! D7    D(12,2,3,4)           -60.9506         estimate D2E/DX2                !
 ! D8    D(12,2,3,13)           61.0458         estimate D2E/DX2                !
 ! D9    D(12,2,3,14)          177.0508         estimate D2E/DX2                !
 ! D10   D(2,3,4,5)           -179.999          estimate D2E/DX2                !
 ! D11   D(2,3,4,15)            58.0676         estimate D2E/DX2                !
 ! D12   D(2,3,4,16)           -58.0664         estimate D2E/DX2                !
 ! D13   D(13,3,4,5)            58.5595         estimate D2E/DX2                !
 ! D14   D(13,3,4,15)          -63.3739         estimate D2E/DX2                !
 ! D15   D(13,3,4,16)         -179.5079         estimate D2E/DX2                !
 ! D16   D(14,3,4,5)           -58.5565         estimate D2E/DX2                !
 ! D17   D(14,3,4,15)          179.5101         estimate D2E/DX2                !
 ! D18   D(14,3,4,16)           63.3761         estimate D2E/DX2                !
 ! D19   D(3,4,5,6)             -0.0027         estimate D2E/DX2                !
 ! D20   D(3,4,5,10)           179.9987         estimate D2E/DX2                !
 ! D21   D(15,4,5,6)           122.787          estimate D2E/DX2                !
 ! D22   D(15,4,5,10)          -57.2116         estimate D2E/DX2                !
 ! D23   D(16,4,5,6)          -122.7907         estimate D2E/DX2                !
 ! D24   D(16,4,5,10)           57.2107         estimate D2E/DX2                !
 ! D25   D(4,5,6,7)            179.9999         estimate D2E/DX2                !
 ! D26   D(4,5,6,17)             0.0039         estimate D2E/DX2                !
 ! D27   D(10,5,6,7)            -0.0015         estimate D2E/DX2                !
 ! D28   D(10,5,6,17)         -179.9975         estimate D2E/DX2                !
 ! D29   D(4,5,10,9)          -179.9968         estimate D2E/DX2                !
 ! D30   D(4,5,10,20)           -0.0027         estimate D2E/DX2                !
 ! D31   D(6,5,10,9)             0.0046         estimate D2E/DX2                !
 ! D32   D(6,5,10,20)          179.9986         estimate D2E/DX2                !
 ! D33   D(5,6,7,8)             -0.0024         estimate D2E/DX2                !
 ! D34   D(17,6,7,8)           179.9938         estimate D2E/DX2                !
 ! D35   D(6,7,8,9)              0.0034         estimate D2E/DX2                !
 ! D36   D(6,7,8,18)          -179.9992         estimate D2E/DX2                !
 ! D37   D(7,8,9,10)            -0.0004         estimate D2E/DX2                !
 ! D38   D(7,8,9,19)           179.9981         estimate D2E/DX2                !
 ! D39   D(18,8,9,10)         -179.9977         estimate D2E/DX2                !
 ! D40   D(18,8,9,19)            0.0008         estimate D2E/DX2                !
 ! D41   D(8,9,10,5)            -0.0037         estimate D2E/DX2                !
 ! D42   D(8,9,10,20)         -179.9978         estimate D2E/DX2                !
 ! D43   D(19,9,10,5)          179.9978         estimate D2E/DX2                !
 ! D44   D(19,9,10,20)           0.0037         estimate D2E/DX2                !
 --------------------------------------------------------------------------------
 Trust Radius=3.00D-01 FncErr=1.00D-07 GrdErr=1.00D-06 EigMax=2.50D+02 EigMin=1.00D-04
 Number of steps in this run=    108 maximum allowed number of steps=    120.
 GradGradGradGradGradGradGradGradGradGradGradGradGradGradGradGradGradGrad

                          Input orientation:                          
 ---------------------------------------------------------------------
 Center     Atomic      Atomic             Coordinates (Angstroms)
 Number     Number       Type             X           Y           Z
 ---------------------------------------------------------------------
      1         35           0        5.926200   -0.985400    1.256300
      2          6           0        4.347100   -1.291000    0.085600
      3          6           0        3.103600   -1.497000    0.962100
      4          6           0        1.823500   -1.742400    0.135200
      5          6           0        0.536200   -1.957800    0.930100
      6          6           0        0.483200   -1.940300    2.332400
      7          7           0       -0.662000   -2.132000    3.035400
      8          6           0       -1.805700   -2.350300    2.340200
      9          6           0       -1.847200   -2.384600    0.945900
     10          6           0       -0.659900   -2.185500    0.238800
     11          1           0        4.246500   -0.422700   -0.567300
     12          1           0        4.558600   -2.163900   -0.533700
     13          1           0        3.280000   -2.343100    1.628700
     14          1           0        2.970800   -0.618000    1.595500
     15          1           0        1.968800   -2.617500   -0.501000
     16          1           0        1.660200   -0.895700   -0.534200
     17          1           0        1.362800   -1.771000    2.934800
     18          1           0       -2.700800   -2.499400    2.927200
     19          1           0       -2.776700   -2.561200    0.424800
     20          1           0       -0.672300   -2.208500   -0.841500
 ---------------------------------------------------------------------
                    Distance matrix (angstroms):
                    1          2          3          4          5
     1  Br   0.000000
     2  C    1.989343   0.000000
     3  C    2.883636   1.535246   0.000000
     4  C    4.319961   2.564133   1.543581   0.000000
     5  C    5.486717   3.959894   2.608621   1.528203   0.000000
     6  C    5.629927   4.516572   2.990106   2.581328   1.403410
     7  N    6.919846   5.873643   4.345290   3.839357   2.428645
     8  C    7.925911   6.637943   5.169962   4.289832   2.761690
     9  C    7.904420   6.348656   5.029763   3.813620   2.421364
    10  C    6.771430   5.088580   3.893729   2.524747   1.400142
    11  H    2.542349   1.091029   2.190754   2.847111   4.285448
    12  H    2.542301   1.090972   2.190707   2.847079   4.285428
    13  H    2.997400   2.150994   1.091493   2.170893   2.857435
    14  H    2.997404   2.151030   1.091546   2.170956   2.857464
    15  H    4.627404   2.785680   2.164244   1.091633   2.129693
    16  H    4.627385   2.785650   2.164227   1.091634   2.129696
    17  H    4.925358   4.153840   2.645185   2.837397   2.176461
    18  H    8.916795   7.694661   6.209467   5.370066   3.841863
    19  H    8.883412   7.244100   5.999928   4.681468   3.405103
    20  H    7.031141   5.186106   4.244600   2.720333   2.159141
                    6          7          8          9         10
     6  C    0.000000
     7  N    1.357365   0.000000
     8  C    2.325344   1.356100   0.000000
     9  C    2.747826   2.415474   1.395339   0.000000
    10  C    2.397908   2.797112   2.399145   1.396178   0.000000
    11  H    4.987364   6.324123   6.985580   6.578146   5.275417
    12  H    4.987325   6.324093   6.985582   6.578161   5.275411
    13  H    2.911964   4.190791   5.135234   5.172632   4.180846
    14  H    2.911984   4.190793   5.135211   5.172618   4.180870
    15  H    3.270132   4.434292   4.731877   4.087740   2.764777
    16  H    3.270155   4.434309   4.731860   4.087710   2.764774
    17  H    1.079465   2.059188   3.275443   3.825745   3.395812
    18  H    3.286980   2.074463   1.080742   2.160408   3.389882
    19  H    3.827715   3.386946   2.157794   1.080140   2.157913
    20  H    3.388326   3.877668   3.380520   2.146206   1.080616
                   11         12         13         14         15
    11  H    0.000000
    12  H    1.769269   0.000000
    13  H    3.073186   2.518512   0.000000
    14  H    2.518582   3.073176   1.752905   0.000000
    15  H    3.163773   2.629427   2.515981   3.065504   0.000000
    16  H    2.629405   3.163709   3.065429   2.516031   1.749552
    17  H    4.732689   4.732653   2.389320   2.389309   3.590058
    18  H    8.049173   8.049179   6.122132   6.122102   5.794106
    19  H    7.408291   7.408319   6.179042   6.179023   4.835292
    20  H    5.240120   5.240138   4.662690   4.662707   2.694185
                   16         17         18         19         20
    16  H    0.000000
    17  H    3.590064   0.000000
    18  H    5.794089   4.128374   0.000000
    19  H    4.835251   4.905097   2.504313   0.000000
    20  H    2.694148   4.312016   4.289818   2.481212   0.000000
 Stoichiometry    C8H10BrN
 Framework group  C1[X(C8H10BrN)]
 Deg. of freedom    54
 Full point group                 C1      NOp   1
 Largest Abelian subgroup         C1      NOp   1
 Largest concise Abelian subgroup C1      NOp   1
                         Standard orientation:                         
 ---------------------------------------------------------------------
 Center     Atomic      Atomic             Coordinates (Angstroms)
 Number     Number       Type             X           Y           Z
 ---------------------------------------------------------------------
      1         35           0       -3.441458   -0.310889   -0.000011
      2          6           0       -1.922331    0.973533    0.000000
      3          6           0       -0.601754    0.190553    0.000011
      4          6           0        0.638173    1.109911    0.000038
      5          6           0        1.997486    0.411576    0.000027
      6          6           0        2.148118   -0.983727    0.000049
      7          7           0        3.357095   -1.600831    0.000036
      8          6           0        4.467896   -0.822932   -0.000050
      9          6           0        4.413573    0.571350   -0.000056
     10          6           0        3.161667    1.189446    0.000023
     11          1           0       -2.022480    1.604170   -0.884653
     12          1           0       -2.022492    1.604121    0.884616
     13          1           0       -0.578922   -0.459599    0.876447
     14          1           0       -0.578917   -0.459641   -0.876458
     15          1           0        0.602177    1.761924    0.874822
     16          1           0        0.602169    1.761945   -0.874730
     17          1           0        1.298484   -1.649584    0.000012
     18          1           0        5.415436   -1.342712   -0.000072
     19          1           0        5.319376    1.159758   -0.000095
     20          1           0        3.099555    2.268275   -0.000016
 ---------------------------------------------------------------------
 Rotational constants (GHZ):           3.6105873           0.2635426           0.2467343
 Standard basis: 6-31G(d,p) (6D, 7F)
 There are   215 symmetry adapted cartesian basis functions of A   symmetry.
 There are   215 symmetry adapted basis functions of A   symmetry.
   215 basis functions,   405 primitive gaussians,   215 cartesian basis functions
    50 alpha electrons       50 beta electrons
       nuclear repulsion energy       670.1107533484 Hartrees.
 NAtoms=   20 NActive=   20 NUniq=   20 SFac= 1.00D+00 NAtFMM=   60 NAOKFM=F Big=F
 Integral buffers will be    131072 words long.
 Raffenetti 2 integral format.
 Two-electron integral symmetry is turned on.
 Nuclear repulsion after empirical dispersion term =      670.0741461086 Hartrees.
 One-electron integrals computed using PRISM.
 NBasis=   215 RedAO= T EigKep=  7.52D-04  NBF=   215
 NBsUse=   215 1.00D-06 EigRej= -1.00D+00 NBFU=   215
 ExpMin= 1.43D-01 ExpMax= 5.74D+05 ExpMxC= 5.74D+03 IAcc=3 IRadAn=         5 AccDes= 0.00D+00
 Harris functional with IExCor=  402 and IRadAn=       5 diagonalized for initial guess.
 HarFok:  IExCor=  402 AccDes= 0.00D+00 IRadAn=         5 IDoV= 1 UseB2=F ITyADJ=14
 ICtDFT=  3500011 ScaDFX=  1.000000  1.000000  1.000000  1.000000
 FoFCou: FMM=F IPFlag=           0 FMFlag=      100000 FMFlg1=           0
         NFxFlg=           0 DoJE=T BraDBF=F KetDBF=T FulRan=T
         wScrn=  0.000000 ICntrl=       500 IOpCl=  0 I1Cent=   200000004 NGrid=           0
         NMat0=    1 NMatS0=      1 NMatT0=    0 NMatD0=    1 NMtDS0=    0 NMtDT0=    0
 Petite list used in FoFCou.
 Requested convergence on RMS density matrix=1.00D-08 within 128 cycles.
 Requested convergence on MAX density matrix=1.00D-06.
 Requested convergence on             energy=1.00D-06.
 No special actions if energy rises.
 Integral accuracy reduced to 1.0D-05 until final iterations.
 Initial convergence to 1.0D-05 achieved.  Increase integral accuracy.
 SCF Done:  E(RB3LYP) =  -2937.38147252     A.U. after   14 cycles
            NFock= 14  Conv=0.43D-08     -V/T= 2.0066

 **********************************************************************

            Population analysis using the SCF Density.

 **********************************************************************

 Orbital symmetries:
       Occupied  (A) (A) (A) (A) (A) (A) (A) (A) (A) (A) (A) (A)
                 (A) (A) (A) (A) (A) (A) (A) (A) (A) (A) (A) (A)
                 (A) (A) (A) (A) (A) (A) (A) (A) (A) (A) (A) (A)
                 (A) (A) (A) (A) (A) (A) (A) (A) (A) (A) (A) (A)
                 (A) (A)
       Virtual   (A) (A) (A) (A) (A) (A) (A) (A) (A) (A) (A) (A)
                 (A) (A) (A) (A) (A) (A) (A) (A) (A) (A) (A) (A)
                 (A) (A) (A) (A) (A) (A) (A) (A) (A) (A) (A) (A)
                 (A) (A) (A) (A) (A) (A) (A) (A) (A) (A) (A) (A)
                 (A) (A) (A) (A) (A) (A) (A) (A) (A) (A) (A) (A)
                 (A) (A) (A) (A) (A) (A) (A) (A) (A) (A) (A) (A)
                 (A) (A) (A) (A) (A) (A) (A) (A) (A) (A) (A) (A)
                 (A) (A) (A) (A) (A) (A) (A) (A) (A) (A) (A) (A)
                 (A) (A) (A) (A) (A) (A) (A) (A) (A) (A) (A) (A)
                 (A) (A) (A) (A) (A) (A) (A) (A) (A) (A) (A) (A)
                 (A) (A) (A) (A) (A) (A) (A) (A) (A) (A) (A) (A)
                 (A) (A) (A) (A) (A) (A) (A) (A) (A) (A) (A) (A)
                 (A) (A) (A) (A) (A) (A) (A) (A) (A) (A) (A) (A)
                 (A) (A) (A) (A) (A) (A) (A) (A) (A)
 The electronic state is 1-A.
 Alpha  occ. eigenvalues -- -482.89776 -61.86023 -56.38101 -56.37722 -56.37715
 Alpha  occ. eigenvalues --  -14.33172 -10.25023 -10.22324 -10.22295 -10.21278
 Alpha  occ. eigenvalues --  -10.20939 -10.20907 -10.20632 -10.20220  -8.57170
 Alpha  occ. eigenvalues --   -6.52559  -6.51283  -6.51272  -2.64120  -2.63766
 Alpha  occ. eigenvalues --   -2.63757  -2.62739  -2.62739  -0.93084  -0.83465
 Alpha  occ. eigenvalues --   -0.80745  -0.77826  -0.74103  -0.67943  -0.63738
 Alpha  occ. eigenvalues --   -0.61689  -0.59619  -0.52314  -0.49431  -0.48331
 Alpha  occ. eigenvalues --   -0.46270  -0.43684  -0.43446  -0.41834  -0.40330
 Alpha  occ. eigenvalues --   -0.38698  -0.38346  -0.36762  -0.36082  -0.34471
 Alpha  occ. eigenvalues --   -0.28156  -0.27424  -0.27394  -0.25768  -0.25196
 Alpha virt. eigenvalues --   -0.02925  -0.01029  -0.00594   0.08508   0.10038
 Alpha virt. eigenvalues --    0.11085   0.12181   0.12954   0.13994   0.15254
 Alpha virt. eigenvalues --    0.16971   0.17095   0.17537   0.19345   0.20961
 Alpha virt. eigenvalues --    0.21607   0.23521   0.25010   0.28313   0.30349
 Alpha virt. eigenvalues --    0.34005   0.35718   0.40423   0.43143   0.43648
 Alpha virt. eigenvalues --    0.46045   0.47581   0.47737   0.47752   0.50655
 Alpha virt. eigenvalues --    0.51167   0.51351   0.53073   0.54313   0.56166
 Alpha virt. eigenvalues --    0.56422   0.57857   0.59273   0.59496   0.61107
 Alpha virt. eigenvalues --    0.61594   0.62388   0.64414   0.65841   0.66663
 Alpha virt. eigenvalues --    0.68553   0.68874   0.76061   0.76428   0.77035
 Alpha virt. eigenvalues --    0.79114   0.80284   0.81411   0.83266   0.84297
 Alpha virt. eigenvalues --    0.85830   0.87344   0.88427   0.88979   0.89567
 Alpha virt. eigenvalues --    0.91622   0.92833   0.95099   0.95403   0.99264
 Alpha virt. eigenvalues --    1.02007   1.04174   1.07987   1.08809   1.12278
 Alpha virt. eigenvalues --    1.16799   1.21176   1.24443   1.24903   1.32013
 Alpha virt. eigenvalues --    1.34932   1.37931   1.40076   1.43259   1.43264
 Alpha virt. eigenvalues --    1.45153   1.47843   1.47865   1.56688   1.60756
 Alpha virt. eigenvalues --    1.66267   1.68492   1.69672   1.71928   1.74128
 Alpha virt. eigenvalues --    1.78672   1.80471   1.81897   1.85775   1.86460
 Alpha virt. eigenvalues --    1.89535   1.93971   1.96617   1.96832   1.99118
 Alpha virt. eigenvalues --    2.00819   2.03907   2.05259   2.07959   2.09459
 Alpha virt. eigenvalues --    2.10652   2.11725   2.14041   2.20663   2.20904
 Alpha virt. eigenvalues --    2.23519   2.29518   2.30163   2.31496   2.32726
 Alpha virt. eigenvalues --    2.34583   2.36024   2.38494   2.41331   2.41797
 Alpha virt. eigenvalues --    2.45141   2.49274   2.51393   2.52297   2.53947
 Alpha virt. eigenvalues --    2.56671   2.60708   2.61604   2.63389   2.67030
 Alpha virt. eigenvalues --    2.67581   2.68663   2.71641   2.72855   2.78286
 Alpha virt. eigenvalues --    2.82578   2.83166   2.84456   2.87988   2.90065
 Alpha virt. eigenvalues --    2.99806   3.04020   3.18432   3.20108   3.23329
 Alpha virt. eigenvalues --    3.25240   3.30058   3.33317   3.37562   3.39133
 Alpha virt. eigenvalues --    3.46755   3.47269   3.54619   3.78662   4.08739
 Alpha virt. eigenvalues --    4.14116   4.18448   4.26155   4.31518   4.40016
 Alpha virt. eigenvalues --    4.47619   4.62353   4.77293   8.62202  72.89617
          Condensed to atoms (all electrons):
               1          2          3          4          5          6
     1  Br  35.009823   0.254068  -0.049917   0.004403  -0.000118  -0.000000
     2  C    0.254068   4.978920   0.337265  -0.030871   0.002626   0.000327
     3  C   -0.049917   0.337265   4.962743   0.324217  -0.024958  -0.004767
     4  C    0.004403  -0.030871   0.324217   5.075573   0.327186  -0.046944
     5  C   -0.000118   0.002626  -0.024958   0.327186   4.828501   0.489259
     6  C   -0.000000   0.000327  -0.004767  -0.046944   0.489259   4.807480
     7  N   -0.000000  -0.000002  -0.000111   0.006553  -0.015540   0.433039
     8  C   -0.000000   0.000000   0.000016   0.000133  -0.033336  -0.071548
     9  C   -0.000000   0.000001  -0.000161   0.006910  -0.018538  -0.041076
    10  C    0.000001  -0.000095   0.003280  -0.062902   0.526400  -0.034140
    11  H   -0.036582   0.377975  -0.035023  -0.002352  -0.000002  -0.000003
    12  H   -0.036584   0.377980  -0.035023  -0.002351  -0.000002  -0.000003
    13  H    0.001148  -0.039374   0.389623  -0.035884  -0.002494   0.000795
    14  H    0.001148  -0.039374   0.389620  -0.035882  -0.002492   0.000794
    15  H   -0.000023  -0.003813  -0.035643   0.369828  -0.030967   0.001012
    16  H   -0.000023  -0.003813  -0.035647   0.369827  -0.030967   0.001012
    17  H    0.000011  -0.000077   0.003845  -0.006697  -0.065080   0.390657
    18  H   -0.000000  -0.000000  -0.000000   0.000017   0.000809   0.004442
    19  H    0.000000  -0.000000   0.000001  -0.000102   0.005040   0.000409
    20  H    0.000000  -0.000005   0.000138  -0.008897  -0.052976   0.005481
               7          8          9         10         11         12
     1  Br  -0.000000  -0.000000  -0.000000   0.000001  -0.036582  -0.036584
     2  C   -0.000002   0.000000   0.000001  -0.000095   0.377975   0.377980
     3  C   -0.000111   0.000016  -0.000161   0.003280  -0.035023  -0.035023
     4  C    0.006553   0.000133   0.006910  -0.062902  -0.002352  -0.002351
     5  C   -0.015540  -0.033336  -0.018538   0.526400  -0.000002  -0.000002
     6  C    0.433039  -0.071548  -0.041076  -0.034140  -0.000003  -0.000003
     7  N    6.739998   0.460117  -0.023687  -0.057029   0.000000   0.000000
     8  C    0.460117   4.726408   0.501242  -0.037736  -0.000000  -0.000000
     9  C   -0.023687   0.501242   4.901630   0.515382  -0.000000  -0.000000
    10  C   -0.057029  -0.037736   0.515382   4.897126   0.000001   0.000001
    11  H    0.000000  -0.000000  -0.000000   0.000001   0.584651  -0.038862
    12  H    0.000000  -0.000000  -0.000000   0.000001  -0.038862   0.584640
    13  H   -0.000003  -0.000006  -0.000002   0.000128   0.005409  -0.005991
    14  H   -0.000003  -0.000006  -0.000002   0.000128  -0.005991   0.005410
    15  H   -0.000121   0.000034  -0.000084  -0.004145  -0.000500   0.004444
    16  H   -0.000121   0.000034  -0.000084  -0.004145   0.004445  -0.000500
    17  H   -0.049722   0.004849   0.000365   0.003929   0.000003   0.000003
    18  H   -0.050147   0.388081  -0.061465   0.003305   0.000000   0.000000
    19  H    0.004910  -0.035547   0.359237  -0.040052  -0.000000  -0.000000
    20  H   -0.000310   0.004993  -0.045326   0.376932   0.000001   0.000001
              13         14         15         16         17         18
     1  Br   0.001148   0.001148  -0.000023  -0.000023   0.000011  -0.000000
     2  C   -0.039374  -0.039374  -0.003813  -0.003813  -0.000077  -0.000000
     3  C    0.389623   0.389620  -0.035643  -0.035647   0.003845  -0.000000
     4  C   -0.035884  -0.035882   0.369828   0.369827  -0.006697   0.000017
     5  C   -0.002494  -0.002492  -0.030967  -0.030967  -0.065080   0.000809
     6  C    0.000795   0.000794   0.001012   0.001012   0.390657   0.004442
     7  N   -0.000003  -0.000003  -0.000121  -0.000121  -0.049722  -0.050147
     8  C   -0.000006  -0.000006   0.000034   0.000034   0.004849   0.388081
     9  C   -0.000002  -0.000002  -0.000084  -0.000084   0.000365  -0.061465
    10  C    0.000128   0.000128  -0.004145  -0.004145   0.003929   0.003305
    11  H    0.005409  -0.005991  -0.000500   0.004445   0.000003   0.000000
    12  H   -0.005991   0.005410   0.004444  -0.000500   0.000003   0.000000
    13  H    0.596412  -0.039294  -0.006262   0.005677   0.001557   0.000000
    14  H   -0.039294   0.596420   0.005676  -0.006261   0.001558   0.000000
    15  H   -0.006262   0.005676   0.618319  -0.038109   0.000082  -0.000000
    16  H    0.005677  -0.006261  -0.038109   0.618323   0.000082  -0.000000
    17  H    0.001557   0.001558   0.000082   0.000082   0.611834  -0.000198
    18  H    0.000000   0.000000  -0.000000  -0.000000  -0.000198   0.615322
    19  H    0.000000   0.000000  -0.000005  -0.000005   0.000026  -0.002245
    20  H    0.000005   0.000005   0.002565   0.002565  -0.000168  -0.000194
              19         20
     1  Br   0.000000   0.000000
     2  C   -0.000000  -0.000005
     3  C    0.000001   0.000138
     4  C   -0.000102  -0.008897
     5  C    0.005040  -0.052976
     6  C    0.000409   0.005481
     7  N    0.004910  -0.000310
     8  C   -0.035547   0.004993
     9  C    0.359237  -0.045326
    10  C   -0.040052   0.376932
    11  H   -0.000000   0.000001
    12  H   -0.000000   0.000001
    13  H    0.000000   0.000005
    14  H    0.000000   0.000005
    15  H   -0.000005   0.002565
    16  H   -0.000005   0.002565
    17  H    0.000026  -0.000168
    18  H   -0.002245  -0.000194
    19  H    0.622544  -0.006699
    20  H   -0.006699   0.630793
 Mulliken charges:
               1
     1  Br  -0.147353
     2  C   -0.211740
     3  C   -0.189498
     4  C   -0.251766
     5  C    0.097652
     6  C    0.063772
     7  N   -0.447822
     8  C    0.092272
     9  C   -0.094340
    10  C   -0.086369
    11  H    0.146829
    12  H    0.146839
    13  H    0.128556
    14  H    0.128548
    15  H    0.117712
    16  H    0.117710
    17  H    0.103143
    18  H    0.102272
    19  H    0.092488
    20  H    0.091096
 Sum of Mulliken charges =  -0.00000
 Mulliken charges with hydrogens summed into heavy atoms:
               1
     1  Br  -0.147353
     2  C    0.081928
     3  C    0.067606
     4  C   -0.016344
     5  C    0.097652
     6  C    0.166914
     7  N   -0.447822
     8  C    0.194544
     9  C   -0.001853
    10  C    0.004728
 Electronic spatial extent (au):  <R**2>=           3843.0301
 Charge=             -0.0000 electrons
 Dipole moment (field-independent basis, Debye):
    X=              1.3217    Y=              3.4354    Z=             -0.0001  Tot=              3.6809
 Quadrupole moment (field-independent basis, Debye-Ang):
   XX=            -75.1030   YY=            -71.8884   ZZ=            -73.1469
   XY=              6.0609   XZ=             -0.0006   YZ=              0.0002
 Traceless Quadrupole moment (field-independent basis, Debye-Ang):
   XX=             -1.7236   YY=              1.4911   ZZ=              0.2325
   XY=              6.0609   XZ=             -0.0006   YZ=              0.0002
 Octapole moment (field-independent basis, Debye-Ang**2):
  XXX=            -36.6435  YYY=              7.1596  ZZZ=             -0.0001  XYY=            -48.9504
  XXY=             20.0727  XXZ=             -0.0025  XZZ=            -42.8027  YZZ=             -1.9034
  YYZ=             -0.0006  XYZ=              0.0003
 Hexadecapole moment (field-independent basis, Debye-Ang**3):
 XXXX=          -3706.4173 YYYY=           -460.0949 ZZZZ=            -95.8259 XXXY=            118.2672
 XXXZ=             -0.0127 YYYX=             81.7859 YYYZ=              0.0006 ZZZX=              0.0012
 ZZZY=              0.0004 XXYY=           -745.0134 XXZZ=           -714.3968 YYZZ=            -89.2091
 XXYZ=              0.0012 YYXZ=             -0.0014 ZZXY=              5.8836
 N-N= 6.700741461086D+02 E-N=-8.320668629537D+03  KE= 2.917999313286D+03
 Calling FoFJK, ICntrl=      2127 FMM=F ISym2X=0 I1Cent= 0 IOpClX= 0 NMat=1 NMatS=1 NMatT=0.
 ***** Axes restored to original set *****
 -------------------------------------------------------------------
 Center     Atomic                   Forces (Hartrees/Bohr)
 Number     Number              X              Y              Z
 -------------------------------------------------------------------
      1       35          -0.003437695   -0.000733443   -0.006105958
      2        6          -0.010169483   -0.001714649    0.004101516
      3        6          -0.001786338   -0.000383585   -0.004516259
      4        6           0.000315274    0.000203101    0.007351698
      5        6           0.008258417    0.001488539    0.000658750
      6        6          -0.024310738   -0.004374365   -0.001141172
      7        7          -0.001984782   -0.000581917   -0.012015475
      8        6           0.022032652    0.004004219    0.003252633
      9        6           0.007389600    0.001337552    0.000848270
     10        6          -0.004446606   -0.000620044    0.008727767
     11        1           0.002804691    0.001796611    0.002467682
     12        1           0.003244771   -0.000646825    0.002492449
     13        1           0.000766373   -0.001458142    0.001323650
     14        1           0.000204639    0.001654770    0.001241680
     15        1           0.001391127   -0.002443531   -0.003393369
     16        1           0.000476685    0.002644723   -0.003492255
     17        1           0.004286499    0.000786026    0.001103534
     18        1          -0.003233876   -0.000522074    0.002933129
     19        1          -0.003287207   -0.000614510   -0.001356460
     20        1           0.001485998    0.000177543   -0.004481810
 -------------------------------------------------------------------
 Cartesian Forces:  Max     0.024310738 RMS     0.005633310

 GradGradGradGradGradGradGradGradGradGradGradGradGradGradGradGradGradGrad
 Berny optimization.
 FormGI is forming the generalized inverse of G from B-inverse, IUseBI=4.
 Internal  Forces:  Max     0.018510949 RMS     0.003599273
 Search for a local minimum.
 Step number   1 out of a maximum of  108
 All quantities printed in internal units (Hartrees-Bohrs-Radians)
 Mixed Optimization -- RFO/linear search
 Second derivative matrix not updated -- first step.
 ITU=  0
     Eigenvalues ---    0.00230   0.00300   0.00393   0.01367   0.02075
     Eigenvalues ---    0.02107   0.02115   0.02142   0.02145   0.02188
     Eigenvalues ---    0.02232   0.03450   0.03603   0.04762   0.05198
     Eigenvalues ---    0.05571   0.05654   0.08301   0.09891   0.12188
     Eigenvalues ---    0.13177   0.14500   0.16000   0.16000   0.16000
     Eigenvalues ---    0.16000   0.16000   0.16000   0.21920   0.22000
     Eigenvalues ---    0.22011   0.22250   0.23190   0.23451   0.25000
     Eigenvalues ---    0.28204   0.28944   0.29590   0.34625   0.34625
     Eigenvalues ---    0.34635   0.34641   0.34694   0.34701   0.35905
     Eigenvalues ---    0.35920   0.35977   0.36059   0.41882   0.43590
     Eigenvalues ---    0.45588   0.46147   0.51817   0.52960
 RFO step:  Lambda=-3.93701481D-03 EMin= 2.30000000D-03
 Linear search not attempted -- first point.
 Iteration  1 RMS(Cart)=  0.03007021 RMS(Int)=  0.00022673
 Iteration  2 RMS(Cart)=  0.00033225 RMS(Int)=  0.00006942
 Iteration  3 RMS(Cart)=  0.00000005 RMS(Int)=  0.00006942
 Variable       Old X    -DE/DX   Delta X   Delta X   Delta X     New X
                                 (Linear)    (Quad)   (Total)
    R1        3.75931  -0.00643   0.00000  -0.04321  -0.04321   3.71611
    R2        2.90119  -0.00798   0.00000  -0.02721  -0.02721   2.87398
    R3        2.06175  -0.00031   0.00000  -0.00087  -0.00087   2.06087
    R4        2.06164  -0.00027   0.00000  -0.00076  -0.00076   2.06087
    R5        2.91694  -0.00664   0.00000  -0.02322  -0.02322   2.89372
    R6        2.06262   0.00206   0.00000   0.00589   0.00589   2.06851
    R7        2.06272   0.00203   0.00000   0.00579   0.00579   2.06851
    R8        2.88789  -0.00613   0.00000  -0.02045  -0.02045   2.86744
    R9        2.06289   0.00412   0.00000   0.01177   0.01177   2.07466
   R10        2.06289   0.00412   0.00000   0.01177   0.01177   2.07466
   R11        2.65206  -0.00480   0.00000  -0.01081  -0.01079   2.64127
   R12        2.64589  -0.00398   0.00000  -0.00728  -0.00728   2.63861
   R13        2.56505  -0.01563   0.00000  -0.03032  -0.03031   2.53474
   R14        2.03989   0.00423   0.00000   0.01161   0.01161   2.05150
   R15        2.56266  -0.01851   0.00000  -0.03533  -0.03534   2.52732
   R16        2.63681  -0.00083   0.00000  -0.00164  -0.00165   2.63515
   R17        2.04231   0.00434   0.00000   0.01197   0.01197   2.05427
   R18        2.63839  -0.00584   0.00000  -0.01099  -0.01100   2.62740
   R19        2.04117   0.00358   0.00000   0.00985   0.00985   2.05102
   R20        2.04207   0.00446   0.00000   0.01228   0.01228   2.05435
    A1        1.90453   0.00606   0.00000   0.01972   0.01975   1.92427
    A2        1.87874  -0.00450   0.00000  -0.03355  -0.03353   1.84521
    A3        1.87873  -0.00450   0.00000  -0.03354  -0.03352   1.84521
    A4        1.95385   0.00087   0.00000   0.01139   0.01115   1.96500
    A5        1.95385   0.00087   0.00000   0.01140   0.01116   1.96501
    A6        1.89120   0.00073   0.00000   0.02078   0.02037   1.91156
    A7        1.96839  -0.00627   0.00000  -0.03069  -0.03070   1.93769
    A8        1.89841   0.00165   0.00000   0.00397   0.00400   1.90241
    A9        1.89841   0.00165   0.00000   0.00397   0.00400   1.90241
   A10        1.91554   0.00212   0.00000   0.01023   0.01014   1.92568
   A11        1.91557   0.00212   0.00000   0.01019   0.01010   1.92567
   A12        1.86451  -0.00101   0.00000   0.00404   0.00393   1.86844
   A13        2.02900  -0.00541   0.00000  -0.02336  -0.02332   2.00568
   A14        1.90632   0.00101   0.00000   0.00137   0.00144   1.90777
   A15        1.90630   0.00102   0.00000   0.00140   0.00148   1.90778
   A16        1.87787   0.00247   0.00000   0.01483   0.01478   1.89265
   A17        1.87788   0.00247   0.00000   0.01483   0.01478   1.89265
   A18        1.85908  -0.00128   0.00000  -0.00796  -0.00807   1.85102
   A19        2.15292   0.00015   0.00000  -0.00046  -0.00047   2.15245
   A20        2.07797   0.00293   0.00000   0.01048   0.01046   2.08843
   A21        2.05230  -0.00308   0.00000  -0.01002  -0.01000   2.04230
   A22        2.15030   0.00607   0.00000   0.02343   0.02345   2.17375
   A23        2.12798  -0.00458   0.00000  -0.02115  -0.02116   2.10681
   A24        2.00491  -0.00149   0.00000  -0.00228  -0.00229   2.00262
   A25        2.05870  -0.00190   0.00000  -0.01563  -0.01563   2.04308
   A26        2.14279   0.00307   0.00000   0.01117   0.01115   2.15393
   A27        2.02893  -0.00223   0.00000  -0.00985  -0.00983   2.01909
   A28        2.11147  -0.00084   0.00000  -0.00133  -0.00131   2.11016
   A29        2.06835  -0.00088   0.00000  -0.00033  -0.00036   2.06799
   A30        2.10795   0.00000   0.00000  -0.00248  -0.00247   2.10548
   A31        2.10688   0.00087   0.00000   0.00282   0.00283   2.10971
   A32        2.09394  -0.00328   0.00000  -0.00861  -0.00861   2.08532
   A33        2.10233   0.00005   0.00000  -0.00542  -0.00542   2.09691
   A34        2.08692   0.00323   0.00000   0.01403   0.01403   2.10095
    D1       -3.14158  -0.00000   0.00000  -0.00002  -0.00002   3.14158
    D2       -1.01234  -0.00030   0.00000  -0.00456  -0.00454  -1.01688
    D3        1.01233   0.00030   0.00000   0.00457   0.00455   1.01688
    D4        1.06379   0.00110   0.00000   0.02175   0.02186   1.08566
    D5       -3.09015   0.00081   0.00000   0.01722   0.01735  -3.07281
    D6       -1.06548   0.00140   0.00000   0.02634   0.02643  -1.03905
    D7       -1.06379  -0.00111   0.00000  -0.02178  -0.02189  -1.08568
    D8        1.06545  -0.00140   0.00000  -0.02632  -0.02641   1.03904
    D9        3.09012  -0.00081   0.00000  -0.01719  -0.01732   3.07280
   D10       -3.14158  -0.00000   0.00000  -0.00001  -0.00001  -3.14158
   D11        1.01347  -0.00020   0.00000  -0.00399  -0.00401   1.00946
   D12       -1.01345   0.00020   0.00000   0.00400   0.00402  -1.00943
   D13        1.02206   0.00063   0.00000   0.00843   0.00848   1.03054
   D14       -1.10608   0.00043   0.00000   0.00445   0.00448  -1.10161
   D15       -3.13300   0.00083   0.00000   0.01244   0.01251  -3.12050
   D16       -1.02200  -0.00063   0.00000  -0.00847  -0.00852  -1.03052
   D17        3.13304  -0.00083   0.00000  -0.01246  -0.01252   3.12052
   D18        1.10612  -0.00043   0.00000  -0.00447  -0.00450   1.10163
   D19       -0.00005   0.00000   0.00000   0.00002   0.00002  -0.00003
   D20        3.14157   0.00000   0.00000   0.00000   0.00000   3.14157
   D21        2.14304  -0.00047   0.00000  -0.00269  -0.00278   2.14026
   D22       -0.99853  -0.00047   0.00000  -0.00270  -0.00279  -1.00132
   D23       -2.14310   0.00047   0.00000   0.00269   0.00278  -2.14033
   D24        0.99851   0.00047   0.00000   0.00267   0.00276   1.00128
   D25        3.14159   0.00000   0.00000   0.00003   0.00003  -3.14157
   D26        0.00007  -0.00000   0.00000  -0.00007  -0.00007  -0.00000
   D27       -0.00003   0.00000   0.00000   0.00004   0.00004   0.00002
   D28       -3.14155  -0.00000   0.00000  -0.00006  -0.00006   3.14158
   D29       -3.14154  -0.00000   0.00000  -0.00008  -0.00008   3.14157
   D30       -0.00005   0.00000   0.00000   0.00003   0.00003  -0.00001
   D31        0.00008  -0.00000   0.00000  -0.00009  -0.00009  -0.00001
   D32        3.14157   0.00000   0.00000   0.00002   0.00002   3.14159
   D33       -0.00004   0.00000   0.00000   0.00004   0.00004  -0.00000
   D34        3.14148   0.00000   0.00000   0.00013   0.00013  -3.14157
   D35        0.00006  -0.00000   0.00000  -0.00007  -0.00007  -0.00001
   D36       -3.14158  -0.00000   0.00000  -0.00001  -0.00001  -3.14158
   D37       -0.00001   0.00000   0.00000   0.00002   0.00002   0.00002
   D38        3.14156   0.00000   0.00000   0.00004   0.00004  -3.14158
   D39       -3.14155  -0.00000   0.00000  -0.00005  -0.00005   3.14159
   D40        0.00001  -0.00000   0.00000  -0.00003  -0.00003  -0.00001
   D41       -0.00006   0.00000   0.00000   0.00006   0.00006  -0.00000
   D42       -3.14155  -0.00000   0.00000  -0.00005  -0.00005   3.14158
   D43        3.14155   0.00000   0.00000   0.00004   0.00004  -3.14159
   D44        0.00006  -0.00000   0.00000  -0.00007  -0.00007  -0.00001
         Item               Value     Threshold  Converged?
 Maximum Force            0.018511     0.000450     NO 
 RMS     Force            0.003599     0.000300     NO 
 Maximum Displacement     0.086311     0.001800     NO 
 RMS     Displacement     0.030141     0.001200     NO 
 Predicted change in Energy=-2.006843D-03
 GradGradGradGradGradGradGradGradGradGradGradGradGradGradGradGradGradGrad

                          Input orientation:                          
 ---------------------------------------------------------------------
 Center     Atomic      Atomic             Coordinates (Angstroms)
 Number     Number       Type             X           Y           Z
 ---------------------------------------------------------------------
      1         35           0        5.888498   -0.992654    1.230768
      2          6           0        4.301967   -1.298638    0.109905
      3          6           0        3.072647   -1.502162    0.981872
      4          6           0        1.825742   -1.742147    0.126017
      5          6           0        0.544151   -1.956728    0.909550
      6          6           0        0.485929   -1.940263    2.305938
      7          7           0       -0.632261   -2.126872    3.022866
      8          6           0       -1.762794   -2.342625    2.341706
      9          6           0       -1.824874   -2.380559    0.949142
     10          6           0       -0.652766   -2.184379    0.227497
     11          1           0        4.219665   -0.420668   -0.531760
     12          1           0        4.533914   -2.173882   -0.497949
     13          1           0        3.245658   -2.352693    1.648830
     14          1           0        2.935134   -0.620189    1.615420
     15          1           0        1.989895   -2.616388   -0.517455
     16          1           0        1.680478   -0.889991   -0.550762
     17          1           0        1.380730   -1.768537    2.896181
     18          1           0       -2.655126   -2.490942    2.944597
     19          1           0       -2.767783   -2.559316    0.442226
     20          1           0       -0.665903   -2.207666   -0.859288
 ---------------------------------------------------------------------
                    Distance matrix (angstroms):
                    1          2          3          4          5
     1  Br   0.000000
     2  C    1.966480   0.000000
     3  C    2.872379   1.520847   0.000000
     4  C    4.276470   2.515680   1.531291   0.000000
     5  C    5.440098   3.897909   2.570049   1.517381   0.000000
     6  C    5.589428   4.449313   2.938741   2.566400   1.397698
     7  N    6.856994   5.789466   4.275777   3.818577   2.424664
     8  C    7.848495   6.546157   5.092840   4.259982   2.742623
     9  C    7.842302   6.277981   4.975778   3.796328   2.406965
    10  C    6.724202   5.034654   3.861762   2.519697   1.396292
    11  H    2.493728   1.090568   2.185489   2.812444   4.236303
    12  H    2.493724   1.090567   2.185492   2.812458   4.236321
    13  H    3.001514   2.143621   1.094609   2.169766   2.828685
    14  H    3.001507   2.143619   1.094610   2.169761   2.828673
    15  H    4.570765   2.734176   2.159127   1.097861   2.135807
    16  H    4.570757   2.734168   2.159133   1.097862   2.135809
    17  H    4.867809   4.064205   2.568680   2.805805   2.163789
    18  H    8.841696   7.606458   6.134930   5.346332   3.829121
    19  H    8.832181   7.188957   5.959817   4.676348   3.398589
    20  H    6.986041   5.142509   4.226626   2.719528   2.157775
                    6          7          8          9         10
     6  C    0.000000
     7  N    1.341326   0.000000
     8  C    2.284717   1.337398   0.000000
     9  C    2.715616   2.405622   1.394463   0.000000
    10  C    2.382464   2.796035   2.393132   1.390358   0.000000
    11  H    4.929755   6.252015   6.909453   6.524623   5.237149
    12  H    4.929761   6.252017   6.909461   6.524644   5.237178
    13  H    2.866704   4.120342   5.056161   5.118656   4.152857
    14  H    2.866708   4.120353   5.056165   5.118643   4.152836
    15  H    3.269650   4.432742   4.725720   4.093775   2.779432
    16  H    3.269672   4.432770   4.725742   4.093775   2.779416
    17  H    1.085608   2.048557   3.243264   3.800188   3.380813
    18  H    3.252285   2.056856   1.087074   2.164103   3.389108
    19  H    3.800433   3.377449   2.159857   1.085354   2.158699
    20  H    3.378888   3.883141   3.386407   2.154884   1.087115
                   11         12         13         14         15
    11  H    0.000000
    12  H    1.781475   0.000000
    13  H    3.071870   2.510028   0.000000
    14  H    2.510022   3.071870   1.760429   0.000000
    15  H    3.129419   2.582290   2.517789   3.070414   0.000000
    16  H    2.582266   3.129419   3.070421   2.517796   1.754222
    17  H    4.650493   4.650483   2.318421   2.318453   3.569712
    18  H    7.977082   7.977089   6.042960   6.042966   5.794632
    19  H    7.372034   7.372060   6.136779   6.136763   4.853838
    20  H    5.212429   5.212467   4.648871   4.648842   2.708721
                   16         17         18         19         20
    16  H    0.000000
    17  H    3.569749   0.000000
    18  H    5.794656   4.100286   0.000000
    19  H    4.853833   4.884402   2.505838   0.000000
    20  H    2.708683   4.299429   4.301952   2.497097   0.000000
 Stoichiometry    C8H10BrN
 Framework group  C1[X(C8H10BrN)]
 Deg. of freedom    54
 Full point group                 C1      NOp   1
 Largest Abelian subgroup         C1      NOp   1
 Largest concise Abelian subgroup C1      NOp   1
                         Standard orientation:                         
 ---------------------------------------------------------------------
 Center     Atomic      Atomic             Coordinates (Angstroms)
 Number     Number       Type             X           Y           Z
 ---------------------------------------------------------------------
      1         35           0       -3.414375   -0.301130   -0.000008
      2          6           0       -1.886941    0.937413    0.000021
      3          6           0       -0.579371    0.160732    0.000012
      4          6           0        0.622872    1.109133    0.000020
      5          6           0        1.977093    0.424640   -0.000004
      6          6           0        2.135604   -0.964041    0.000000
      7          7           0        3.319541   -1.594476    0.000008
      8          6           0        4.416337   -0.829183    0.000007
      9          6           0        4.379974    0.564806   -0.000017
     10          6           0        3.141075    1.195858   -0.000021
     11          1           0       -2.007264    1.555042   -0.890707
     12          1           0       -2.007277    1.555010    0.890768
     13          1           0       -0.551008   -0.489350    0.880215
     14          1           0       -0.551008   -0.489321   -0.880214
     15          1           0        0.566263    1.766965    0.877147
     16          1           0        0.566251    1.767008   -0.877075
     17          1           0        1.271153   -1.620752    0.000024
     18          1           0        5.363328   -1.362980    0.000006
     19          1           0        5.299103    1.142035   -0.000027
     20          1           0        3.076925    2.281078   -0.000028
 ---------------------------------------------------------------------
 Rotational constants (GHZ):           3.6633783           0.2682464           0.2511148
 Standard basis: 6-31G(d,p) (6D, 7F)
 There are   215 symmetry adapted cartesian basis functions of A   symmetry.
 There are   215 symmetry adapted basis functions of A   symmetry.
   215 basis functions,   405 primitive gaussians,   215 cartesian basis functions
    50 alpha electrons       50 beta electrons
       nuclear repulsion energy       675.2181673638 Hartrees.
 NAtoms=   20 NActive=   20 NUniq=   20 SFac= 1.00D+00 NAtFMM=   60 NAOKFM=F Big=F
 Integral buffers will be    131072 words long.
 Raffenetti 2 integral format.
 Two-electron integral symmetry is turned on.
 Nuclear repulsion after empirical dispersion term =      675.1812944753 Hartrees.
 One-electron integrals computed using PRISM.
 NBasis=   215 RedAO= T EigKep=  7.37D-04  NBF=   215
 NBsUse=   215 1.00D-06 EigRej= -1.00D+00 NBFU=   215
 Initial guess from the checkpoint file:  "pyrd10_conf-11.chk"
 B after Tr=     0.000000   -0.000000    0.000000
         Rot=    1.000000   -0.000001   -0.000000    0.000202 Ang=  -0.02 deg.
 ExpMin= 1.43D-01 ExpMax= 5.74D+05 ExpMxC= 5.74D+03 IAcc=3 IRadAn=         5 AccDes= 0.00D+00
 Harris functional with IExCor=  402 and IRadAn=       5 diagonalized for initial guess.
 HarFok:  IExCor=  402 AccDes= 0.00D+00 IRadAn=         5 IDoV= 1 UseB2=F ITyADJ=14
 ICtDFT=  3500011 ScaDFX=  1.000000  1.000000  1.000000  1.000000
 FoFCou: FMM=F IPFlag=           0 FMFlag=      100000 FMFlg1=           0
         NFxFlg=           0 DoJE=T BraDBF=F KetDBF=T FulRan=T
         wScrn=  0.000000 ICntrl=       500 IOpCl=  0 I1Cent=   200000004 NGrid=           0
         NMat0=    1 NMatS0=      1 NMatT0=    0 NMatD0=    1 NMtDS0=    0 NMtDT0=    0
 Petite list used in FoFCou.
 Requested convergence on RMS density matrix=1.00D-08 within 128 cycles.
 Requested convergence on MAX density matrix=1.00D-06.
 Requested convergence on             energy=1.00D-06.
 No special actions if energy rises.
 Integral accuracy reduced to 1.0D-05 until final iterations.
 Initial convergence to 1.0D-05 achieved.  Increase integral accuracy.
 SCF Done:  E(RB3LYP) =  -2937.38335116     A.U. after   11 cycles
            NFock= 11  Conv=0.89D-08     -V/T= 2.0066
 Calling FoFJK, ICntrl=      2127 FMM=F ISym2X=0 I1Cent= 0 IOpClX= 0 NMat=1 NMatS=1 NMatT=0.
 ***** Axes restored to original set *****
 -------------------------------------------------------------------
 Center     Atomic                   Forces (Hartrees/Bohr)
 Number     Number              X              Y              Z
 -------------------------------------------------------------------
      1       35           0.003296173    0.000610275    0.001006648
      2        6          -0.002373076   -0.000422274    0.000138557
      3        6           0.000990973    0.000135202   -0.002286585
      4        6          -0.001418285   -0.000201739    0.002734638
      5        6           0.003474889    0.000592108   -0.001594789
      6        6          -0.000861186   -0.000101206    0.002882250
      7        7          -0.000178853   -0.000094311   -0.003211382
      8        6           0.000567776    0.000162796    0.003029292
      9        6          -0.000502209   -0.000125408   -0.001805277
     10        6          -0.003118438   -0.000550927    0.000432644
     11        1          -0.000138509   -0.000175119    0.000148828
     12        1          -0.000192059    0.000121003    0.000142808
     13        1           0.000048148    0.000176421    0.000103792
     14        1           0.000106132   -0.000145344    0.000110107
     15        1           0.000230683    0.000129515   -0.000561137
     16        1           0.000265617   -0.000062320   -0.000556852
     17        1           0.000929356    0.000158087   -0.000495038
     18        1          -0.001243415   -0.000235305   -0.000612233
     19        1          -0.000163765   -0.000019819    0.000497822
     20        1           0.000280047    0.000048364   -0.000104094
 -------------------------------------------------------------------
 Cartesian Forces:  Max     0.003474889 RMS     0.001264695

 GradGradGradGradGradGradGradGradGradGradGradGradGradGradGradGradGradGrad
 Berny optimization.
 Using GEDIIS/GDIIS optimizer.
 FormGI is forming the generalized inverse of G from B-inverse, IUseBI=4.
 Internal  Forces:  Max     0.003327998 RMS     0.000831122
 Search for a local minimum.
 Step number   2 out of a maximum of  108
 All quantities printed in internal units (Hartrees-Bohrs-Radians)
 Mixed Optimization -- En-DIIS/RFO-DIIS
 Update second derivatives using D2CorX and points    1    2
 DE= -1.88D-03 DEPred=-2.01D-03 R= 9.36D-01
 TightC=F SS=  1.41D+00  RLast= 1.34D-01 DXNew= 5.0454D-01 4.0243D-01
 Trust test= 9.36D-01 RLast= 1.34D-01 DXMaxT set to 4.02D-01
 ITU=  1  0
 Use linear search instead of GDIIS.
     Eigenvalues ---    0.00230   0.00300   0.00393   0.01361   0.02075
     Eigenvalues ---    0.02108   0.02115   0.02142   0.02145   0.02188
     Eigenvalues ---    0.02231   0.03616   0.03710   0.04804   0.05171
     Eigenvalues ---    0.05522   0.05563   0.08007   0.09665   0.11970
     Eigenvalues ---    0.13056   0.15161   0.15562   0.16000   0.16000
     Eigenvalues ---    0.16000   0.16000   0.16260   0.20236   0.21964
     Eigenvalues ---    0.21999   0.22488   0.23330   0.24714   0.25180
     Eigenvalues ---    0.28507   0.29102   0.29886   0.34468   0.34625
     Eigenvalues ---    0.34637   0.34649   0.34697   0.34713   0.35653
     Eigenvalues ---    0.35933   0.36000   0.36034   0.41966   0.43437
     Eigenvalues ---    0.45560   0.46207   0.52547   0.52953
 RFO step:  Lambda=-2.84540636D-04 EMin= 2.30000000D-03
 Quartic linear search produced a step of -0.05457.
 Iteration  1 RMS(Cart)=  0.01545182 RMS(Int)=  0.00011786
 Iteration  2 RMS(Cart)=  0.00021215 RMS(Int)=  0.00000834
 Iteration  3 RMS(Cart)=  0.00000005 RMS(Int)=  0.00000834
 Variable       Old X    -DE/DX   Delta X   Delta X   Delta X     New X
                                 (Linear)    (Quad)   (Total)
    R1        3.71611   0.00333   0.00236   0.01593   0.01829   3.73440
    R2        2.87398  -0.00033   0.00149  -0.00461  -0.00312   2.87086
    R3        2.06087  -0.00022   0.00005  -0.00071  -0.00066   2.06022
    R4        2.06087  -0.00022   0.00004  -0.00069  -0.00065   2.06022
    R5        2.89372   0.00111   0.00127   0.00068   0.00195   2.89567
    R6        2.06851  -0.00007  -0.00032   0.00058   0.00026   2.06877
    R7        2.06851  -0.00007  -0.00032   0.00057   0.00025   2.06877
    R8        2.86744   0.00021   0.00112  -0.00200  -0.00089   2.86655
    R9        2.07466   0.00026  -0.00064   0.00224   0.00159   2.07625
   R10        2.07466   0.00026  -0.00064   0.00224   0.00159   2.07625
   R11        2.64127   0.00098   0.00059   0.00076   0.00135   2.64262
   R12        2.63861   0.00326   0.00040   0.00595   0.00634   2.64495
   R13        2.53474  -0.00001   0.00165  -0.00397  -0.00231   2.53243
   R14        2.05150   0.00052  -0.00063   0.00287   0.00224   2.05374
   R15        2.52732  -0.00031   0.00193  -0.00521  -0.00328   2.52403
   R16        2.63515   0.00064   0.00009   0.00099   0.00108   2.63623
   R17        2.05427   0.00071  -0.00065   0.00343   0.00277   2.05705
   R18        2.62740   0.00022   0.00060  -0.00094  -0.00034   2.62706
   R19        2.05102  -0.00009  -0.00054   0.00105   0.00051   2.05153
   R20        2.05435   0.00010  -0.00067   0.00185   0.00118   2.05553
    A1        1.92427   0.00300  -0.00108   0.01650   0.01542   1.93969
    A2        1.84521  -0.00097   0.00183  -0.00633  -0.00450   1.84071
    A3        1.84521  -0.00097   0.00183  -0.00632  -0.00450   1.84071
    A4        1.96500  -0.00065  -0.00061  -0.00244  -0.00305   1.96195
    A5        1.96501  -0.00065  -0.00061  -0.00245  -0.00305   1.96196
    A6        1.91156   0.00025  -0.00111   0.00069  -0.00041   1.91115
    A7        1.93769  -0.00010   0.00168  -0.00414  -0.00247   1.93523
    A8        1.90241   0.00001  -0.00022   0.00039   0.00017   1.90258
    A9        1.90241   0.00001  -0.00022   0.00039   0.00017   1.90258
   A10        1.92568   0.00010  -0.00055   0.00228   0.00173   1.92741
   A11        1.92567   0.00010  -0.00055   0.00228   0.00174   1.92741
   A12        1.86844  -0.00012  -0.00021  -0.00111  -0.00132   1.86712
   A13        2.00568   0.00285   0.00127   0.01148   0.01273   2.01841
   A14        1.90777  -0.00087  -0.00008  -0.00364  -0.00376   1.90401
   A15        1.90778  -0.00087  -0.00008  -0.00364  -0.00376   1.90401
   A16        1.89265  -0.00069  -0.00081   0.00150   0.00069   1.89334
   A17        1.89265  -0.00069  -0.00081   0.00150   0.00069   1.89334
   A18        1.85102   0.00007   0.00044  -0.00874  -0.00832   1.84270
   A19        2.15245   0.00084   0.00003   0.00283   0.00286   2.15531
   A20        2.08843   0.00052  -0.00057   0.00307   0.00250   2.09093
   A21        2.04230  -0.00136   0.00055  -0.00590  -0.00535   2.03695
   A22        2.17375  -0.00073  -0.00128   0.00015  -0.00113   2.17262
   A23        2.10681  -0.00059   0.00115  -0.00693  -0.00578   2.10104
   A24        2.00262   0.00132   0.00012   0.00679   0.00691   2.00953
   A25        2.04308   0.00223   0.00085   0.00603   0.00688   2.04996
   A26        2.15393  -0.00086  -0.00061  -0.00261  -0.00322   2.15071
   A27        2.01909   0.00167   0.00054   0.00808   0.00862   2.02771
   A28        2.11016  -0.00081   0.00007  -0.00547  -0.00540   2.10476
   A29        2.06799  -0.00036   0.00002  -0.00164  -0.00162   2.06637
   A30        2.10548  -0.00035   0.00013  -0.00266  -0.00252   2.10296
   A31        2.10971   0.00071  -0.00015   0.00430   0.00414   2.11386
   A32        2.08532   0.00108   0.00047   0.00397   0.00444   2.08976
   A33        2.09691  -0.00083   0.00030  -0.00500  -0.00470   2.09221
   A34        2.10095  -0.00025  -0.00077   0.00103   0.00026   2.10121
    D1        3.14158   0.00000   0.00000   0.00001   0.00001  -3.14159
    D2       -1.01688   0.00006   0.00025   0.00045   0.00070  -1.01618
    D3        1.01688  -0.00006  -0.00025  -0.00044  -0.00069   1.01619
    D4        1.08566  -0.00035  -0.00119  -0.00146  -0.00265   1.08301
    D5       -3.07281  -0.00029  -0.00095  -0.00101  -0.00196  -3.07477
    D6       -1.03905  -0.00042  -0.00144  -0.00190  -0.00335  -1.04240
    D7       -1.08568   0.00035   0.00119   0.00148   0.00267  -1.08300
    D8        1.03904   0.00042   0.00144   0.00192   0.00336   1.04241
    D9        3.07280   0.00029   0.00095   0.00103   0.00198   3.07478
   D10       -3.14158  -0.00000   0.00000  -0.00001  -0.00001  -3.14159
   D11        1.00946  -0.00044   0.00022  -0.00727  -0.00704   1.00242
   D12       -1.00943   0.00044  -0.00022   0.00725   0.00702  -1.00241
   D13        1.03054  -0.00001  -0.00046   0.00072   0.00026   1.03080
   D14       -1.10161  -0.00045  -0.00024  -0.00654  -0.00677  -1.10838
   D15       -3.12050   0.00043  -0.00068   0.00798   0.00729  -3.11321
   D16       -1.03052   0.00001   0.00047  -0.00073  -0.00026  -1.03079
   D17        3.12052  -0.00043   0.00068  -0.00799  -0.00729   3.11322
   D18        1.10163   0.00045   0.00025   0.00653   0.00676   1.10839
   D19       -0.00003  -0.00000  -0.00000   0.00000  -0.00000  -0.00003
   D20        3.14157  -0.00000  -0.00000  -0.00001  -0.00001   3.14156
   D21        2.14026   0.00032   0.00015   0.00436   0.00453   2.14479
   D22       -1.00132   0.00032   0.00015   0.00435   0.00452  -0.99680
   D23       -2.14033  -0.00032  -0.00015  -0.00436  -0.00453  -2.14485
   D24        1.00128  -0.00032  -0.00015  -0.00437  -0.00454   0.99674
   D25       -3.14157  -0.00000  -0.00000  -0.00003  -0.00003   3.14159
   D26       -0.00000   0.00000   0.00000   0.00000   0.00001   0.00001
   D27        0.00002  -0.00000  -0.00000  -0.00002  -0.00002  -0.00000
   D28        3.14158   0.00000   0.00000   0.00002   0.00002  -3.14158
   D29        3.14157   0.00000   0.00000   0.00001   0.00002   3.14159
   D30       -0.00001   0.00000  -0.00000   0.00002   0.00002   0.00000
   D31       -0.00001   0.00000   0.00001   0.00000   0.00001  -0.00001
   D32        3.14159   0.00000  -0.00000   0.00001   0.00001  -3.14159
   D33       -0.00000   0.00000  -0.00000   0.00001   0.00001   0.00001
   D34       -3.14157  -0.00000  -0.00001  -0.00002  -0.00003   3.14159
   D35       -0.00001   0.00000   0.00000   0.00001   0.00001  -0.00000
   D36       -3.14158  -0.00000   0.00000  -0.00002  -0.00002   3.14158
   D37        0.00002  -0.00000  -0.00000  -0.00002  -0.00002  -0.00001
   D38       -3.14158  -0.00000  -0.00000  -0.00001  -0.00001   3.14159
   D39        3.14159   0.00000   0.00000   0.00000   0.00001  -3.14159
   D40       -0.00001   0.00000   0.00000   0.00002   0.00002   0.00001
   D41       -0.00000   0.00000  -0.00000   0.00002   0.00001   0.00001
   D42        3.14158   0.00000   0.00000   0.00001   0.00001  -3.14159
   D43       -3.14159  -0.00000  -0.00000   0.00000   0.00000  -3.14159
   D44       -0.00001   0.00000   0.00000  -0.00000   0.00000  -0.00000
         Item               Value     Threshold  Converged?
 Maximum Force            0.003328     0.000450     NO 
 RMS     Force            0.000831     0.000300     NO 
 Maximum Displacement     0.078322     0.001800     NO 
 RMS     Displacement     0.015609     0.001200     NO 
 Predicted change in Energy=-1.489295D-04
 GradGradGradGradGradGradGradGradGradGradGradGradGradGradGradGradGradGrad

                          Input orientation:                          
 ---------------------------------------------------------------------
 Center     Atomic      Atomic             Coordinates (Angstroms)
 Number     Number       Type             X           Y           Z
 ---------------------------------------------------------------------
      1         35           0        5.924938   -0.986925    1.189322
      2          6           0        4.302736   -1.298594    0.104644
      3          6           0        3.083390   -1.500112    0.988124
      4          6           0        1.829256   -1.741225    0.141352
      5          6           0        0.544137   -1.956585    0.917955
      6          6           0        0.474886   -1.942096    2.314577
      7          7           0       -0.648645   -2.129853    3.020483
      8          6           0       -1.776197   -2.345087    2.337629
      9          6           0       -1.830797   -2.381717    0.944146
     10          6           0       -0.653862   -2.184517    0.231033
     11          1           0        4.210151   -0.422906   -0.538144
     12          1           0        4.524247   -2.175310   -0.504363
     13          1           0        3.262972   -2.349136    1.655493
     14          1           0        2.952555   -0.617262    1.622097
     15          1           0        1.995082   -2.613127   -0.506291
     16          1           0        1.686389   -0.890830   -0.539508
     17          1           0        1.369361   -1.770364    2.907486
     18          1           0       -2.676105   -2.494936    2.931460
     19          1           0       -2.772458   -2.560305    0.434280
     20          1           0       -0.659136   -2.206410   -0.856475
 ---------------------------------------------------------------------
                    Distance matrix (angstroms):
                    1          2          3          4          5
     1  Br   0.000000
     2  C    1.976159   0.000000
     3  C    2.894518   1.519195   0.000000
     4  C    4.294394   2.513041   1.532322   0.000000
     5  C    5.474203   3.901474   2.580910   1.516913   0.000000
     6  C    5.646380   4.466580   2.959581   2.568574   1.398413
     7  N    6.918918   5.805970   4.295945   3.818432   2.423505
     8  C    7.903840   6.560091   5.113779   4.264689   2.747791
     9  C    7.883970   6.284756   4.992835   3.801408   2.412827
    10  C    6.755231   5.036735   3.874100   2.523970   1.399648
    11  H    2.498550   1.090219   2.181618   2.805056   4.232263
    12  H    2.498552   1.090223   2.181623   2.805059   4.232270
    13  H    3.026383   2.142400   1.094747   2.172031   2.844315
    14  H    3.026385   2.142398   1.094744   2.172027   2.844307
    15  H    4.578581   2.725161   2.157891   1.098705   2.136532
    16  H    4.578579   2.725156   2.157892   1.098705   2.136532
    17  H    4.931444   4.084505   2.587447   2.804256   2.161923
    18  H    8.904330   7.624064   6.159384   5.352669   3.835881
    19  H    8.870756   7.194369   5.976764   4.683212   3.405616
    20  H    7.001604   5.134984   4.231774   2.721057   2.158444
                    6          7          8          9         10
     6  C    0.000000
     7  N    1.340104   0.000000
     8  C    2.286987   1.335660   0.000000
     9  C    2.718000   2.402518   1.395034   0.000000
    10  C    2.382015   2.789990   2.392314   1.390178   0.000000
    11  H    4.939449   6.259823   6.913842   6.521287   5.230060
    12  H    4.939447   6.259826   6.913851   6.521302   5.230077
    13  H    2.893699   4.148739   5.085130   5.143303   4.171064
    14  H    2.893709   4.148741   5.085121   5.143285   4.171041
    15  H    3.273924   4.434071   4.730991   4.098131   2.782851
    16  H    3.273942   4.434083   4.730991   4.098118   2.782828
    17  H    1.086793   2.052888   3.248012   3.803876   3.380585
    18  H    3.258055   2.061991   1.088543   2.162587   3.387940
    19  H    3.803018   3.374065   2.159072   1.085625   2.161244
    20  H    3.378083   3.877728   3.386644   2.155402   1.087741
                   11         12         13         14         15
    11  H    0.000000
    12  H    1.780651   0.000000
    13  H    3.069129   2.507191   0.000000
    14  H    2.507183   3.069131   1.759790   0.000000
    15  H    3.115223   2.566781   2.520029   3.070874   0.000000
    16  H    2.566774   3.115215   3.070879   2.520030   1.750058
    17  H    4.664557   4.664548   2.342697   2.342727   3.571506
    18  H    7.984484   7.984493   6.076347   6.076340   5.801043
    19  H    7.366879   7.366898   6.161361   6.161339   4.859723
    20  H    5.195400   5.195423   4.659752   4.659724   2.707937
                   16         17         18         19         20
    16  H    0.000000
    17  H    3.571534   0.000000
    18  H    5.801046   4.109913   0.000000
    19  H    4.859704   4.888295   2.499893   0.000000
    20  H    2.707897   4.297947   4.301147   2.501483   0.000000
 Stoichiometry    C8H10BrN
 Framework group  C1[X(C8H10BrN)]
 Deg. of freedom    54
 Full point group                 C1      NOp   1
 Largest Abelian subgroup         C1      NOp   1
 Largest concise Abelian subgroup C1      NOp   1
                         Standard orientation:                         
 ---------------------------------------------------------------------
 Center     Atomic      Atomic             Coordinates (Angstroms)
 Number     Number       Type             X           Y           Z
 ---------------------------------------------------------------------
      1         35           0       -3.441131   -0.292475   -0.000007
      2          6           0       -1.881279    0.920811    0.000010
      3          6           0       -0.578901    0.138657    0.000006
      4          6           0        0.626403    1.084834    0.000021
      5          6           0        1.987215    0.414599    0.000010
      6          6           0        2.164140   -0.972577    0.000020
      7          7           0        3.355907   -1.585416    0.000006
      8          6           0        4.445551   -0.812977   -0.000011
      9          6           0        4.394290    0.581115   -0.000018
     10          6           0        3.147888    1.196809   -0.000014
     11          1           0       -1.994414    1.539771   -0.890308
     12          1           0       -1.994422    1.539756    0.890343
     13          1           0       -0.553835   -0.512220    0.879894
     14          1           0       -0.553827   -0.512195   -0.879896
     15          1           0        0.563988    1.746318    0.875061
     16          1           0        0.563988    1.746348   -0.874996
     17          1           0        1.303652   -1.636414    0.000031
     18          1           0        5.402289   -1.332186   -0.000013
     19          1           0        5.308912    1.165963   -0.000031
     20          1           0        3.070071    2.281763   -0.000021
 ---------------------------------------------------------------------
 Rotational constants (GHZ):           3.7180884           0.2647246           0.2482708
 Standard basis: 6-31G(d,p) (6D, 7F)
 There are   215 symmetry adapted cartesian basis functions of A   symmetry.
 There are   215 symmetry adapted basis functions of A   symmetry.
   215 basis functions,   405 primitive gaussians,   215 cartesian basis functions
    50 alpha electrons       50 beta electrons
       nuclear repulsion energy       673.2452921492 Hartrees.
 NAtoms=   20 NActive=   20 NUniq=   20 SFac= 1.00D+00 NAtFMM=   60 NAOKFM=F Big=F
 Integral buffers will be    131072 words long.
 Raffenetti 2 integral format.
 Two-electron integral symmetry is turned on.
 Nuclear repulsion after empirical dispersion term =      673.2085117527 Hartrees.
 One-electron integrals computed using PRISM.
 NBasis=   215 RedAO= T EigKep=  7.36D-04  NBF=   215
 NBsUse=   215 1.00D-06 EigRej= -1.00D+00 NBFU=   215
 Initial guess from the checkpoint file:  "pyrd10_conf-11.chk"
 B after Tr=    -0.000000   -0.000000   -0.000000
         Rot=    1.000000    0.000000    0.000000   -0.000328 Ang=   0.04 deg.
 ExpMin= 1.43D-01 ExpMax= 5.74D+05 ExpMxC= 5.74D+03 IAcc=3 IRadAn=         5 AccDes= 0.00D+00
 Harris functional with IExCor=  402 and IRadAn=       5 diagonalized for initial guess.
 HarFok:  IExCor=  402 AccDes= 0.00D+00 IRadAn=         5 IDoV= 1 UseB2=F ITyADJ=14
 ICtDFT=  3500011 ScaDFX=  1.000000  1.000000  1.000000  1.000000
 FoFCou: FMM=F IPFlag=           0 FMFlag=      100000 FMFlg1=           0
         NFxFlg=           0 DoJE=T BraDBF=F KetDBF=T FulRan=T
         wScrn=  0.000000 ICntrl=       500 IOpCl=  0 I1Cent=   200000004 NGrid=           0
         NMat0=    1 NMatS0=      1 NMatT0=    0 NMatD0=    1 NMtDS0=    0 NMtDT0=    0
 Petite list used in FoFCou.
 Requested convergence on RMS density matrix=1.00D-08 within 128 cycles.
 Requested convergence on MAX density matrix=1.00D-06.
 Requested convergence on             energy=1.00D-06.
 No special actions if energy rises.
 Integral accuracy reduced to 1.0D-05 until final iterations.
 Initial convergence to 1.0D-05 achieved.  Increase integral accuracy.
 SCF Done:  E(RB3LYP) =  -2937.38350037     A.U. after   10 cycles
            NFock= 10  Conv=0.86D-08     -V/T= 2.0066
 Calling FoFJK, ICntrl=      2127 FMM=F ISym2X=0 I1Cent= 0 IOpClX= 0 NMat=1 NMatS=1 NMatT=0.
 ***** Axes restored to original set *****
 -------------------------------------------------------------------
 Center     Atomic                   Forces (Hartrees/Bohr)
 Number     Number              X              Y              Z
 -------------------------------------------------------------------
      1       35          -0.000106105   -0.000020114   -0.000057659
      2        6          -0.000487691   -0.000096448   -0.000359049
      3        6           0.000717525    0.000134263    0.000378495
      4        6          -0.000795331   -0.000138309    0.000249166
      5        6           0.000746836    0.000119710   -0.000757380
      6        6           0.000717686    0.000146480    0.000873490
      7        7          -0.000064236   -0.000016026   -0.000211689
      8        6          -0.000360151   -0.000038909    0.001368123
      9        6          -0.000079345   -0.000037767   -0.001252865
     10        6          -0.000644168   -0.000123724   -0.000383321
     11        1           0.000162420    0.000048904    0.000027304
     12        1           0.000168343    0.000013697    0.000029660
     13        1          -0.000213179    0.000071314    0.000121009
     14        1          -0.000176071   -0.000134563    0.000126481
     15        1          -0.000030567    0.000093425    0.000015049
     16        1           0.000003594   -0.000097535    0.000018867
     17        1           0.000064078    0.000007441   -0.000194909
     18        1           0.000081285    0.000007874   -0.000364884
     19        1           0.000254544    0.000048637    0.000154696
     20        1           0.000040534    0.000011649    0.000219417
 -------------------------------------------------------------------
 Cartesian Forces:  Max     0.001368123 RMS     0.000386542

 GradGradGradGradGradGradGradGradGradGradGradGradGradGradGradGradGradGrad
 Berny optimization.
 Using GEDIIS/GDIIS optimizer.
 FormGI is forming the generalized inverse of G from B-inverse, IUseBI=4.
 Internal  Forces:  Max     0.000961595 RMS     0.000204117
 Search for a local minimum.
 Step number   3 out of a maximum of  108
 All quantities printed in internal units (Hartrees-Bohrs-Radians)
 Mixed Optimization -- En-DIIS/RFO-DIIS
 Swapping is turned off.
 Update second derivatives using D2CorX and points    1    2    3
 DE= -1.49D-04 DEPred=-1.49D-04 R= 1.00D+00
 TightC=F SS=  1.41D+00  RLast= 4.22D-02 DXNew= 6.7680D-01 1.2654D-01
[...]
   Eigenvalues:    17.7079    18.9137    30.5012
     18  H    Isotropic =    22.4278   Anisotropy =     7.0248
   XX=    27.1106   YX=    -0.3149   ZX=    -0.0000
   XY=     0.4102   YY=    20.7222   ZY=     0.0000
   XZ=     0.0000   YZ=     0.0000   ZZ=    19.4505
   Eigenvalues:    19.4505    20.7218    27.1110
     19  H    Isotropic =    23.9859   Anisotropy =     6.6332
   XX=    23.6243   YX=     3.3176   ZX=    -0.0000
   XY=     2.5938   YY=    26.5819   ZY=     0.0000
   XZ=    -0.0000   YZ=     0.0000   ZZ=    21.7515
   Eigenvalues:    21.7515    21.7981    28.4081
     20  H    Isotropic =    23.6808   Anisotropy =     9.9077
   XX=    21.2209   YX=    -2.7377   ZX=     0.0000
   XY=    -3.6663   YY=    29.1549   ZY=     0.0000
   XZ=    -0.0000   YZ=    -0.0000   ZZ=    20.6667
   Eigenvalues:    20.0899    20.6667    30.2859
 End of Minotr F.D. properties file   721 does not exist.
 End of Minotr F.D. properties file   722 does not exist.
 End of Minotr F.D. properties file   788 does not exist.

 **********************************************************************

            Population analysis using the SCF Density.

 **********************************************************************

 Orbital symmetries:
       Occupied  (A') (A') (A') (A') (A") (A') (A') (A') (A') (A')
                 (A') (A') (A') (A') (A') (A') (A') (A") (A') (A')
                 (A") (A") (A') (A') (A') (A') (A') (A') (A') (A')
                 (A') (A') (A') (A") (A') (A') (A') (A") (A') (A')
                 (A") (A') (A') (A") (A') (A") (A') (A") (A') (A")
       Virtual   (A") (A") (A') (A') (A') (A') (A") (A') (A') (A')
                 (A") (A') (A') (A") (A') (A") (A') (A') (A') (A')
                 (A") (A') (A') (A') (A") (A') (A") (A") (A") (A')
                 (A') (A') (A') (A") (A') (A") (A') (A') (A") (A')
                 (A") (A') (A') (A') (A") (A') (A') (A") (A') (A')
                 (A') (A') (A') (A") (A') (A") (A') (A') (A') (A')
                 (A") (A') (A") (A') (A') (A') (A') (A') (A') (A")
                 (A') (A') (A") (A') (A') (A') (A') (A") (A') (A")
                 (A') (A') (A") (A") (A') (A') (A") (A') (A') (A")
                 (A') (A") (A') (A') (A') (A") (A') (A") (A') (A')
                 (A") (A") (A') (A') (A') (A') (A') (A') (A") (A')
                 (A") (A') (A') (A') (A") (A") (A") (A') (A') (A")
                 (A') (A') (A') (A') (A") (A') (A') (A") (A") (A')
                 (A") (A') (A') (A") (A') (A") (A") (A') (A") (A")
                 (A') (A') (A') (A') (A") (A") (A') (A') (A') (A")
                 (A') (A") (A") (A') (A") (A') (A") (A') (A') (A')
                 (A') (A") (A') (A") (A") (A') (A') (A') (A") (A')
                 (A') (A') (A") (A') (A') (A') (A") (A') (A') (A")
                 (A') (A') (A') (A") (A') (A') (A") (A") (A') (A')
                 (A") (A') (A") (A') (A') (A') (A") (A') (A") (A')
                 (A') (A") (A") (A') (A') (A") (A') (A") (A') (A')
                 (A') (A") (A') (A') (A') (A') (A") (A') (A") (A')
                 (A') (A") (A') (A") (A") (A') (A') (A") (A") (A')
                 (A") (A') (A") (A") (A') (A') (A") (A") (A') (A')
                 (A') (A") (A') (A") (A') (A') (A") (A') (A') (A")
                 (A') (A") (A') (A') (A") (A') (A") (A') (A") (A')
                 (A') (A") (A") (A') (A') (A") (A') (A") (A') (A')
                 (A') (A") (A") (A') (A") (A') (A') (A') (A') (A')
                 (A") (A') (A") (A') (A") (A') (A') (A") (A') (A")
                 (A') (A') (A") (A') (A') (A") (A") (A') (A') (A")
                 (A') (A') (A") (A') (A') (A") (A') (A') (A') (A')
                 (A") (A') (A') (A") (A') (A') (A') (A') (A') (A")
                 (A") (A') (A') (A') (A') (A') (A') (A') (A') (A')
                 (A') (A') (A') (A') (A') (A') (A')
 The electronic state is 1-A'.
 Alpha  occ. eigenvalues -- -485.36293 -63.34797 -57.16740 -57.16501 -57.16499
 Alpha  occ. eigenvalues --  -14.75224 -10.60341 -10.57865 -10.57863 -10.56726
 Alpha  occ. eigenvalues --  -10.56521 -10.56317 -10.55913 -10.55645  -9.01438
 Alpha  occ. eigenvalues --   -6.83839  -6.82966  -6.82957  -2.87205  -2.86893
 Alpha  occ. eigenvalues --   -2.86886  -2.86071  -2.86071  -1.05480  -0.94395
 Alpha  occ. eigenvalues --   -0.91323  -0.88090  -0.84021  -0.77179  -0.72662
 Alpha  occ. eigenvalues --   -0.70309  -0.68269  -0.60474  -0.57344  -0.56106
 Alpha  occ. eigenvalues --   -0.53571  -0.50862  -0.50751  -0.48606  -0.47447
 Alpha  occ. eigenvalues --   -0.46808  -0.44757  -0.43474  -0.42615  -0.40172
 Alpha  occ. eigenvalues --   -0.34693  -0.33861  -0.33854  -0.32718  -0.31568
 Alpha virt. eigenvalues --   -0.00515   0.01253   0.02559   0.05979   0.07943
 Alpha virt. eigenvalues --    0.08985   0.09571   0.10269   0.11952   0.13278
 Alpha virt. eigenvalues --    0.14217   0.14542   0.15008   0.15484   0.18147
 Alpha virt. eigenvalues --    0.18926   0.19224   0.20411   0.21825   0.22498
 Alpha virt. eigenvalues --    0.23376   0.24113   0.24357   0.25060   0.26396
 Alpha virt. eigenvalues --    0.28162   0.28536   0.29864   0.30032   0.30157
 Alpha virt. eigenvalues --    0.30326   0.31473   0.32231   0.32794   0.33986
 Alpha virt. eigenvalues --    0.36210   0.36587   0.37512   0.37785   0.38487
 Alpha virt. eigenvalues --    0.38751   0.39237   0.40216   0.42015   0.42699
 Alpha virt. eigenvalues --    0.43736   0.44151   0.44605   0.44917   0.45389
 Alpha virt. eigenvalues --    0.45800   0.47972   0.48938   0.50014   0.50303
 Alpha virt. eigenvalues --    0.50519   0.50679   0.51416   0.52592   0.54083
 Alpha virt. eigenvalues --    0.56366   0.57128   0.57468   0.58765   0.61880
 Alpha virt. eigenvalues --    0.62021   0.64380   0.65052   0.67258   0.67861
 Alpha virt. eigenvalues --    0.68991   0.70320   0.70811   0.71019   0.73355
 Alpha virt. eigenvalues --    0.76082   0.78029   0.79203   0.79675   0.80817
 Alpha virt. eigenvalues --    0.81575   0.84262   0.84277   0.85840   0.87004
 Alpha virt. eigenvalues --    0.89660   0.90433   0.91651   0.95132   0.95339
 Alpha virt. eigenvalues --    0.98094   1.00138   1.01229   1.03165   1.04506
 Alpha virt. eigenvalues --    1.05716   1.06234   1.09822   1.12999   1.14075
 Alpha virt. eigenvalues --    1.14366   1.15591   1.16292   1.18490   1.22572
 Alpha virt. eigenvalues --    1.22820   1.25596   1.25852   1.26002   1.29573
 Alpha virt. eigenvalues --    1.30724   1.32496   1.34893   1.35956   1.37056
 Alpha virt. eigenvalues --    1.38487   1.39969   1.42806   1.43120   1.43554
 Alpha virt. eigenvalues --    1.44173   1.46385   1.47839   1.48653   1.49397
 Alpha virt. eigenvalues --    1.51458   1.53898   1.54687   1.56222   1.57132
 Alpha virt. eigenvalues --    1.57339   1.58360   1.58502   1.60005   1.60931
 Alpha virt. eigenvalues --    1.61925   1.63283   1.63470   1.66020   1.66284
 Alpha virt. eigenvalues --    1.66484   1.66649   1.68135   1.68567   1.69335
 Alpha virt. eigenvalues --    1.71666   1.73513   1.73558   1.75698   1.77134
 Alpha virt. eigenvalues --    1.78778   1.79302   1.80876   1.81323   1.85397
 Alpha virt. eigenvalues --    1.86500   1.87299   1.89849   1.93071   1.95802
 Alpha virt. eigenvalues --    1.96771   1.97804   1.98505   2.00318   2.01399
 Alpha virt. eigenvalues --    2.02498   2.04467   2.10015   2.10936   2.13724
 Alpha virt. eigenvalues --    2.14949   2.15766   2.18792   2.22244   2.24375
 Alpha virt. eigenvalues --    2.27043   2.28543   2.28945   2.30202   2.31232
 Alpha virt. eigenvalues --    2.35007   2.36423   2.40626   2.41639   2.42006
 Alpha virt. eigenvalues --    2.46498   2.48781   2.49819   2.51055   2.51870
 Alpha virt. eigenvalues --    2.53148   2.55129   2.57569   2.58201   2.58550
 Alpha virt. eigenvalues --    2.60847   2.60934   2.62819   2.64076   2.65482
 Alpha virt. eigenvalues --    2.66236   2.66858   2.68345   2.68741   2.71806
 Alpha virt. eigenvalues --    2.73465   2.76783   2.77182   2.77325   2.79815
 Alpha virt. eigenvalues --    2.80989   2.82286   2.83791   2.86083   2.86607
 Alpha virt. eigenvalues --    2.88373   2.91057   2.94384   2.96707   2.98658
 Alpha virt. eigenvalues --    2.99127   3.00210   3.03438   3.04523   3.06035
 Alpha virt. eigenvalues --    3.06529   3.07713   3.09369   3.10341   3.10560
 Alpha virt. eigenvalues --    3.14062   3.16438   3.16482   3.18718   3.18860
 Alpha virt. eigenvalues --    3.19931   3.21560   3.23712   3.23741   3.24096
 Alpha virt. eigenvalues --    3.26710   3.26777   3.27271   3.30134   3.31346
 Alpha virt. eigenvalues --    3.32877   3.33570   3.35086   3.36761   3.38204
 Alpha virt. eigenvalues --    3.39206   3.40459   3.42020   3.43179   3.44236
 Alpha virt. eigenvalues --    3.46020   3.47239   3.50272   3.50490   3.51817
 Alpha virt. eigenvalues --    3.53084   3.54493   3.59044   3.64472   3.65761
 Alpha virt. eigenvalues --    3.66012   3.72823   3.75705   3.77063   3.80316
 Alpha virt. eigenvalues --    3.81566   3.83618   3.83754   3.86610   3.87709
 Alpha virt. eigenvalues --    3.88686   3.93295   3.95928   4.03408   4.04073
 Alpha virt. eigenvalues --    4.05532   4.07014   4.08204   4.10679   4.11049
 Alpha virt. eigenvalues --    4.11717   4.13468   4.14703   4.17577   4.22681
 Alpha virt. eigenvalues --    4.25903   4.27681   4.29660   4.30791   4.34305
 Alpha virt. eigenvalues --    4.34352   4.35530   4.40769   4.47813   4.48815
 Alpha virt. eigenvalues --    4.50263   4.53610   4.54027   4.56041   4.56984
 Alpha virt. eigenvalues --    4.57499   4.62434   4.70287   4.74684   4.81605
 Alpha virt. eigenvalues --    4.83381   4.84345   4.91431   4.91946   5.01044
 Alpha virt. eigenvalues --    5.03773   5.11465   5.12828   5.17155   5.19694
 Alpha virt. eigenvalues --    5.26448   5.34498   5.40622   5.52935   5.59009
 Alpha virt. eigenvalues --    5.73413   5.96405   7.70661  22.34229  22.40660
 Alpha virt. eigenvalues --   22.57833  22.65087  22.73968  22.86008  22.88515
 Alpha virt. eigenvalues --   23.20718  32.54309
          Condensed to atoms (all electrons):
               1          2          3          4          5          6
     1  Br  34.999156   0.264080  -0.042530   0.008077  -0.001022  -0.000181
     2  C    0.264080   4.913177   0.237028  -0.020114   0.002654   0.002156
     3  C   -0.042530   0.237028   5.340570   0.134295   0.003092  -0.013492
     4  C    0.008077  -0.020114   0.134295   5.374216   0.217630  -0.050941
     5  C   -0.001022   0.002654   0.003092   0.217630   5.100540   0.442084
     6  C   -0.000181   0.002156  -0.013492  -0.050941   0.442084   4.917338
     7  N   -0.000000  -0.000002  -0.002519   0.016193  -0.055659   0.510419
     8  C    0.000002   0.000019   0.000544  -0.003366  -0.037606  -0.106302
     9  C   -0.000004   0.000032  -0.000627   0.009343  -0.060711  -0.024125
    10  C    0.000061   0.000021   0.005408  -0.087139   0.482245  -0.034583
    11  H   -0.040510   0.436044  -0.052175   0.001105  -0.000721  -0.000061
    12  H   -0.040510   0.436044  -0.052175   0.001105  -0.000721  -0.000061
    13  H    0.001635  -0.028047   0.425286  -0.043509   0.002064  -0.003251
    14  H    0.001635  -0.028047   0.425286  -0.043509   0.002064  -0.003251
    15  H    0.000035  -0.004762  -0.031086   0.408643  -0.037264   0.001043
    16  H    0.000035  -0.004762  -0.031086   0.408643  -0.037264   0.001043
    17  H    0.000197   0.000921  -0.002091   0.001302  -0.092005   0.453548
    18  H   -0.000000  -0.000000  -0.000023   0.000213  -0.000855   0.005653
    19  H   -0.000000  -0.000001  -0.000015   0.000380   0.012372  -0.002487
    20  H   -0.000000  -0.000004   0.000483  -0.001204  -0.047351   0.004741
               7          8          9         10         11         12
     1  Br  -0.000000   0.000002  -0.000004   0.000061  -0.040510  -0.040510
     2  C   -0.000002   0.000019   0.000032   0.000021   0.436044   0.436044
     3  C   -0.002519   0.000544  -0.000627   0.005408  -0.052175  -0.052175
     4  C    0.016193  -0.003366   0.009343  -0.087139   0.001105   0.001105
     5  C   -0.055659  -0.037606  -0.060711   0.482245  -0.000721  -0.000721
     6  C    0.510419  -0.106302  -0.024125  -0.034583  -0.000061  -0.000061
     7  N    6.413849   0.504406  -0.049933  -0.063938  -0.000000  -0.000000
     8  C    0.504406   4.828143   0.490306  -0.035294  -0.000000  -0.000000
     9  C   -0.049933   0.490306   4.976446   0.501754  -0.000000  -0.000000
    10  C   -0.063938  -0.035294   0.501754   5.021797   0.000050   0.000050
    11  H   -0.000000  -0.000000  -0.000000   0.000050   0.522967  -0.036652
    12  H   -0.000000  -0.000000  -0.000000   0.000050  -0.036652   0.522967
    13  H   -0.000043  -0.000116  -0.000008   0.000080   0.006545  -0.006741
    14  H   -0.000043  -0.000116  -0.000008   0.000080  -0.006741   0.006545
    15  H   -0.000426   0.000246  -0.000378  -0.005239   0.000102   0.001575
    16  H   -0.000426   0.000246  -0.000378  -0.005239   0.001575   0.000102
    17  H   -0.026948   0.009145  -0.001835   0.002489  -0.000044  -0.000044
    18  H   -0.034708   0.435468  -0.069181   0.002411   0.000000   0.000000
    19  H    0.006985  -0.028131   0.414288  -0.056878  -0.000000  -0.000000
    20  H   -0.002186   0.003060  -0.032823   0.423713   0.000002   0.000002
              13         14         15         16         17         18
     1  Br   0.001635   0.001635   0.000035   0.000035   0.000197  -0.000000
     2  C   -0.028047  -0.028047  -0.004762  -0.004762   0.000921  -0.000000
     3  C    0.425286   0.425286  -0.031086  -0.031086  -0.002091  -0.000023
     4  C   -0.043509  -0.043509   0.408643   0.408643   0.001302   0.000213
     5  C    0.002064   0.002064  -0.037264  -0.037264  -0.092005  -0.000855
     6  C   -0.003251  -0.003251   0.001043   0.001043   0.453548   0.005653
     7  N   -0.000043  -0.000043  -0.000426  -0.000426  -0.026948  -0.034708
     8  C   -0.000116  -0.000116   0.000246   0.000246   0.009145   0.435468
     9  C   -0.000008  -0.000008  -0.000378  -0.000378  -0.001835  -0.069181
    10  C    0.000080   0.000080  -0.005239  -0.005239   0.002489   0.002411
    11  H    0.006545  -0.006741   0.000102   0.001575  -0.000044   0.000000
    12  H   -0.006741   0.006545   0.001575   0.000102  -0.000044   0.000000
    13  H    0.511107  -0.033038  -0.006837   0.006636  -0.004285   0.000001
    14  H   -0.033038   0.511107   0.006636  -0.006837  -0.004285   0.000001
    15  H   -0.006837   0.006636   0.546496  -0.039587  -0.000196  -0.000002
    16  H    0.006636  -0.006837  -0.039587   0.546496  -0.000196  -0.000002
    17  H   -0.004285  -0.004285  -0.000196  -0.000196   0.505120   0.000018
    18  H    0.000001   0.000001  -0.000002  -0.000002   0.000018   0.517055
    19  H   -0.000000  -0.000000  -0.000041  -0.000041   0.000087  -0.000298
    20  H    0.000005   0.000005   0.000593   0.000593  -0.000229  -0.000272
              19         20
     1  Br  -0.000000  -0.000000
     2  C   -0.000001  -0.000004
     3  C   -0.000015   0.000483
     4  C    0.000380  -0.001204
     5  C    0.012372  -0.047351
     6  C   -0.002487   0.004741
     7  N    0.006985  -0.002186
     8  C   -0.028131   0.003060
     9  C    0.414288  -0.032823
    10  C   -0.056878   0.423713
    11  H   -0.000000   0.000002
    12  H   -0.000000   0.000002
    13  H   -0.000000   0.000005
    14  H   -0.000000   0.000005
    15  H   -0.000041   0.000593
    16  H   -0.000041   0.000593
    17  H    0.000087  -0.000229
    18  H   -0.000298  -0.000272
    19  H    0.515804  -0.005786
    20  H   -0.005786   0.502563
 Mulliken charges:
               1
     1  Br  -0.150154
     2  C   -0.206439
     3  C   -0.344173
     4  C   -0.331364
     5  C    0.106432
     6  C   -0.099289
     7  N   -0.215021
     8  C   -0.060655
     9  C   -0.152158
    10  C   -0.151847
    11  H    0.168514
    12  H    0.168514
    13  H    0.172519
    14  H    0.172519
    15  H    0.160447
    16  H    0.160447
    17  H    0.159333
    18  H    0.144520
    19  H    0.143760
    20  H    0.154095
 Sum of Mulliken charges =  -0.00000
 Mulliken charges with hydrogens summed into heavy atoms:
               1
     1  Br  -0.150154
     2  C    0.130590
     3  C    0.000864
     4  C   -0.010471
     5  C    0.106432
     6  C    0.060044
     7  N   -0.215021
     8  C    0.083865
     9  C   -0.008398
    10  C    0.002247
 Electronic spatial extent (au):  <R**2>=           3820.9628
 Charge=              0.0000 electrons
 Dipole moment (field-independent basis, Debye):
    X=              3.7226    Y=             -0.6038    Z=             -0.0000  Tot=              3.7713
 Quadrupole moment (field-independent basis, Debye-Ang):
   XX=            -70.7626   YY=            -79.0944   ZZ=            -74.7894
   XY=             -4.6754   XZ=             -0.0000   YZ=             -0.0000
 Traceless Quadrupole moment (field-independent basis, Debye-Ang):
   XX=              4.1195   YY=             -4.2122   ZZ=              0.0927
   XY=             -4.6754   XZ=             -0.0000   YZ=             -0.0000
 Octapole moment (field-independent basis, Debye-Ang**2):
  XXX=            -20.0628  YYY=             50.4702  ZZZ=             -0.0000  XYY=             31.1397
  XXY=             34.0268  XXZ=              0.0000  XZZ=            -11.6407  YZZ=             43.9040
  YYZ=             -0.0000  XYZ=             -0.0000
 Hexadecapole moment (field-independent basis, Debye-Ang**3):
 XXXX=           -576.0441 YYYY=          -3687.1522 ZZZZ=           -105.3714 XXXY=            317.3837
 XXXZ=              0.0000 YYYX=            233.6414 YYYZ=             -0.0000 ZZZX=              0.0000
 ZZZY=             -0.0000 XXYY=           -726.8866 XXZZ=           -122.9028 YYZZ=           -702.2423
 XXYZ=             -0.0000 YYXZ=              0.0000 ZZXY=            138.5328
 N-N= 6.732881159513D+02 E-N=-8.347437754357D+03  KE= 2.934428374799D+03
 Symmetry A'   KE= 2.545363582726D+03
 Symmetry A"   KE= 3.890647920726D+02
 Unable to Open any file for archive entry.
 1\1\GINC-COMPUTE-0-35\SP\RM062X\def2TZVP\C8H10Br1N1\ZTAN64\14-Aug-2024
 \0\\# M062X/def2tzvp int=(grid=ultrafine) nmr=giao guess=read geom=che
 ck\\pyrd10.xyz\\0,1\Br,0,5.9248513465,-0.9870116239,1.1859928714\C,0,4
 .3006694443,-1.2989679931,0.1039328872\C,0,3.0834889967,-1.5000550159,
 0.9898812765\C,0,1.8287658834,-1.741265532,0.1427497515\C,0,0.54474452
 47,-1.9564688207,0.9178357743\C,0,0.4762031198,-1.941828427,2.31517424
 18\N,0,-0.6480186398,-2.1297375271,3.0203500768\C,0,-1.7756451763,-2.3
 449969605,2.3377964574\C,0,-1.8301581984,-2.3816445213,0.9429587834\C,
 0,-0.6535904865,-2.1844975904,0.230295981\H,0,4.2084827891,-0.42304743
 51,-0.5385255457\H,0,4.5226220239,-2.1757385133,-0.5047530325\H,0,3.26
 18020754,-2.3488585649,1.6578088186\H,0,2.9515476774,-0.6178423307,1.6
 244539568\H,0,1.9951469514,-2.6126795561,-0.5052841506\H,0,1.686588654
 7,-0.8911264554,-0.5384566677\H,0,1.3712479239,-1.7700058872,2.9068726
 616\H,0,-2.6763643058,-2.4950327571,2.9295444255\H,0,-2.7715600873,-2.
 5601894306,0.4335859563\H,0,-0.6579336468,-2.2062248488,-0.8568844277\
 \Version=ES64L-G16RevC.01\State=1-A'\HF=-2939.7863731\RMSD=4.560e-09\D
 ipole=-0.6586183,-0.1435152,-1.3217835\Quadrupole=-0.5432388,0.0808612
 ,0.4623776,-0.0219614,4.5543631,0.8238714\PG=CS [SG(C8H4Br1N1),X(H6)]\
 \@
 The archive entry for this job was punched.


 STEINBACH'S GUIDELINES FOR SYSTEMS PROGRAMMING:
 NEVER TEST FOR AN ERROR CONDITION YOU DON'T KNOW HOW
 TO HANDLE.
 Job cpu time:       0 days  0 hours 18 minutes 14.0 seconds.
 Elapsed time:       0 days  0 hours  1 minutes 14.7 seconds.
 File lengths (MBytes):  RWF=     89 Int=      0 D2E=      0 Chk=     15 Scr=      1
 Normal termination of Gaussian 16 at Wed Aug 14 18:51:13 2024.
 
 
-----Kestrel cluster job statistics-----
Time info:

real	5m27.667s
user	84m12.452s
sys	0m13.168s
 
Disk space usage:
15M	/scratch/362945.kestrel.chem.wisc.edu
