 Entering Gaussian System, Link 0=/share/apps/gaussian/g16/g16
 Initial command:
 /share/apps/gaussian/g16/l1.exe "/scratch/362951.kestrel.chem.wisc.edu/Gau-4793.inp" -scrdir="/scratch/362951.kestrel.chem.wisc.edu/"
 Entering Link 1 = /share/apps/gaussian/g16/l1.exe PID=      4794.
  
 Copyright (c) 1988-2019, Gaussian, Inc.  All Rights Reserved.
  
 This is part of the Gaussian(R) 16 program.  It is based on
 the Gaussian(R) 09 system (copyright 2009, Gaussian, Inc.),
 the Gaussian(R) 03 system (copyright 2003, Gaussian, Inc.),
 the Gaussian(R) 98 system (copyright 1998, Gaussian, Inc.),
 the Gaussian(R) 94 system (copyright 1995, Gaussian, Inc.),
 the Gaussian 92(TM) system (copyright 1992, Gaussian, Inc.),
 the Gaussian 90(TM) system (copyright 1990, Gaussian, Inc.),
 the Gaussian 88(TM) system (copyright 1988, Gaussian, Inc.),
 the Gaussian 86(TM) system (copyright 1986, Carnegie Mellon
 University), and the Gaussian 82(TM) system (copyright 1983,
 Carnegie Mellon University). Gaussian is a federally registered
 trademark of Gaussian, Inc.
  
 This software contains proprietary and confidential information,
 including trade secrets, belonging to Gaussian, Inc.
  
 This software is provided under written license and may be
 used, copied, transmitted, or stored only in accord with that
 written license.
  
 The following legend is applicable only to US Government
 contracts under FAR:
  
                    RESTRICTED RIGHTS LEGEND
  
 Use, reproduction and disclosure by the US Government is
 subject to restrictions as set forth in subparagraphs (a)
 and (c) of the Commercial Computer Software - Restricted
 Rights clause in FAR 52.227-19.
  
 Gaussian, Inc.
 340 Quinnipiac St., Bldg. 40, Wallingford CT 06492
  
  
 ---------------------------------------------------------------
 Warning -- This program may not be used in any manner that
 competes with the business of Gaussian, Inc. or will provide
 assistance to any competitor of Gaussian, Inc.  The licensee
 of this program is prohibited from giving any competitor of
 Gaussian, Inc. access to this program.  By using this program,
 the user acknowledges that Gaussian, Inc. is engaged in the
 business of creating and licensing software in the field of
 computational chemistry and represents and warrants to the
 licensee that it is not a competitor of Gaussian, Inc. and that
 it will not use this program in any manner prohibited above.
 ---------------------------------------------------------------
  

 Cite this work as:
 Gaussian 16, Revision C.01,
 M. J. Frisch, G. W. Trucks, H. B. Schlegel, G. E. Scuseria, 
 M. A. Robb, J. R. Cheeseman, G. Scalmani, V. Barone, 
 G. A. Petersson, H. Nakatsuji, X. Li, M. Caricato, A. V. Marenich, 
 J. Bloino, B. G. Janesko, R. Gomperts, B. Mennucci, H. P. Hratchian, 
 J. V. Ortiz, A. F. Izmaylov, J. L. Sonnenberg, D. Williams-Young, 
 F. Ding, F. Lipparini, F. Egidi, J. Goings, B. Peng, A. Petrone, 
 T. Henderson, D. Ranasinghe, V. G. Zakrzewski, J. Gao, N. Rega, 
 G. Zheng, W. Liang, M. Hada, M. Ehara, K. Toyota, R. Fukuda, 
 J. Hasegawa, M. Ishida, T. Nakajima, Y. Honda, O. Kitao, H. Nakai, 
 T. Vreven, K. Throssell, J. A. Montgomery, Jr., J. E. Peralta, 
 F. Ogliaro, M. J. Bearpark, J. J. Heyd, E. N. Brothers, K. N. Kudin, 
 V. N. Staroverov, T. A. Keith, R. Kobayashi, J. Normand, 
 K. Raghavachari, A. P. Rendell, J. C. Burant, S. S. Iyengar, 
 J. Tomasi, M. Cossi, J. M. Millam, M. Klene, C. Adamo, R. Cammi, 
 J. W. Ochterski, R. L. Martin, K. Morokuma, O. Farkas, 
 J. B. Foresman, and D. J. Fox, Gaussian, Inc., Wallingford CT, 2019.
 
 ******************************************
 Gaussian 16:  ES64L-G16RevC.01  3-Jul-2019
                14-Aug-2024 
 ******************************************
 %nprocs=16
 Will use up to   16 processors via shared memory.
 %mem=16GB
 %chk=pyrd10_conf-4.chk
 ----------------------------------------------------------------------
 # B3LYP/6-31G(d,p) symmetry=loose empiricaldispersion=GD3BJ int=(grid=
 ultrafine) opt freq=noraman
 ----------------------------------------------------------------------
 1/18=20,19=15,26=4,38=1/1,3;
 2/9=110,12=2,17=4,18=3,40=1/2;
 3/5=1,6=6,7=101,11=2,25=1,30=1,71=1,74=-5,75=-5,124=41/1,2,3;
 4//1;
 5/5=2,38=5/2;
 6/7=2,8=2,9=2,10=2,28=1/1;
 7//1,2,3,16;
 1/18=20,19=15,26=4/3(2);
 2/9=110/2;
 99//99;
 2/9=110/2;
 3/5=1,6=6,7=101,11=2,25=1,30=1,71=1,74=-5,75=-5,124=41/1,2,3;
 4/5=5,16=3,69=1/1;
 5/5=2,38=5/2;
 7//1,2,3,16;
 1/18=20,19=15,26=4/3(-5);
 2/9=110/2;
 6/7=2,8=2,9=2,10=2,19=2,28=1/1;
 99/9=1/99;
 ----------
 pyrd10.xyz
 ----------
 Symbolic Z-matrix:
 Charge =  0 Multiplicity = 1
 Br                    4.7753   -0.7446   -0.843 
 C                     4.6022   -1.7773    0.8514 
 C                     3.1532   -2.2559    1.0419 
 C                     2.1406   -1.1104    1.235 
 C                     0.7253   -1.6226    1.4464 
 C                     0.2025   -1.7897    2.7336 
 N                    -1.0534   -2.2488    2.9677 
 C                    -1.8271   -2.5548    1.8955 
 C                    -1.3844   -2.4174    0.5783 
 C                    -0.0893   -1.9446    0.3553 
 H                     5.2912   -2.6209    0.7898 
 H                     4.9326   -1.1392    1.6723 
 H                     2.862    -2.8677    0.1861 
 H                     3.1107   -2.9167    1.9094 
 H                     2.1438   -0.4427    0.3714 
 H                     2.4287   -0.4847    2.0817 
 H                     0.7911   -1.5562    3.6088 
 H                    -2.8223   -2.9165    2.112 
 H                    -2.0284   -2.6705   -0.2511 
 H                     0.2772   -1.8302   -0.655 
 

 GradGradGradGradGradGradGradGradGradGradGradGradGradGradGradGradGradGrad
 Berny optimization.
 Initialization pass.
                           ----------------------------
                           !    Initial Parameters    !
                           ! (Angstroms and Degrees)  !
 --------------------------                            --------------------------
 ! Name  Definition              Value          Derivative Info.                !
 --------------------------------------------------------------------------------
 ! R1    R(1,2)                  1.9918         estimate D2E/DX2                !
 ! R2    R(2,3)                  1.5378         estimate D2E/DX2                !
 ! R3    R(2,11)                 1.091          estimate D2E/DX2                !
 ! R4    R(2,12)                 1.091          estimate D2E/DX2                !
 ! R5    R(3,4)                  1.541          estimate D2E/DX2                !
 ! R6    R(3,13)                 1.0916         estimate D2E/DX2                !
 ! R7    R(3,14)                 1.0913         estimate D2E/DX2                !
 ! R8    R(4,5)                  1.5199         estimate D2E/DX2                !
 ! R9    R(4,15)                 1.0916         estimate D2E/DX2                !
 ! R10   R(4,16)                 1.0915         estimate D2E/DX2                !
 ! R11   R(5,6)                  1.3993         estimate D2E/DX2                !
 ! R12   R(5,10)                 1.3992         estimate D2E/DX2                !
 ! R13   R(6,7)                  1.3575         estimate D2E/DX2                !
 ! R14   R(6,17)                 1.0803         estimate D2E/DX2                !
 ! R15   R(7,8)                  1.3572         estimate D2E/DX2                !
 ! R16   R(8,9)                  1.3964         estimate D2E/DX2                !
 ! R17   R(8,18)                 1.0808         estimate D2E/DX2                !
 ! R18   R(9,10)                 1.3966         estimate D2E/DX2                !
 ! R19   R(9,19)                 1.0801         estimate D2E/DX2                !
 ! R20   R(10,20)                1.0808         estimate D2E/DX2                !
 ! A1    A(1,2,3)              110.4027         estimate D2E/DX2                !
 ! A2    A(1,2,11)             107.3373         estimate D2E/DX2                !
 ! A3    A(1,2,12)             108.0907         estimate D2E/DX2                !
 ! A4    A(3,2,11)             111.1871         estimate D2E/DX2                !
 ! A5    A(3,2,12)             111.9732         estimate D2E/DX2                !
 ! A6    A(11,2,12)            107.6679         estimate D2E/DX2                !
 ! A7    A(2,3,4)              113.7856         estimate D2E/DX2                !
 ! A8    A(2,3,13)             109.1884         estimate D2E/DX2                !
 ! A9    A(2,3,14)             108.8808         estimate D2E/DX2                !
 ! A10   A(4,3,13)             109.8507         estimate D2E/DX2                !
 ! A11   A(4,3,14)             108.9588         estimate D2E/DX2                !
 ! A12   A(13,3,14)            105.8699         estimate D2E/DX2                !
 ! A13   A(3,4,5)              112.2591         estimate D2E/DX2                !
 ! A14   A(3,4,15)             110.708          estimate D2E/DX2                !
 ! A15   A(3,4,16)             110.4794         estimate D2E/DX2                !
 ! A16   A(5,4,15)             108.5958         estimate D2E/DX2                !
 ! A17   A(5,4,16)             109.3335         estimate D2E/DX2                !
 ! A18   A(15,4,16)            105.2052         estimate D2E/DX2                !
 ! A19   A(4,5,6)              121.0696         estimate D2E/DX2                !
 ! A20   A(4,5,10)             120.7447         estimate D2E/DX2                !
 ! A21   A(6,5,10)             118.1853         estimate D2E/DX2                !
 ! A22   A(5,6,7)              123.001          estimate D2E/DX2                !
 ! A23   A(5,6,17)             121.0563         estimate D2E/DX2                !
 ! A24   A(7,6,17)             115.9427         estimate D2E/DX2                !
 ! A25   A(6,7,8)              117.8675         estimate D2E/DX2                !
 ! A26   A(7,8,9)              122.8413         estimate D2E/DX2                !
 ! A27   A(7,8,18)             116.2406         estimate D2E/DX2                !
 ! A28   A(9,8,18)             120.9181         estimate D2E/DX2                !
 ! A29   A(8,9,10)             118.5494         estimate D2E/DX2                !
 ! A30   A(8,9,19)             120.8135         estimate D2E/DX2                !
 ! A31   A(10,9,19)            120.6371         estimate D2E/DX2                !
 ! A32   A(5,10,9)             119.5554         estimate D2E/DX2                !
 ! A33   A(5,10,20)            120.4749         estimate D2E/DX2                !
 ! A34   A(9,10,20)            119.9697         estimate D2E/DX2                !
 ! D1    D(1,2,3,4)            -65.0123         estimate D2E/DX2                !
 ! D2    D(1,2,3,13)            58.1017         estimate D2E/DX2                !
 ! D3    D(1,2,3,14)           173.2539         estimate D2E/DX2                !
 ! D4    D(11,2,3,4)           175.9645         estimate D2E/DX2                !
 ! D5    D(11,2,3,13)          -60.9215         estimate D2E/DX2                !
 ! D6    D(11,2,3,14)           54.2307         estimate D2E/DX2                !
 ! D7    D(12,2,3,4)            55.4741         estimate D2E/DX2                !
 ! D8    D(12,2,3,13)          178.588          estimate D2E/DX2                !
 ! D9    D(12,2,3,14)          -66.2597         estimate D2E/DX2                !
 ! D10   D(2,3,4,5)           -178.9066         estimate D2E/DX2                !
 ! D11   D(2,3,4,15)            59.5536         estimate D2E/DX2                !
 ! D12   D(2,3,4,16)           -56.5817         estimate D2E/DX2                !
 ! D13   D(13,3,4,5)            58.3419         estimate D2E/DX2                !
 ! D14   D(13,3,4,15)          -63.1979         estimate D2E/DX2                !
 ! D15   D(13,3,4,16)         -179.3332         estimate D2E/DX2                !
 ! D16   D(14,3,4,5)           -57.2161         estimate D2E/DX2                !
 ! D17   D(14,3,4,15)         -178.7559         estimate D2E/DX2                !
 ! D18   D(14,3,4,16)           65.1088         estimate D2E/DX2                !
 ! D19   D(3,4,5,6)             95.5382         estimate D2E/DX2                !
 ! D20   D(3,4,5,10)           -84.2369         estimate D2E/DX2                !
 ! D21   D(15,4,5,6)          -141.7213         estimate D2E/DX2                !
 ! D22   D(15,4,5,10)           38.5036         estimate D2E/DX2                !
 ! D23   D(16,4,5,6)           -27.4343         estimate D2E/DX2                !
 ! D24   D(16,4,5,10)          152.7906         estimate D2E/DX2                !
 ! D25   D(4,5,6,7)           -179.743          estimate D2E/DX2                !
 ! D26   D(4,5,6,17)             0.1674         estimate D2E/DX2                !
 ! D27   D(10,5,6,7)             0.0377         estimate D2E/DX2                !
 ! D28   D(10,5,6,17)          179.9481         estimate D2E/DX2                !
 ! D29   D(4,5,10,9)           179.789          estimate D2E/DX2                !
 ! D30   D(4,5,10,20)           -0.1843         estimate D2E/DX2                !
 ! D31   D(6,5,10,9)             0.0076         estimate D2E/DX2                !
 ! D32   D(6,5,10,20)         -179.9657         estimate D2E/DX2                !
 ! D33   D(5,6,7,8)             -0.0618         estimate D2E/DX2                !
 ! D34   D(17,6,7,8)          -179.9764         estimate D2E/DX2                !
 ! D35   D(6,7,8,9)              0.0418         estimate D2E/DX2                !
 ! D36   D(6,7,8,18)          -179.9163         estimate D2E/DX2                !
 ! D37   D(7,8,9,10)             0.0012         estimate D2E/DX2                !
 ! D38   D(7,8,9,19)          -179.9784         estimate D2E/DX2                !
 ! D39   D(18,8,9,10)          179.9574         estimate D2E/DX2                !
 ! D40   D(18,8,9,19)           -0.0222         estimate D2E/DX2                !
 ! D41   D(8,9,10,5)            -0.0259         estimate D2E/DX2                !
 ! D42   D(8,9,10,20)          179.9475         estimate D2E/DX2                !
 ! D43   D(19,9,10,5)          179.9537         estimate D2E/DX2                !
 ! D44   D(19,9,10,20)          -0.0729         estimate D2E/DX2                !
 --------------------------------------------------------------------------------
 Trust Radius=3.00D-01 FncErr=1.00D-07 GrdErr=1.00D-06 EigMax=2.50D+02 EigMin=1.00D-04
 Number of steps in this run=    108 maximum allowed number of steps=    120.
 GradGradGradGradGradGradGradGradGradGradGradGradGradGradGradGradGradGrad

                          Input orientation:                          
 ---------------------------------------------------------------------
 Center     Atomic      Atomic             Coordinates (Angstroms)
 Number     Number       Type             X           Y           Z
 ---------------------------------------------------------------------
      1         35           0        4.775300   -0.744600   -0.843000
      2          6           0        4.602200   -1.777300    0.851400
      3          6           0        3.153200   -2.255900    1.041900
      4          6           0        2.140600   -1.110400    1.235000
      5          6           0        0.725300   -1.622600    1.446400
      6          6           0        0.202500   -1.789700    2.733600
      7          7           0       -1.053400   -2.248800    2.967700
      8          6           0       -1.827100   -2.554800    1.895500
      9          6           0       -1.384400   -2.417400    0.578300
     10          6           0       -0.089300   -1.944600    0.355300
     11          1           0        5.291200   -2.620900    0.789800
     12          1           0        4.932600   -1.139200    1.672300
     13          1           0        2.862000   -2.867700    0.186100
     14          1           0        3.110700   -2.916700    1.909400
     15          1           0        2.143800   -0.442700    0.371400
     16          1           0        2.428700   -0.484700    2.081700
     17          1           0        0.791100   -1.556200    3.608800
     18          1           0       -2.822300   -2.916500    2.112000
     19          1           0       -2.028400   -2.670500   -0.251100
     20          1           0        0.277200   -1.830200   -0.655000
 ---------------------------------------------------------------------
                    Distance matrix (angstroms):
                    1          2          3          4          5
     1  Br   0.000000
     2  C    1.991839   0.000000
     3  C    2.909997   1.537839   0.000000
     4  C    3.375431   2.579027   1.541044   0.000000
     5  C    4.734420   3.925342   2.541533   1.519906   0.000000
     6  C    5.898712   4.785414   3.433048   2.542338   1.399331
     7  N    7.124451   6.056967   4.626472   3.807866   2.422861
     8  C    7.373459   6.559767   5.061755   4.273780   2.754167
     9  C    6.539133   6.026914   4.564079   3.816429   2.415810
    10  C    5.151724   4.720622   3.328984   2.538152   1.399198
    11  H    2.540215   1.090952   2.183535   3.522229   4.719658
    12  H    2.550919   1.090969   2.193328   2.826186   4.241000
    13  H    3.037650   2.158678   1.091554   2.169957   2.775629
    14  H    3.881316   2.154569   1.091338   2.158386   2.753034
    15  H    2.913881   2.838184   2.180861   1.091622   2.135400
    16  H    3.758716   2.812215   2.177897   1.091514   2.144760
    17  H    6.029185   4.709206   3.557818   2.766734   2.164420
    18  H    8.436391   7.616435   6.106399   5.353644   3.834406
    19  H    7.095757   6.780720   5.356559   4.692863   3.400362
    20  H    4.631066   4.580138   3.366313   2.749995   2.158651
                    6          7          8          9         10
     6  C    0.000000
     7  N    1.357520   0.000000
     8  C    2.325310   1.357152   0.000000
     9  C    2.749105   2.418102   1.396380   0.000000
    10  C    2.401136   2.801189   2.400939   1.396622   0.000000
    11  H    5.510365   6.718308   7.203967   6.682049   5.440216
    12  H    4.891151   6.224265   6.909941   6.537210   5.253821
    13  H    3.837288   4.842592   5.000761   4.288182   3.096920
    14  H    3.225998   4.348082   4.951064   4.714557   3.687846
    15  H    3.341114   4.497206   4.748883   4.048511   2.691226
    16  H    2.661572   4.002757   4.736224   4.531586   3.384094
    17  H    1.080253   2.071928   3.284444   3.828628   3.392819
    18  H    3.287169   2.075344   1.080797   2.160762   3.391146
    19  H    3.828989   3.389562   2.159120   1.080139   2.157489
    20  H    3.389665   3.881968   3.384992   2.150988   1.080794
                   11         12         13         14         15
    11  H    0.000000
    12  H    1.761487   0.000000
    13  H    2.515229   3.079592   0.000000
    14  H    2.468923   2.556373   1.741843   0.000000
    15  H    3.850421   3.155132   2.535897   3.069367   0.000000
    16  H    3.798192   2.620209   3.075669   2.531686   1.734375
    17  H    5.415833   4.590854   4.209933   3.181111   3.681092
    18  H    8.225842   7.968099   6.001895   5.936458   5.814768
    19  H    7.393408   7.382403   4.913862   5.580208   4.770519
    20  H    5.277580   5.250386   2.909475   3.973078   2.542213
                   16         17         18         19         20
    16  H    0.000000
    17  H    2.482314   0.000000
    18  H    5.786845   4.140952   0.000000
    19  H    5.485018   4.908164   2.505002   0.000000
    20  H    3.732137   4.303389   4.294559   2.486972   0.000000
 Stoichiometry    C8H10BrN
 Framework group  C1[X(C8H10BrN)]
 Deg. of freedom    54
 Full point group                 C1      NOp   1
 Largest Abelian subgroup         C1      NOp   1
 Largest concise Abelian subgroup C1      NOp   1
                         Standard orientation:                         
 ---------------------------------------------------------------------
 Center     Atomic      Atomic             Coordinates (Angstroms)
 Number     Number       Type             X           Y           Z
 ---------------------------------------------------------------------
      1         35           0        3.030815   -0.400099   -0.142578
      2          6           0        2.024929    1.164253    0.570456
      3          6           0        0.545617    0.800089    0.780149
      4          6           0       -0.206072    0.476985   -0.525754
      5          6           0       -1.669707    0.148150   -0.281312
      6          6           0       -2.660311    1.128987   -0.402928
      7          7           0       -3.977529    0.880042   -0.188866
      8          6           0       -4.336529   -0.382210    0.157110
      9          6           0       -3.413133   -1.419919    0.299861
     10          6           0       -2.061850   -1.146343    0.076833
     11          1           0        2.496955    1.453184    1.510608
     12          1           0        2.146224    1.992495   -0.129198
     13          1           0        0.478272   -0.046578    1.465795
     14          1           0        0.045110    1.630418    1.281213
     15          1           0        0.258882   -0.366035   -1.040315
     16          1           0       -0.135245    1.312946   -1.224006
     17          1           0       -2.409423    2.143546   -0.676192
     18          1           0       -5.391537   -0.551350    0.319809
     19          1           0       -3.735326   -2.413120    0.576347
     20          1           0       -1.327398   -1.932274    0.181757
 ---------------------------------------------------------------------
 Rotational constants (GHZ):           3.1093985           0.3115959           0.2932579
 Standard basis: 6-31G(d,p) (6D, 7F)
 There are   215 symmetry adapted cartesian basis functions of A   symmetry.
 There are   215 symmetry adapted basis functions of A   symmetry.
   215 basis functions,   405 primitive gaussians,   215 cartesian basis functions
    50 alpha electrons       50 beta electrons
       nuclear repulsion energy       691.2889027198 Hartrees.
 NAtoms=   20 NActive=   20 NUniq=   20 SFac= 1.00D+00 NAtFMM=   60 NAOKFM=F Big=F
 Integral buffers will be    131072 words long.
 Raffenetti 2 integral format.
 Two-electron integral symmetry is turned on.
 Nuclear repulsion after empirical dispersion term =      691.2514151558 Hartrees.
 One-electron integrals computed using PRISM.
 NBasis=   215 RedAO= T EigKep=  7.46D-04  NBF=   215
 NBsUse=   215 1.00D-06 EigRej= -1.00D+00 NBFU=   215
 ExpMin= 1.43D-01 ExpMax= 5.74D+05 ExpMxC= 5.74D+03 IAcc=3 IRadAn=         5 AccDes= 0.00D+00
 Harris functional with IExCor=  402 and IRadAn=       5 diagonalized for initial guess.
 HarFok:  IExCor=  402 AccDes= 0.00D+00 IRadAn=         5 IDoV= 1 UseB2=F ITyADJ=14
 ICtDFT=  3500011 ScaDFX=  1.000000  1.000000  1.000000  1.000000
 FoFCou: FMM=F IPFlag=           0 FMFlag=      100000 FMFlg1=           0
         NFxFlg=           0 DoJE=T BraDBF=F KetDBF=T FulRan=T
         wScrn=  0.000000 ICntrl=       500 IOpCl=  0 I1Cent=   200000004 NGrid=           0
         NMat0=    1 NMatS0=      1 NMatT0=    0 NMatD0=    1 NMtDS0=    0 NMtDT0=    0
 Petite list used in FoFCou.
 Requested convergence on RMS density matrix=1.00D-08 within 128 cycles.
 Requested convergence on MAX density matrix=1.00D-06.
 Requested convergence on             energy=1.00D-06.
 No special actions if energy rises.
 Integral accuracy reduced to 1.0D-05 until final iterations.
 Initial convergence to 1.0D-05 achieved.  Increase integral accuracy.
 SCF Done:  E(RB3LYP) =  -2937.38581216     A.U. after   14 cycles
            NFock= 14  Conv=0.41D-08     -V/T= 2.0066

 **********************************************************************

            Population analysis using the SCF Density.

 **********************************************************************

 Orbital symmetries:
       Occupied  (A) (A) (A) (A) (A) (A) (A) (A) (A) (A) (A) (A)
                 (A) (A) (A) (A) (A) (A) (A) (A) (A) (A) (A) (A)
                 (A) (A) (A) (A) (A) (A) (A) (A) (A) (A) (A) (A)
                 (A) (A) (A) (A) (A) (A) (A) (A) (A) (A) (A) (A)
                 (A) (A)
       Virtual   (A) (A) (A) (A) (A) (A) (A) (A) (A) (A) (A) (A)
                 (A) (A) (A) (A) (A) (A) (A) (A) (A) (A) (A) (A)
                 (A) (A) (A) (A) (A) (A) (A) (A) (A) (A) (A) (A)
                 (A) (A) (A) (A) (A) (A) (A) (A) (A) (A) (A) (A)
                 (A) (A) (A) (A) (A) (A) (A) (A) (A) (A) (A) (A)
                 (A) (A) (A) (A) (A) (A) (A) (A) (A) (A) (A) (A)
                 (A) (A) (A) (A) (A) (A) (A) (A) (A) (A) (A) (A)
                 (A) (A) (A) (A) (A) (A) (A) (A) (A) (A) (A) (A)
                 (A) (A) (A) (A) (A) (A) (A) (A) (A) (A) (A) (A)
                 (A) (A) (A) (A) (A) (A) (A) (A) (A) (A) (A) (A)
                 (A) (A) (A) (A) (A) (A) (A) (A) (A) (A) (A) (A)
                 (A) (A) (A) (A) (A) (A) (A) (A) (A) (A) (A) (A)
                 (A) (A) (A) (A) (A) (A) (A) (A) (A) (A) (A) (A)
                 (A) (A) (A) (A) (A) (A) (A) (A) (A)
 The electronic state is 1-A.
 Alpha  occ. eigenvalues -- -482.90032 -61.86263 -56.38315 -56.37948 -56.37937
 Alpha  occ. eigenvalues --  -14.33065 -10.25086 -10.22189 -10.22176 -10.20805
 Alpha  occ. eigenvalues --  -10.20701 -10.20633 -10.20024 -10.19882  -8.57379
 Alpha  occ. eigenvalues --   -6.52747  -6.51494  -6.51476  -2.64310  -2.63964
 Alpha  occ. eigenvalues --   -2.63949  -2.62950  -2.62950  -0.92928  -0.83407
 Alpha  occ. eigenvalues --   -0.80478  -0.77563  -0.73945  -0.68325  -0.63105
 Alpha  occ. eigenvalues --   -0.61816  -0.59212  -0.52077  -0.49283  -0.47378
 Alpha  occ. eigenvalues --   -0.46424  -0.44885  -0.42971  -0.40271  -0.40161
 Alpha  occ. eigenvalues --   -0.39154  -0.38342  -0.36567  -0.35231  -0.34678
 Alpha  occ. eigenvalues --   -0.28194  -0.27703  -0.27550  -0.25494  -0.25062
 Alpha virt. eigenvalues --   -0.02658  -0.01117  -0.00445   0.08911   0.09769
 Alpha virt. eigenvalues --    0.11507   0.13045   0.13331   0.14482   0.15438
 Alpha virt. eigenvalues --    0.16022   0.17045   0.17224   0.18785   0.20593
 Alpha virt. eigenvalues --    0.23374   0.24091   0.25154   0.29309   0.31521
 Alpha virt. eigenvalues --    0.32698   0.35971   0.40886   0.42520   0.43375
 Alpha virt. eigenvalues --    0.45017   0.46387   0.46903   0.47947   0.50704
 Alpha virt. eigenvalues --    0.50849   0.51831   0.53065   0.54812   0.55142
 Alpha virt. eigenvalues --    0.55741   0.57763   0.58915   0.59770   0.60582
 Alpha virt. eigenvalues --    0.61720   0.63221   0.63962   0.65624   0.66854
 Alpha virt. eigenvalues --    0.67445   0.69576   0.73795   0.76247   0.78307
 Alpha virt. eigenvalues --    0.80896   0.81128   0.82815   0.83369   0.84324
 Alpha virt. eigenvalues --    0.85550   0.86865   0.86995   0.88032   0.89462
 Alpha virt. eigenvalues --    0.91308   0.93427   0.94785   0.96655   0.98531
 Alpha virt. eigenvalues --    0.98870   1.04888   1.09079   1.10193   1.12584
 Alpha virt. eigenvalues --    1.16347   1.19293   1.25060   1.30066   1.33710
 Alpha virt. eigenvalues --    1.34841   1.38040   1.40119   1.42407   1.43226
 Alpha virt. eigenvalues --    1.47277   1.47917   1.48722   1.53435   1.57167
 Alpha virt. eigenvalues --    1.62936   1.69646   1.71842   1.74568   1.76572
 Alpha virt. eigenvalues --    1.78657   1.79945   1.82755   1.84673   1.85675
 Alpha virt. eigenvalues --    1.88560   1.89815   1.92666   1.96015   1.97121
 Alpha virt. eigenvalues --    2.00128   2.02100   2.08463   2.08668   2.10143
 Alpha virt. eigenvalues --    2.11660   2.12895   2.16629   2.19834   2.22925
 Alpha virt. eigenvalues --    2.23602   2.28296   2.30441   2.31373   2.32363
 Alpha virt. eigenvalues --    2.33643   2.35733   2.39123   2.40609   2.42891
 Alpha virt. eigenvalues --    2.45535   2.47515   2.49507   2.51038   2.53574
 Alpha virt. eigenvalues --    2.54861   2.58406   2.60909   2.63252   2.65632
 Alpha virt. eigenvalues --    2.67192   2.68654   2.71750   2.73477   2.76903
 Alpha virt. eigenvalues --    2.80115   2.82244   2.85919   2.88222   2.88721
 Alpha virt. eigenvalues --    2.98603   3.04852   3.18004   3.21982   3.23977
 Alpha virt. eigenvalues --    3.26662   3.28760   3.33562   3.39312   3.39418
 Alpha virt. eigenvalues --    3.46824   3.47596   3.55178   3.79359   4.09601
 Alpha virt. eigenvalues --    4.16429   4.18087   4.27485   4.32185   4.44151
 Alpha virt. eigenvalues --    4.48403   4.66556   4.74994   8.63563  73.18620
          Condensed to atoms (all electrons):
               1          2          3          4          5          6
     1  Br  35.016428   0.254185  -0.052169  -0.010727   0.000169  -0.000010
     2  C    0.254185   4.981531   0.330482  -0.040305   0.003597   0.000051
     3  C   -0.052169   0.330482   4.970637   0.362229  -0.040105  -0.003050
     4  C   -0.010727  -0.040305   0.362229   5.030792   0.342952  -0.042151
     5  C    0.000169   0.003597  -0.040105   0.342952   4.818162   0.487425
     6  C   -0.000010   0.000051  -0.003050  -0.042151   0.487425   4.812375
     7  N   -0.000000   0.000001  -0.000039   0.005638  -0.016216   0.438495
     8  C    0.000000  -0.000000   0.000020   0.000311  -0.032342  -0.073296
     9  C   -0.000000   0.000003  -0.000011   0.007138  -0.021538  -0.041405
    10  C   -0.000008   0.000084  -0.003987  -0.062135   0.537813  -0.037608
    11  H   -0.037029   0.377049  -0.029879   0.004088  -0.000095  -0.000003
    12  H   -0.037589   0.377223  -0.035951  -0.006329   0.000018   0.000001
    13  H   -0.000728  -0.037017   0.384417  -0.039488  -0.002590  -0.000040
    14  H    0.004697  -0.030206   0.368116  -0.039503  -0.000957   0.002653
    15  H    0.012921  -0.005796  -0.036342   0.375906  -0.027642   0.002758
    16  H    0.000084  -0.003696  -0.038552   0.371151  -0.030935  -0.005562
    17  H    0.000001  -0.000027   0.000264  -0.004309  -0.067230   0.387660
    18  H    0.000000   0.000000   0.000000   0.000014   0.000708   0.004549
    19  H   -0.000000  -0.000000  -0.000001  -0.000113   0.005035   0.000494
    20  H    0.000159  -0.000078   0.000338  -0.009177  -0.047305   0.005489
               7          8          9         10         11         12
     1  Br  -0.000000   0.000000  -0.000000  -0.000008  -0.037029  -0.037589
     2  C    0.000001  -0.000000   0.000003   0.000084   0.377049   0.377223
     3  C   -0.000039   0.000020  -0.000011  -0.003987  -0.029879  -0.035951
     4  C    0.005638   0.000311   0.007138  -0.062135   0.004088  -0.006329
     5  C   -0.016216  -0.032342  -0.021538   0.537813  -0.000095   0.000018
     6  C    0.438495  -0.073296  -0.041405  -0.037608  -0.000003   0.000001
     7  N    6.729938   0.458954  -0.024054  -0.055954  -0.000000   0.000000
     8  C    0.458954   4.726888   0.503373  -0.038943   0.000000  -0.000000
     9  C   -0.024054   0.503373   4.906639   0.513430  -0.000000  -0.000000
    10  C   -0.055954  -0.038943   0.513430   4.885957  -0.000001   0.000002
    11  H   -0.000000   0.000000  -0.000000  -0.000001   0.581515  -0.037717
    12  H    0.000000  -0.000000  -0.000000   0.000002  -0.037717   0.584790
    13  H   -0.000003  -0.000004  -0.000158   0.003656  -0.003776   0.005374
    14  H   -0.000083  -0.000005  -0.000022  -0.000029  -0.002289  -0.001585
    15  H   -0.000164   0.000023   0.000011  -0.005132   0.000125  -0.000217
    16  H    0.000077   0.000009  -0.000239   0.004244   0.000018   0.004744
    17  H   -0.049782   0.004809   0.000308   0.004158   0.000001   0.000003
    18  H   -0.050247   0.388059  -0.061640   0.003416  -0.000000   0.000000
    19  H    0.004866  -0.035681   0.358681  -0.039621   0.000000   0.000000
    20  H   -0.000284   0.004753  -0.045290   0.375250   0.000002   0.000001
              13         14         15         16         17         18
     1  Br  -0.000728   0.004697   0.012921   0.000084   0.000001   0.000000
     2  C   -0.037017  -0.030206  -0.005796  -0.003696  -0.000027   0.000000
     3  C    0.384417   0.368116  -0.036342  -0.038552   0.000264   0.000000
     4  C   -0.039488  -0.039503   0.375906   0.371151  -0.004309   0.000014
     5  C   -0.002590  -0.000957  -0.027642  -0.030935  -0.067230   0.000708
     6  C   -0.000040   0.002653   0.002758  -0.005562   0.387660   0.004549
     7  N   -0.000003  -0.000083  -0.000164   0.000077  -0.049782  -0.050247
     8  C   -0.000004  -0.000005   0.000023   0.000009   0.004809   0.388059
     9  C   -0.000158  -0.000022   0.000011  -0.000239   0.000308  -0.061640
    10  C    0.003656  -0.000029  -0.005132   0.004244   0.004158   0.003416
    11  H   -0.003776  -0.002289   0.000125   0.000018   0.000001  -0.000000
    12  H    0.005374  -0.001585  -0.000217   0.004744   0.000003   0.000000
    13  H    0.599849  -0.034634  -0.004964   0.005632   0.000016  -0.000000
    14  H   -0.034634   0.617729   0.005668  -0.004715   0.000357  -0.000000
    15  H   -0.004964   0.005668   0.585966  -0.036423  -0.000034  -0.000000
    16  H    0.005632  -0.004715  -0.036423   0.625295   0.005119  -0.000000
    17  H    0.000016   0.000357  -0.000034   0.005119   0.623057  -0.000193
    18  H   -0.000000  -0.000000  -0.000000  -0.000000  -0.000193   0.616220
    19  H    0.000003  -0.000000  -0.000009   0.000003   0.000027  -0.002292
    20  H    0.000958   0.000054   0.003971   0.000064  -0.000175  -0.000188
              19         20
     1  Br  -0.000000   0.000159
     2  C   -0.000000  -0.000078
     3  C   -0.000001   0.000338
     4  C   -0.000113  -0.009177
     5  C    0.005035  -0.047305
     6  C    0.000494   0.005489
     7  N    0.004866  -0.000284
     8  C   -0.035681   0.004753
     9  C    0.358681  -0.045290
    10  C   -0.039621   0.375250
    11  H    0.000000   0.000002
    12  H    0.000000   0.000001
    13  H    0.000003   0.000958
    14  H   -0.000000   0.000054
    15  H   -0.000009   0.003971
    16  H    0.000003   0.000064
    17  H    0.000027  -0.000175
    18  H   -0.002292  -0.000188
    19  H    0.622426  -0.006374
    20  H   -0.006374   0.618988
 Mulliken charges:
               1
     1  Br  -0.150383
     2  C   -0.207079
     3  C   -0.176417
     4  C   -0.245983
     5  C    0.091074
     6  C    0.061175
     7  N   -0.441143
     8  C    0.093073
     9  C   -0.095225
    10  C   -0.084593
    11  H    0.147993
    12  H    0.147233
    13  H    0.123498
    14  H    0.114754
    15  H    0.129376
    16  H    0.103681
    17  H    0.095970
    18  H    0.101596
    19  H    0.092558
    20  H    0.098845
 Sum of Mulliken charges =  -0.00000
 Mulliken charges with hydrogens summed into heavy atoms:
               1
     1  Br  -0.150383
     2  C    0.088147
     3  C    0.061835
     4  C   -0.012926
     5  C    0.091074
     6  C    0.157145
     7  N   -0.441143
     8  C    0.194668
     9  C   -0.002667
    10  C    0.014251
 Electronic spatial extent (au):  <R**2>=           3330.5645
 Charge=              0.0000 electrons
 Dipole moment (field-independent basis, Debye):
    X=              0.6019    Y=             -0.1000    Z=              0.9382  Tot=              1.1192
 Quadrupole moment (field-independent basis, Debye-Ang):
   XX=            -84.3457   YY=            -66.9337   ZZ=            -72.2646
   XY=             10.5383   XZ=             -0.6902   YZ=              0.0734
 Traceless Quadrupole moment (field-independent basis, Debye-Ang):
   XX=             -9.8310   YY=              7.5810   ZZ=              2.2500
   XY=             10.5383   XZ=             -0.6902   YZ=              0.0734
 Octapole moment (field-independent basis, Debye-Ang**2):
  XXX=            104.2704  YYY=            -13.2371  ZZZ=             -2.5870  XYY=             37.6122
  XXY=            -38.2116  XXZ=             11.4950  XZZ=             38.3595  YZZ=             -1.1823
  YYZ=             -0.4662  XYZ=              6.1863
 Hexadecapole moment (field-independent basis, Debye-Ang**3):
 XXXX=          -3496.4807 YYYY=           -409.9564 ZZZZ=           -168.8146 XXXY=            144.2699
 XXXZ=            -66.9281 YYYX=            -15.4643 YYYZ=             -4.3747 ZZZX=             -7.5176
 ZZZY=              5.2020 XXYY=           -627.9775 XXZZ=           -604.0368 YYZZ=            -98.8452
 XXYZ=              4.5404 YYXZ=            -10.7410 ZZXY=            -12.4668
 N-N= 6.912514151558D+02 E-N=-8.363087673180D+03  KE= 2.917992292674D+03
 Calling FoFJK, ICntrl=      2127 FMM=F ISym2X=0 I1Cent= 0 IOpClX= 0 NMat=1 NMatS=1 NMatT=0.
 ***** Axes restored to original set *****
 -------------------------------------------------------------------
 Center     Atomic                   Forces (Hartrees/Bohr)
 Number     Number              X              Y              Z
 -------------------------------------------------------------------
      1       35           0.001705964   -0.002559387    0.006133502
      2        6          -0.009276254   -0.007178136    0.004063541
      3        6           0.004395326    0.009166617   -0.003643060
      4        6          -0.007560391   -0.002901671   -0.000198952
      5        6           0.008893083    0.004099692   -0.001015009
      6        6          -0.025856492   -0.010646208   -0.010174772
      7        7           0.004042058    0.001171609   -0.010096575
      8        6           0.019052501    0.007145090    0.009747434
      9        6           0.005431853    0.001558114    0.004025908
     10        6          -0.006183034   -0.002897121    0.006978828
     11        1           0.000097170    0.001282585   -0.004942471
     12        1          -0.000802501    0.004662322   -0.003380290
     13        1          -0.000721953   -0.000285392   -0.002565936
     14        1           0.002264854   -0.001410486    0.004555902
     15        1           0.002958541   -0.001379669   -0.003556904
     16        1           0.002446793   -0.000671981    0.004112378
     17        1           0.003170438    0.001744037    0.003943449
     18        1          -0.003834146   -0.001296406    0.001596388
     19        1          -0.002753292   -0.000897516   -0.002306033
     20        1           0.002529484    0.001293906   -0.003277327
 -------------------------------------------------------------------
 Cartesian Forces:  Max     0.025856492 RMS     0.006271148

 GradGradGradGradGradGradGradGradGradGradGradGradGradGradGradGradGradGrad
 Berny optimization.
 FormGI is forming the generalized inverse of G from B-inverse, IUseBI=4.
 Internal  Forces:  Max     0.018292933 RMS     0.003615071
 Search for a local minimum.
 Step number   1 out of a maximum of  108
 All quantities printed in internal units (Hartrees-Bohrs-Radians)
 Mixed Optimization -- RFO/linear search
 Second derivative matrix not updated -- first step.
 ITU=  0
     Eigenvalues ---    0.00230   0.00265   0.00503   0.01438   0.02105
     Eigenvalues ---    0.02116   0.02135   0.02139   0.02146   0.02176
     Eigenvalues ---    0.02226   0.03309   0.03952   0.04710   0.05224
     Eigenvalues ---    0.05469   0.05647   0.08491   0.09383   0.12332
     Eigenvalues ---    0.12825   0.14410   0.16000   0.16000   0.16000
     Eigenvalues ---    0.16000   0.16000   0.16000   0.21870   0.21906
     Eigenvalues ---    0.22000   0.22237   0.23190   0.23457   0.25000
     Eigenvalues ---    0.28427   0.28711   0.30376   0.34626   0.34634
     Eigenvalues ---    0.34638   0.34658   0.34701   0.34703   0.35898
     Eigenvalues ---    0.35899   0.35964   0.35978   0.42099   0.43654
     Eigenvalues ---    0.45883   0.46091   0.51723   0.52835
 RFO step:  Lambda=-4.49714855D-03 EMin= 2.30000000D-03
 Linear search not attempted -- first point.
 Iteration  1 RMS(Cart)=  0.02288417 RMS(Int)=  0.00032236
 Iteration  2 RMS(Cart)=  0.00037555 RMS(Int)=  0.00014220
 Iteration  3 RMS(Cart)=  0.00000007 RMS(Int)=  0.00014220
 Variable       Old X    -DE/DX   Delta X   Delta X   Delta X     New X
                                 (Linear)    (Quad)   (Total)
    R1        3.76403  -0.00640   0.00000  -0.04304  -0.04304   3.72099
    R2        2.90609  -0.00921   0.00000  -0.03158  -0.03158   2.87451
    R3        2.06160  -0.00065   0.00000  -0.00185  -0.00185   2.05975
    R4        2.06163  -0.00006   0.00000  -0.00017  -0.00017   2.06146
    R5        2.91215  -0.00430   0.00000  -0.01488  -0.01488   2.89727
    R6        2.06274   0.00236   0.00000   0.00674   0.00674   2.06948
    R7        2.06233   0.00439   0.00000   0.01250   0.01250   2.07483
    R8        2.87221  -0.00469   0.00000  -0.01523  -0.01523   2.85698
    R9        2.06287   0.00198   0.00000   0.00564   0.00564   2.06851
   R10        2.06266   0.00345   0.00000   0.00983   0.00983   2.07250
   R11        2.64435  -0.00128   0.00000  -0.00292  -0.00287   2.64148
   R12        2.64410  -0.00415   0.00000  -0.00745  -0.00742   2.63668
   R13        2.56534  -0.01752   0.00000  -0.03387  -0.03385   2.53149
   R14        2.04138   0.00530   0.00000   0.01455   0.01455   2.05594
   R15        2.56464  -0.01829   0.00000  -0.03518  -0.03521   2.52943
   R16        2.63878  -0.00168   0.00000  -0.00358  -0.00362   2.63516
   R17        2.04241   0.00428   0.00000   0.01179   0.01179   2.05420
   R18        2.63923  -0.00488   0.00000  -0.00888  -0.00890   2.63033
   R19        2.04117   0.00362   0.00000   0.00994   0.00994   2.05111
   R20        2.04240   0.00406   0.00000   0.01116   0.01116   2.05357
    A1        1.92689   0.00445   0.00000   0.00952   0.00958   1.93647
    A2        1.87339  -0.00412   0.00000  -0.03234  -0.03229   1.84110
    A3        1.88654  -0.00475   0.00000  -0.04457  -0.04451   1.84203
    A4        1.94058   0.00166   0.00000   0.02000   0.01955   1.96013
    A5        1.95430   0.00082   0.00000   0.01021   0.00976   1.96406
    A6        1.87916   0.00148   0.00000   0.03414   0.03332   1.91248
    A7        1.98593   0.00049   0.00000  -0.00141  -0.00144   1.98450
    A8        1.90570   0.00014   0.00000   0.00114   0.00116   1.90686
    A9        1.90033  -0.00184   0.00000  -0.01925  -0.01924   1.88109
   A10        1.91726  -0.00061   0.00000  -0.00139  -0.00140   1.91585
   A11        1.90169   0.00085   0.00000   0.00526   0.00517   1.90686
   A12        1.84778   0.00101   0.00000   0.01687   0.01686   1.86464
   A13        1.95929  -0.00008   0.00000  -0.00457  -0.00455   1.95474
   A14        1.93222  -0.00318   0.00000  -0.02902  -0.02901   1.90321
   A15        1.92823  -0.00156   0.00000  -0.01809  -0.01812   1.91011
   A16        1.89535   0.00234   0.00000   0.02138   0.02121   1.91656
   A17        1.90823   0.00078   0.00000   0.00806   0.00788   1.91611
   A18        1.83618   0.00190   0.00000   0.02497   0.02450   1.86068
   A19        2.11306   0.00210   0.00000   0.00700   0.00687   2.11993
   A20        2.10739   0.00293   0.00000   0.01027   0.01013   2.11752
   A21        2.06272  -0.00503   0.00000  -0.01735  -0.01735   2.04538
   A22        2.14677   0.00767   0.00000   0.03039   0.03045   2.17722
   A23        2.11283  -0.00443   0.00000  -0.01881  -0.01885   2.09398
   A24        2.02358  -0.00324   0.00000  -0.01157  -0.01161   2.01197
   A25        2.05718  -0.00272   0.00000  -0.01970  -0.01970   2.03747
   A26        2.14399   0.00366   0.00000   0.01299   0.01293   2.15691
   A27        2.02878  -0.00260   0.00000  -0.01119  -0.01116   2.01762
   A28        2.11042  -0.00106   0.00000  -0.00180  -0.00177   2.10864
   A29        2.06908  -0.00067   0.00000   0.00029   0.00024   2.06932
   A30        2.10859  -0.00043   0.00000  -0.00478  -0.00476   2.10383
   A31        2.10552   0.00110   0.00000   0.00449   0.00451   2.11003
   A32        2.08664  -0.00290   0.00000  -0.00660  -0.00657   2.08006
   A33        2.10268  -0.00006   0.00000  -0.00587  -0.00588   2.09680
   A34        2.09387   0.00296   0.00000   0.01247   0.01245   2.10632
    D1       -1.13468   0.00057   0.00000   0.00855   0.00858  -1.12610
    D2        1.01407   0.00023   0.00000   0.00661   0.00662   1.02069
    D3        3.02385   0.00050   0.00000   0.01680   0.01677   3.04062
    D4        3.07116   0.00177   0.00000   0.02996   0.03020   3.10136
    D5       -1.06328   0.00142   0.00000   0.02802   0.02824  -1.03504
    D6        0.94650   0.00169   0.00000   0.03821   0.03839   0.98490
    D7        0.96821  -0.00185   0.00000  -0.03465  -0.03484   0.93337
    D8        3.11695  -0.00220   0.00000  -0.03658  -0.03680   3.08015
    D9       -1.15645  -0.00192   0.00000  -0.02640  -0.02665  -1.18310
   D10       -3.12251   0.00064   0.00000  -0.01050  -0.01048  -3.13299
   D11        1.03941  -0.00005   0.00000  -0.01412  -0.01409   1.02531
   D12       -0.98754   0.00047   0.00000  -0.01636  -0.01636  -1.00390
   D13        1.01826   0.00057   0.00000  -0.00993  -0.00991   1.00835
   D14       -1.10301  -0.00012   0.00000  -0.01355  -0.01352  -1.11654
   D15       -3.12995   0.00040   0.00000  -0.01579  -0.01580   3.13743
   D16       -0.99861  -0.00078   0.00000  -0.03235  -0.03236  -1.03097
   D17       -3.11988  -0.00147   0.00000  -0.03597  -0.03597   3.12733
   D18        1.13636  -0.00095   0.00000  -0.03820  -0.03825   1.09812
   D19        1.66746   0.00010   0.00000  -0.00795  -0.00803   1.65943
   D20       -1.47021   0.00059   0.00000   0.01736   0.01748  -1.45273
   D21       -2.47350  -0.00233   0.00000  -0.03275  -0.03304  -2.50654
   D22        0.67201  -0.00185   0.00000  -0.00744  -0.00753   0.66448
   D23       -0.47882   0.00159   0.00000   0.01254   0.01260  -0.46622
   D24        2.66670   0.00208   0.00000   0.03785   0.03811   2.70481
   D25       -3.13711   0.00042   0.00000   0.01999   0.01986  -3.11725
   D26        0.00292   0.00059   0.00000   0.02693   0.02681   0.02973
   D27        0.00066  -0.00004   0.00000  -0.00463  -0.00458  -0.00392
   D28        3.14069   0.00013   0.00000   0.00231   0.00237  -3.14013
   D29        3.13791  -0.00046   0.00000  -0.02181  -0.02179   3.11612
   D30       -0.00322  -0.00054   0.00000  -0.02514  -0.02509  -0.02830
   D31        0.00013  -0.00001   0.00000   0.00273   0.00262   0.00275
   D32       -3.14099  -0.00008   0.00000  -0.00060  -0.00068   3.14151
   D33       -0.00108   0.00006   0.00000   0.00347   0.00346   0.00238
   D34       -3.14118  -0.00011   0.00000  -0.00313  -0.00319   3.13881
   D35        0.00073  -0.00003   0.00000  -0.00045  -0.00044   0.00029
   D36       -3.14013   0.00006   0.00000   0.00208   0.00209  -3.13804
   D37        0.00002  -0.00001   0.00000  -0.00127  -0.00124  -0.00122
   D38       -3.14122   0.00012   0.00000   0.00344   0.00344  -3.13778
   D39        3.14085  -0.00011   0.00000  -0.00392  -0.00390   3.13695
   D40       -0.00039   0.00003   0.00000   0.00079   0.00078   0.00040
   D41       -0.00045   0.00003   0.00000   0.00005   0.00004  -0.00041
   D42        3.14068   0.00011   0.00000   0.00336   0.00335  -3.13916
   D43        3.14078  -0.00010   0.00000  -0.00466  -0.00466   3.13612
   D44       -0.00127  -0.00002   0.00000  -0.00134  -0.00135  -0.00262
         Item               Value     Threshold  Converged?
 Maximum Force            0.018293     0.000450     NO 
 RMS     Force            0.003615     0.000300     NO 
 Maximum Displacement     0.071523     0.001800     NO 
 RMS     Displacement     0.022906     0.001200     NO 
 Predicted change in Energy=-2.335700D-03
 GradGradGradGradGradGradGradGradGradGradGradGradGradGradGradGradGradGrad

                          Input orientation:                          
 ---------------------------------------------------------------------
 Center     Atomic      Atomic             Coordinates (Angstroms)
 Number     Number       Type             X           Y           Z
 ---------------------------------------------------------------------
      1         35           0        4.766687   -0.757943   -0.806722
      2          6           0        4.572493   -1.792519    0.857354
      3          6           0        3.135256   -2.253269    1.046781
      4          6           0        2.139626   -1.103316    1.238969
      5          6           0        0.726798   -1.604340    1.435383
      6          6           0        0.188946   -1.788598    2.712348
      7          7           0       -1.042354   -2.253259    2.962423
      8          6           0       -1.797201   -2.560635    1.900652
      9          6           0       -1.366469   -2.421270    0.581721
     10          6           0       -0.083173   -1.935262    0.348546
     11          1           0        5.265850   -2.628226    0.763084
     12          1           0        4.907112   -1.128165    1.655276
     13          1           0        2.835410   -2.863239    0.188109
     14          1           0        3.106470   -2.908129    1.927592
     15          1           0        2.181648   -0.444740    0.365655
     16          1           0        2.442502   -0.498718    2.102402
     17          1           0        0.780644   -1.543853    3.591915
     18          1           0       -2.793752   -2.932584    2.124667
     19          1           0       -2.021890   -2.682525   -0.243061
     20          1           0        0.286895   -1.810811   -0.665595
 ---------------------------------------------------------------------
                    Distance matrix (angstroms):
                    1          2          3          4          5
     1  Br   0.000000
     2  C    1.969063   0.000000
     3  C    2.886701   1.521125   0.000000
     4  C    3.347474   2.557239   1.533169   0.000000
     5  C    4.697247   3.893443   2.524439   1.511848   0.000000
     6  C    5.865306   4.759885   3.416252   2.538820   1.397811
     7  N    7.084305   6.014158   4.595880   3.797058   2.425457
     8  C    7.325585   6.500113   5.015247   4.249730   2.738895
     9  C    6.504616   5.978509   4.528801   3.802851   2.403722
    10  C    5.122682   4.685562   3.308618   2.534920   1.395270
    11  H    2.492271   1.089972   2.181859   3.510712   4.701418
    12  H    2.493635   1.090878   2.185314   2.798734   4.213089
    13  H    3.025192   2.147507   1.095121   2.164660   2.754409
    14  H    3.854360   2.130544   1.097951   2.160171   2.757712
    15  H    2.855694   2.788263   2.155013   1.094607   2.146061
    16  H    3.732565   2.785844   2.161642   1.096718   2.147313
    17  H    5.987838   4.681643   3.539093   2.752682   2.158052
    18  H    8.395376   7.560912   6.064359   5.335625   3.825391
    19  H    7.078595   6.744547   5.333302   4.691325   3.396313
    20  H    4.604018   4.548192   3.352784   2.749640   2.156445
                    6          7          8          9         10
     6  C    0.000000
     7  N    1.339606   0.000000
     8  C    2.280278   1.338518   0.000000
     9  C    2.712777   2.408531   1.394465   0.000000
    10  C    2.383929   2.802410   2.395415   1.391913   0.000000
    11  H    5.502687   6.691123   7.154392   6.638025   5.409630
    12  H    4.880028   6.194402   6.860029   6.494803   5.221293
    13  H    3.811878   4.806865   4.948278   4.243354   3.066759
    14  H    3.221978   4.325791   4.916042   4.696337   3.689672
    15  H    3.359134   4.517536   4.760721   4.067246   2.711340
    16  H    2.667272   3.995280   4.718822   4.529563   3.393922
    17  H    1.087955   2.054955   3.246460   3.800161   3.379175
    18  H    3.248162   2.056870   1.087034   2.163160   3.390648
    19  H    3.797544   3.379184   2.158899   1.085401   2.160330
    20  H    3.379436   3.889110   3.389884   2.159183   1.086702
                   11         12         13         14         15
    11  H    0.000000
    12  H    1.781821   0.000000
    13  H    2.508558   3.074900   0.000000
    14  H    2.469281   2.546515   1.761048   0.000000
    15  H    3.799719   3.091657   2.511586   3.059938   0.000000
    16  H    3.781518   2.582718   3.067549   2.505329   1.757057
    17  H    5.412507   4.577238   4.189122   3.168705   3.685053
    18  H    8.179470   7.923356   5.953363   5.903563   5.834218
    19  H    7.357067   7.350564   4.879747   5.573393   4.800828
    20  H    5.243976   5.215252   2.886407   3.984812   2.553373
                   16         17         18         19         20
    16  H    0.000000
    17  H    2.464290   0.000000
    18  H    5.774301   4.105813   0.000000
    19  H    5.495544   4.884446   2.502885   0.000000
    20  H    3.745669   4.294350   4.305151   2.503779   0.000000
 Stoichiometry    C8H10BrN
 Framework group  C1[X(C8H10BrN)]
 Deg. of freedom    54
 Full point group                 C1      NOp   1
 Largest Abelian subgroup         C1      NOp   1
 Largest concise Abelian subgroup C1      NOp   1
                         Standard orientation:                         
 ---------------------------------------------------------------------
 Center     Atomic      Atomic             Coordinates (Angstroms)
 Number     Number       Type             X           Y           Z
 ---------------------------------------------------------------------
      1         35           0        3.012656   -0.389126   -0.140862
      2          6           0        2.004408    1.139769    0.582413
      3          6           0        0.538549    0.782268    0.775475
      4          6           0       -0.197983    0.473125   -0.533173
      5          6           0       -1.652625    0.134875   -0.298038
      6          6           0       -2.653039    1.105862   -0.399187
      7          7           0       -3.955931    0.885517   -0.179038
      8          6           0       -4.306516   -0.359836    0.164207
      9          6           0       -3.396623   -1.407957    0.298639
     10          6           0       -2.048590   -1.153311    0.063299
     11          1           0        2.495423    1.394055    1.521711
     12          1           0        2.146308    1.949170   -0.135048
     13          1           0        0.461923   -0.073341    1.454703
     14          1           0        0.049825    1.629315    1.274630
     15          1           0        0.300689   -0.362130   -1.035010
     16          1           0       -0.121491    1.334717   -1.207413
     17          1           0       -2.395066    2.125021   -0.679205
     18          1           0       -5.368219   -0.518718    0.335047
     19          1           0       -3.736069   -2.400824    0.576281
     20          1           0       -1.310232   -1.945250    0.155946
 ---------------------------------------------------------------------
 Rotational constants (GHZ):           3.1671122           0.3152193           0.2970157
 Standard basis: 6-31G(d,p) (6D, 7F)
 There are   215 symmetry adapted cartesian basis functions of A   symmetry.
 There are   215 symmetry adapted basis functions of A   symmetry.
   215 basis functions,   405 primitive gaussians,   215 cartesian basis functions
    50 alpha electrons       50 beta electrons
       nuclear repulsion energy       695.7760558623 Hartrees.
 NAtoms=   20 NActive=   20 NUniq=   20 SFac= 1.00D+00 NAtFMM=   60 NAOKFM=F Big=F
 Integral buffers will be    131072 words long.
 Raffenetti 2 integral format.
 Two-electron integral symmetry is turned on.
 Nuclear repulsion after empirical dispersion term =      695.7383586061 Hartrees.
 One-electron integrals computed using PRISM.
 NBasis=   215 RedAO= T EigKep=  7.41D-04  NBF=   215
 NBsUse=   215 1.00D-06 EigRej= -1.00D+00 NBFU=   215
 Initial guess from the checkpoint file:  "pyrd10_conf-4.chk"
 B after Tr=     0.000000   -0.000000    0.000000
         Rot=    0.999997   -0.002316    0.000162   -0.000008 Ang=  -0.27 deg.
 ExpMin= 1.43D-01 ExpMax= 5.74D+05 ExpMxC= 5.74D+03 IAcc=3 IRadAn=         5 AccDes= 0.00D+00
 Harris functional with IExCor=  402 and IRadAn=       5 diagonalized for initial guess.
 HarFok:  IExCor=  402 AccDes= 0.00D+00 IRadAn=         5 IDoV= 1 UseB2=F ITyADJ=14
 ICtDFT=  3500011 ScaDFX=  1.000000  1.000000  1.000000  1.000000
 FoFCou: FMM=F IPFlag=           0 FMFlag=      100000 FMFlg1=           0
         NFxFlg=           0 DoJE=T BraDBF=F KetDBF=T FulRan=T
         wScrn=  0.000000 ICntrl=       500 IOpCl=  0 I1Cent=   200000004 NGrid=           0
         NMat0=    1 NMatS0=      1 NMatT0=    0 NMatD0=    1 NMtDS0=    0 NMtDT0=    0
 Petite list used in FoFCou.
 Requested convergence on RMS density matrix=1.00D-08 within 128 cycles.
 Requested convergence on MAX density matrix=1.00D-06.
 Requested convergence on             energy=1.00D-06.
 No special actions if energy rises.
 Integral accuracy reduced to 1.0D-05 until final iterations.
 Initial convergence to 1.0D-05 achieved.  Increase integral accuracy.
 SCF Done:  E(RB3LYP) =  -2937.38803805     A.U. after   11 cycles
            NFock= 11  Conv=0.94D-08     -V/T= 2.0066
 Calling FoFJK, ICntrl=      2127 FMM=F ISym2X=0 I1Cent= 0 IOpClX= 0 NMat=1 NMatS=1 NMatT=0.
 ***** Axes restored to original set *****
 -------------------------------------------------------------------
 Center     Atomic                   Forces (Hartrees/Bohr)
 Number     Number              X              Y              Z
 -------------------------------------------------------------------
      1       35           0.001496894    0.002335048   -0.003469910
      2        6          -0.001431048   -0.002656513    0.003040805
      3        6           0.001967343   -0.000529970    0.000131390
      4        6          -0.003887355    0.000829398    0.001127352
      5        6           0.004664660    0.002011394   -0.000153623
      6        6          -0.002546926   -0.000941691    0.002556682
      7        7           0.002333344    0.000701789   -0.002602227
      8        6          -0.001158749   -0.000369048    0.001737259
      9        6          -0.000223854   -0.000119696   -0.001262085
     10        6          -0.001908753   -0.000925415   -0.000521514
     11        1          -0.000384706    0.000395165   -0.000207390
     12        1          -0.000200246    0.000079151   -0.000334326
     13        1          -0.000167920   -0.000271204    0.000166499
     14        1           0.000212956   -0.000284653    0.000253754
     15        1           0.000417482   -0.000359211   -0.000137615
     16        1           0.000152398   -0.000462003    0.000274126
     17        1           0.001724183    0.000863903    0.000158278
     18        1          -0.000902539   -0.000446960   -0.001076962
     19        1          -0.000286933   -0.000101874    0.000436476
     20        1           0.000129770    0.000252389   -0.000116970
 -------------------------------------------------------------------
 Cartesian Forces:  Max     0.004664660 RMS     0.001474519

 GradGradGradGradGradGradGradGradGradGradGradGradGradGradGradGradGradGrad
 Berny optimization.
 Using GEDIIS/GDIIS optimizer.
 FormGI is forming the generalized inverse of G from B-inverse, IUseBI=4.
 Internal  Forces:  Max     0.004307577 RMS     0.000845451
 Search for a local minimum.
 Step number   2 out of a maximum of  108
 All quantities printed in internal units (Hartrees-Bohrs-Radians)
 Mixed Optimization -- En-DIIS/RFO-DIIS
 Update second derivatives using D2CorX and points    1    2
 DE= -2.23D-03 DEPred=-2.34D-03 R= 9.53D-01
 TightC=F SS=  1.41D+00  RLast= 1.86D-01 DXNew= 5.0454D-01 5.5735D-01
 Trust test= 9.53D-01 RLast= 1.86D-01 DXMaxT set to 5.05D-01
 ITU=  1  0
 Use linear search instead of GDIIS.
     Eigenvalues ---    0.00230   0.00266   0.00503   0.01429   0.02097
     Eigenvalues ---    0.02116   0.02135   0.02139   0.02146   0.02176
     Eigenvalues ---    0.02225   0.03347   0.04049   0.04756   0.05340
     Eigenvalues ---    0.05461   0.05481   0.08431   0.09008   0.12267
     Eigenvalues ---    0.12730   0.15279   0.15714   0.16000   0.16000
     Eigenvalues ---    0.16000   0.16000   0.16438   0.20991   0.21928
     Eigenvalues ---    0.21956   0.22012   0.23310   0.24517   0.25053
     Eigenvalues ---    0.28316   0.29163   0.30134   0.34511   0.34629
     Eigenvalues ---    0.34635   0.34653   0.34701   0.34747   0.35554
     Eigenvalues ---    0.35906   0.35931   0.36044   0.41993   0.43492
     Eigenvalues ---    0.45875   0.46149   0.52013   0.53689
 RFO step:  Lambda=-3.66311198D-04 EMin= 2.30119502D-03
 Quartic linear search produced a step of -0.01981.
 Iteration  1 RMS(Cart)=  0.02106012 RMS(Int)=  0.00017322
 Iteration  2 RMS(Cart)=  0.00024749 RMS(Int)=  0.00000507
 Iteration  3 RMS(Cart)=  0.00000003 RMS(Int)=  0.00000507
 Variable       Old X    -DE/DX   Delta X   Delta X   Delta X     New X
                                 (Linear)    (Quad)   (Total)
    R1        3.72099   0.00431   0.00085   0.02510   0.02595   3.74694
    R2        2.87451  -0.00032   0.00063  -0.00410  -0.00348   2.87104
    R3        2.05975  -0.00053   0.00004  -0.00167  -0.00163   2.05812
    R4        2.06146  -0.00026   0.00000  -0.00074  -0.00074   2.06072
    R5        2.89727   0.00172   0.00029   0.00451   0.00481   2.90208
    R6        2.06948   0.00007  -0.00013   0.00083   0.00069   2.07017
    R7        2.07483   0.00037  -0.00025   0.00222   0.00198   2.07680
    R8        2.85698  -0.00212   0.00030  -0.00828  -0.00797   2.84900
    R9        2.06851  -0.00009  -0.00011   0.00028   0.00017   2.06868
   R10        2.07250   0.00000  -0.00019   0.00094   0.00075   2.07324
   R11        2.64148   0.00074   0.00006   0.00134   0.00140   2.64288
   R12        2.63668   0.00264   0.00015   0.00503   0.00517   2.64185
   R13        2.53149  -0.00074   0.00067  -0.00460  -0.00393   2.52756
   R14        2.05594   0.00126  -0.00029   0.00481   0.00452   2.06046
   R15        2.52943   0.00087   0.00070  -0.00182  -0.00112   2.52832
   R16        2.63516   0.00020   0.00007   0.00004   0.00011   2.63527
   R17        2.05420   0.00076  -0.00023   0.00319   0.00295   2.05715
   R18        2.63033   0.00057   0.00018   0.00042   0.00059   2.63093
   R19        2.05111  -0.00013  -0.00020   0.00058   0.00038   2.05149
   R20        2.05357   0.00018  -0.00022   0.00155   0.00133   2.05490
    A1        1.93647   0.00285  -0.00019   0.01380   0.01361   1.95008
    A2        1.84110  -0.00115   0.00064  -0.00786  -0.00722   1.83387
    A3        1.84203  -0.00109   0.00088  -0.00800  -0.00712   1.83491
    A4        1.96013  -0.00047  -0.00039  -0.00074  -0.00112   1.95901
    A5        1.96406  -0.00046  -0.00019  -0.00125  -0.00143   1.96263
    A6        1.91248   0.00027  -0.00066   0.00329   0.00265   1.91513
    A7        1.98450   0.00062   0.00003   0.00330   0.00333   1.98782
    A8        1.90686  -0.00009  -0.00002   0.00125   0.00122   1.90808
    A9        1.88109  -0.00032   0.00038  -0.00458  -0.00420   1.87689
   A10        1.91585  -0.00016   0.00003   0.00057   0.00059   1.91645
   A11        1.90686  -0.00009  -0.00010  -0.00015  -0.00025   1.90661
   A12        1.86464   0.00000  -0.00033  -0.00072  -0.00105   1.86359
   A13        1.95474   0.00020   0.00009  -0.00022  -0.00013   1.95461
   A14        1.90321  -0.00045   0.00057  -0.00675  -0.00618   1.89704
   A15        1.91011  -0.00030   0.00036  -0.00485  -0.00449   1.90561
   A16        1.91656   0.00022  -0.00042   0.00454   0.00412   1.92068
   A17        1.91611   0.00004  -0.00016   0.00154   0.00138   1.91748
   A18        1.86068   0.00029  -0.00049   0.00597   0.00547   1.86615
   A19        2.11993  -0.00043  -0.00014  -0.00123  -0.00138   2.11855
   A20        2.11752   0.00114  -0.00020   0.00519   0.00498   2.12250
   A21        2.04538  -0.00071   0.00034  -0.00416  -0.00383   2.04155
   A22        2.17722  -0.00092  -0.00060  -0.00110  -0.00170   2.17552
   A23        2.09398  -0.00104   0.00037  -0.00895  -0.00857   2.08541
   A24        2.01197   0.00196   0.00023   0.01005   0.01028   2.02225
   A25        2.03747   0.00218   0.00039   0.00650   0.00689   2.04436
   A26        2.15691  -0.00098  -0.00026  -0.00320  -0.00345   2.15346
   A27        2.01762   0.00179   0.00022   0.00906   0.00928   2.02690
   A28        2.10864  -0.00080   0.00004  -0.00586  -0.00583   2.10282
   A29        2.06932  -0.00034  -0.00000  -0.00126  -0.00127   2.06805
   A30        2.10383  -0.00036   0.00009  -0.00304  -0.00295   2.10088
   A31        2.11003   0.00070  -0.00009   0.00431   0.00422   2.11425
   A32        2.08006   0.00077   0.00013   0.00324   0.00337   2.08343
   A33        2.09680  -0.00055   0.00012  -0.00347  -0.00336   2.09344
   A34        2.10632  -0.00022  -0.00025   0.00023  -0.00001   2.10631
    D1       -1.12610  -0.00010  -0.00017  -0.01341  -0.01358  -1.13968
    D2        1.02069   0.00006  -0.00013  -0.00941  -0.00954   1.01115
    D3        3.04062  -0.00016  -0.00033  -0.01208  -0.01241   3.02820
    D4        3.10136  -0.00024  -0.00060  -0.01220  -0.01281   3.08855
    D5       -1.03504  -0.00008  -0.00056  -0.00821  -0.00877  -1.04381
    D6        0.98490  -0.00030  -0.00076  -0.01088  -0.01164   0.97325
    D7        0.93337   0.00013   0.00069  -0.01504  -0.01435   0.91901
    D8        3.08015   0.00029   0.00073  -0.01105  -0.01031   3.06984
    D9       -1.18310   0.00007   0.00053  -0.01372  -0.01319  -1.19629
   D10       -3.13299   0.00004   0.00021  -0.03004  -0.02984   3.12036
   D11        1.02531  -0.00005   0.00028  -0.03099  -0.03070   0.99461
   D12       -1.00390   0.00003   0.00032  -0.03162  -0.03130  -1.03520
   D13        1.00835  -0.00016   0.00020  -0.03444  -0.03425   0.97410
   D14       -1.11654  -0.00026   0.00027  -0.03539  -0.03512  -1.15165
   D15        3.13743  -0.00018   0.00031  -0.03602  -0.03571   3.10172
   D16       -1.03097  -0.00002   0.00064  -0.03382  -0.03318  -1.06415
   D17        3.12733  -0.00011   0.00071  -0.03476  -0.03405   3.09329
   D18        1.09812  -0.00004   0.00076  -0.03540  -0.03464   1.06348
   D19        1.65943  -0.00001   0.00016  -0.00142  -0.00127   1.65816
   D20       -1.45273   0.00009  -0.00035   0.00725   0.00691  -1.44582
   D21       -2.50654  -0.00030   0.00065  -0.00699  -0.00634  -2.51289
   D22        0.66448  -0.00020   0.00015   0.00169   0.00184   0.66632
   D23       -0.46622   0.00020  -0.00025   0.00382   0.00357  -0.46265
   D24        2.70481   0.00030  -0.00075   0.01250   0.01175   2.71656
   D25       -3.11725   0.00019  -0.00039   0.01215   0.01173  -3.10551
   D26        0.02973   0.00017  -0.00053   0.01230   0.01175   0.04149
   D27       -0.00392   0.00012   0.00009   0.00396   0.00406   0.00014
   D28       -3.14013   0.00011  -0.00005   0.00412   0.00408  -3.13605
   D29        3.11612  -0.00018   0.00043  -0.01099  -0.01057   3.10555
   D30       -0.02830  -0.00019   0.00050  -0.01204  -0.01155  -0.03985
   D31        0.00275  -0.00009  -0.00005  -0.00271  -0.00276  -0.00001
   D32        3.14151  -0.00010   0.00001  -0.00375  -0.00374   3.13777
   D33        0.00238  -0.00006  -0.00007  -0.00184  -0.00192   0.00046
   D34        3.13881  -0.00005   0.00006  -0.00204  -0.00199   3.13682
   D35        0.00029  -0.00004   0.00001  -0.00151  -0.00151  -0.00122
   D36       -3.13804  -0.00004  -0.00004  -0.00152  -0.00157  -3.13961
   D37       -0.00122   0.00007   0.00002   0.00254   0.00257   0.00135
   D38       -3.13778   0.00003  -0.00007   0.00165   0.00158  -3.13620
   D39        3.13695   0.00007   0.00008   0.00258   0.00266   3.13961
   D40        0.00040   0.00004  -0.00002   0.00168   0.00167   0.00206
   D41       -0.00041   0.00000  -0.00000  -0.00026  -0.00027  -0.00068
   D42       -3.13916   0.00001  -0.00007   0.00080   0.00073  -3.13843
   D43        3.13612   0.00003   0.00009   0.00061   0.00071   3.13683
   D44       -0.00262   0.00004   0.00003   0.00167   0.00170  -0.00092
         Item               Value     Threshold  Converged?
 Maximum Force            0.004308     0.000450     NO 
 RMS     Force            0.000845     0.000300     NO 
 Maximum Displacement     0.091634     0.001800     NO 
 RMS     Displacement     0.021090     0.001200     NO 
 Predicted change in Energy=-1.859894D-04
 GradGradGradGradGradGradGradGradGradGradGradGradGradGradGradGradGradGrad

                          Input orientation:                          
 ---------------------------------------------------------------------
 Center     Atomic      Atomic             Coordinates (Angstroms)
 Number     Number       Type             X           Y           Z
 ---------------------------------------------------------------------
      1         35           0        4.767500   -0.791667   -0.855213
      2          6           0        4.566642   -1.795859    0.842648
      3          6           0        3.133463   -2.250185    1.061318
      4          6           0        2.138523   -1.097018    1.258086
      5          6           0        0.727161   -1.594252    1.441823
      6          6           0        0.183522   -1.788802    2.715618
      7          7           0       -1.043963   -2.263529    2.954147
      8          6           0       -1.796306   -2.571328    1.891467
      9          6           0       -1.363084   -2.419425    0.574676
     10          6           0       -0.081640   -1.923656    0.350146
     11          1           0        5.256728   -2.634289    0.759154
     12          1           0        4.910048   -1.112439    1.619932
     13          1           0        2.817732   -2.872830    0.217090
     14          1           0        3.122380   -2.894010    1.951913
     15          1           0        2.192753   -0.434589    0.388254
     16          1           0        2.441470   -0.504352    2.130226
     17          1           0        0.776879   -1.540433    3.596016
     18          1           0       -2.792819   -2.954381    2.104244
     19          1           0       -2.016891   -2.680209   -0.251800
     20          1           0        0.291401   -1.788147   -0.662243
 ---------------------------------------------------------------------
                    Distance matrix (angstroms):
                    1          2          3          4          5
     1  Br   0.000000
     2  C    1.982795   0.000000
     3  C    2.910402   1.519286   0.000000
     4  C    3.386856   2.560611   1.535714   0.000000
     5  C    4.716445   3.891179   2.522959   1.507628   0.000000
     6  C    5.895588   4.766530   3.413463   2.534757   1.398552
     7  N    7.102866   6.012989   4.586270   3.790196   2.423208
     8  C    7.334507   6.495266   5.009482   4.249428   2.743127
     9  C    6.502172   5.968442   4.525969   3.804873   2.408730
    10  C    5.123324   4.676048   3.308969   2.537087   1.398007
    11  H    2.498155   1.089108   2.178782   3.512170   4.697307
    12  H    2.499911   1.090486   2.182377   2.795089   4.214311
    13  H    3.046747   2.147062   1.095488   2.167604   2.739566
    14  H    3.873786   2.126569   1.098996   2.162995   2.772479
    15  H    2.881499   2.773964   2.152751   1.094697   2.145410
    16  H    3.795499   2.800393   2.160868   1.097113   2.144909
    17  H    6.024877   4.691330   3.532977   2.741643   2.155438
    18  H    8.402032   7.556155   6.058416   5.337032   3.831320
    19  H    7.068144   6.732221   5.332480   4.696138   3.402570
    20  H    4.589735   4.532377   3.355810   2.752668   2.157447
                    6          7          8          9         10
     6  C    0.000000
     7  N    1.337528   0.000000
     8  C    2.282826   1.337927   0.000000
     9  C    2.715384   2.405832   1.394524   0.000000
    10  C    2.384104   2.796855   2.394834   1.392228   0.000000
    11  H    5.502728   6.682377   7.143626   6.625867   5.400969
    12  H    4.898780   6.209299   6.868572   6.492531   5.214152
    13  H    3.789040   4.772360   4.917702   4.220506   3.053686
    14  H    3.231349   4.331327   4.929630   4.716079   3.711198
    15  H    3.359691   4.517207   4.768427   4.076556   2.718757
    16  H    2.662860   3.990211   4.721031   4.534519   3.398410
    17  H    1.090348   2.061632   3.254153   3.805333   3.379287
    18  H    3.254376   2.063519   1.088596   2.160995   3.389652
    19  H    3.800262   3.376138   2.157338   1.085603   2.163309
    20  H    3.379584   3.884258   3.390182   2.160047   1.087408
                   11         12         13         14         15
    11  H    0.000000
    12  H    1.782457   0.000000
    13  H    2.509867   3.073228   0.000000
    14  H    2.458774   2.545577   1.761496   0.000000
    15  H    3.790012   3.059445   2.522879   3.059082   0.000000
    16  H    3.787103   2.593077   3.067792   2.491164   1.761020
    17  H    5.414181   4.601215   4.166234   3.168063   3.676592
    18  H    8.167431   7.934827   5.919991   5.917469   5.843792
    19  H    7.343682   7.344642   4.861125   5.595906   4.813895
    20  H    5.233622   5.195845   2.886540   4.008889   2.559454
                   16         17         18         19         20
    16  H    0.000000
    17  H    2.448033   0.000000
    18  H    5.779368   4.119147   0.000000
    19  H    5.503215   4.889777   2.495631   0.000000
    20  H    3.750841   4.292996   4.304180   2.508476   0.000000
 Stoichiometry    C8H10BrN
 Framework group  C1[X(C8H10BrN)]
 Deg. of freedom    54
 Full point group                 C1      NOp   1
 Largest Abelian subgroup         C1      NOp   1
 Largest concise Abelian subgroup C1      NOp   1
                         Standard orientation:                         
 ---------------------------------------------------------------------
 Center     Atomic      Atomic             Coordinates (Angstroms)
 Number     Number       Type             X           Y           Z
 ---------------------------------------------------------------------
      1         35           0        3.022924   -0.396443   -0.131405
      2          6           0        1.995934    1.147403    0.570955
      3          6           0        0.527220    0.807249    0.759118
      4          6           0       -0.214357    0.505959   -0.551495
      5          6           0       -1.658741    0.145708   -0.312919
      6          6           0       -2.671866    1.106470   -0.393292
      7          7           0       -3.966418    0.868154   -0.155967
      8          6           0       -4.304869   -0.381354    0.182012
      9          6           0       -3.383742   -1.422454    0.293066
     10          6           0       -2.041533   -1.151300    0.041573
     11          1           0        2.482442    1.407584    1.509982
     12          1           0        2.148705    1.945496   -0.156279
     13          1           0        0.437042   -0.045352    1.441052
     14          1           0        0.050150    1.663208    1.256642
     15          1           0        0.297551   -0.315127   -1.063480
     16          1           0       -0.152334    1.381124   -1.210203
     17          1           0       -2.419843    2.130163   -0.671493
     18          1           0       -5.362611   -0.557516    0.369602
     19          1           0       -3.713307   -2.420137    0.566101
     20          1           0       -1.293481   -1.937109    0.114907
 ---------------------------------------------------------------------
 Rotational constants (GHZ):           3.1358588           0.3143023           0.2957453
 Standard basis: 6-31G(d,p) (6D, 7F)
 There are   215 symmetry adapted cartesian basis functions of A   symmetry.
 There are   215 symmetry adapted basis functions of A   symmetry.
   215 basis functions,   405 primitive gaussians,   215 cartesian basis functions
    50 alpha electrons       50 beta electrons
       nuclear repulsion energy       694.2315530961 Hartrees.
 NAtoms=   20 NActive=   20 NUniq=   20 SFac= 1.00D+00 NAtFMM=   60 NAOKFM=F Big=F
 Integral buffers will be    131072 words long.
 Raffenetti 2 integral format.
 Two-electron integral symmetry is turned on.
 Nuclear repulsion after empirical dispersion term =      694.1939261042 Hartrees.
 One-electron integrals computed using PRISM.
 NBasis=   215 RedAO= T EigKep=  7.41D-04  NBF=   215
 NBsUse=   215 1.00D-06 EigRej= -1.00D+00 NBFU=   215
 Initial guess from the checkpoint file:  "pyrd10_conf-4.chk"
 B after Tr=    -0.000000    0.000000    0.000000
         Rot=    1.000000   -0.000072   -0.000046   -0.000995 Ang=  -0.11 deg.
 ExpMin= 1.43D-01 ExpMax= 5.74D+05 ExpMxC= 5.74D+03 IAcc=3 IRadAn=         5 AccDes= 0.00D+00
 Harris functional with IExCor=  402 and IRadAn=       5 diagonalized for initial guess.
 HarFok:  IExCor=  402 AccDes= 0.00D+00 IRadAn=         5 IDoV= 1 UseB2=F ITyADJ=14
 ICtDFT=  3500011 ScaDFX=  1.000000  1.000000  1.000000  1.000000
 FoFCou: FMM=F IPFlag=           0 FMFlag=      100000 FMFlg1=           0
         NFxFlg=           0 DoJE=T BraDBF=F KetDBF=T FulRan=T
         wScrn=  0.000000 ICntrl=       500 IOpCl=  0 I1Cent=   200000004 NGrid=           0
         NMat0=    1 NMatS0=      1 NMatT0=    0 NMatD0=    1 NMtDS0=    0 NMtDT0=    0
 Petite list used in FoFCou.
 Requested convergence on RMS density matrix=1.00D-08 within 128 cycles.
 Requested convergence on MAX density matrix=1.00D-06.
 Requested convergence on             energy=1.00D-06.
 No special actions if energy rises.
 Integral accuracy reduced to 1.0D-05 until final iterations.
 Initial convergence to 1.0D-05 achieved.  Increase integral accuracy.
 SCF Done:  E(RB3LYP) =  -2937.38822008     A.U. after   11 cycles
            NFock= 11  Conv=0.65D-08     -V/T= 2.0066
 Calling FoFJK, ICntrl=      2127 FMM=F ISym2X=0 I1Cent= 0 IOpClX= 0 NMat=1 NMatS=1 NMatT=0.
 ***** Axes restored to original set *****
 -------------------------------------------------------------------
 Center     Atomic                   Forces (Hartrees/Bohr)
 Number     Number              X              Y              Z
 -------------------------------------------------------------------
      1       35          -0.000289055    0.000119249    0.000026624
      2        6          -0.000305246   -0.000567847    0.001224123
      3        6           0.000754175   -0.000449681   -0.000601414
      4        6          -0.000807493    0.000609753    0.000189611
      5        6           0.000766590    0.000154968   -0.000706621
      6        6          -0.000206428   -0.000073789    0.001468942
      7        7           0.000362238    0.000181783   -0.000033618
      8        6          -0.000945976   -0.000356047    0.000621583
      9        6           0.000188034    0.000113745   -0.000843409
     10        6          -0.000186562   -0.000116583   -0.000398165
     11        1           0.000035707    0.000162701   -0.000268897
     12        1           0.000152606    0.000155379   -0.000294240
     13        1          -0.000147831   -0.000042403    0.000322936
     14        1           0.000101026    0.000000682   -0.000263350
     15        1           0.000218407    0.000054755   -0.000023677
     16        1          -0.000075219   -0.000146748   -0.000282508
     17        1          -0.000008505    0.000055105   -0.000317074
     18        1           0.000287796    0.000047482   -0.000230294
     19        1           0.000177344    0.000094527    0.000212754
     20        1          -0.000071609    0.000002969    0.000196693
 -------------------------------------------------------------------
 Cartesian Forces:  Max     0.001468942 RMS     0.000428815

 GradGradGradGradGradGradGradGradGradGradGradGradGradGradGradGradGradGrad
 Berny optimization.
 Using GEDIIS/GDIIS optimizer.
 FormGI is forming the generalized inverse of G from B-inverse, IUseBI=4.
 Internal  Forces:  Max     0.000903073 RMS     0.000240329
 Search for a local minimum.
 Step number   3 out of a maximum of  108
 All quantities printed in internal units (Hartrees-Bohrs-Radians)
 Mixed Optimization -- En-DIIS/RFO-DIIS
 Swapping is turned off.
 Update second derivatives using D2CorX and points    1    2    3
 DE= -1.82D-04 DEPred=-1.86D-04 R= 9.79D-01
 TightC=F SS=  1.41D+00  RLast= 1.18D-01 DXNew= 8.4853D-01 3.5305D-01
[...]
   XZ=    -1.4906   YZ=     2.9763   ZZ=    25.5674
   Eigenvalues:    23.5601    29.0865    32.8333
     16  H    Isotropic =    29.4785   Anisotropy =     7.5893
   XX=    29.7963   YX=    -0.0362   ZX=     1.3675
   XY=    -2.2312   YY=    29.6850   ZY=    -4.2972
   XZ=     0.5766   YZ=    -5.1721   ZZ=    28.9543
   Eigenvalues:    24.5702    29.3273    34.5380
     17  H    Isotropic =    22.3976   Anisotropy =    10.7207
   XX=    27.4110   YX=    -4.1670   ZX=     0.5609
   XY=    -4.4235   YY=    20.6806   ZY=    -0.1132
   XZ=     0.5584   YZ=    -0.6273   ZZ=    19.1012
   Eigenvalues:    18.5734    19.0746    29.5447
     18  H    Isotropic =    22.4517   Anisotropy =     7.0560
   XX=    22.1548   YX=    -3.0283   ZX=     0.4423
   XY=    -2.2560   YY=    25.5274   ZY=    -1.1418
   XZ=     0.4479   YZ=    -1.0184   ZZ=    19.6730
   Eigenvalues:    19.4796    20.7199    27.1557
     19  H    Isotropic =    23.9525   Anisotropy =     7.1188
   XX=    28.5752   YX=    -0.1718   ZX=    -0.7433
   XY=    -1.1642   YY=    21.6148   ZY=     0.1943
   XZ=    -0.5257   YZ=     0.1393   ZZ=    21.6675
   Eigenvalues:    21.4704    21.6888    28.6984
     20  H    Isotropic =    23.5586   Anisotropy =    10.6729
   XX=    25.6068   YX=     5.7033   ZX=    -1.3453
   XY=     4.9324   YY=    24.5341   ZY=    -1.0177
   XZ=    -1.3981   YZ=    -0.7757   ZZ=    20.5350
   Eigenvalues:    19.6278    20.3742    30.6739
 End of Minotr F.D. properties file   721 does not exist.
 End of Minotr F.D. properties file   722 does not exist.
 End of Minotr F.D. properties file   788 does not exist.

 **********************************************************************

            Population analysis using the SCF Density.

 **********************************************************************

 Orbital symmetries:
       Occupied  (A) (A) (A) (A) (A) (A) (A) (A) (A) (A) (A) (A)
                 (A) (A) (A) (A) (A) (A) (A) (A) (A) (A) (A) (A)
                 (A) (A) (A) (A) (A) (A) (A) (A) (A) (A) (A) (A)
                 (A) (A) (A) (A) (A) (A) (A) (A) (A) (A) (A) (A)
                 (A) (A)
       Virtual   (A) (A) (A) (A) (A) (A) (A) (A) (A) (A) (A) (A)
                 (A) (A) (A) (A) (A) (A) (A) (A) (A) (A) (A) (A)
                 (A) (A) (A) (A) (A) (A) (A) (A) (A) (A) (A) (A)
                 (A) (A) (A) (A) (A) (A) (A) (A) (A) (A) (A) (A)
                 (A) (A) (A) (A) (A) (A) (A) (A) (A) (A) (A) (A)
                 (A) (A) (A) (A) (A) (A) (A) (A) (A) (A) (A) (A)
                 (A) (A) (A) (A) (A) (A) (A) (A) (A) (A) (A) (A)
                 (A) (A) (A) (A) (A) (A) (A) (A) (A) (A) (A) (A)
                 (A) (A) (A) (A) (A) (A) (A) (A) (A) (A) (A) (A)
                 (A) (A) (A) (A) (A) (A) (A) (A) (A) (A) (A) (A)
                 (A) (A) (A) (A) (A) (A) (A) (A) (A) (A) (A) (A)
                 (A) (A) (A) (A) (A) (A) (A) (A) (A) (A) (A) (A)
                 (A) (A) (A) (A) (A) (A) (A) (A) (A) (A) (A) (A)
                 (A) (A) (A) (A) (A) (A) (A) (A) (A) (A) (A) (A)
                 (A) (A) (A) (A) (A) (A) (A) (A) (A) (A) (A) (A)
                 (A) (A) (A) (A) (A) (A) (A) (A) (A) (A) (A) (A)
                 (A) (A) (A) (A) (A) (A) (A) (A) (A) (A) (A) (A)
                 (A) (A) (A) (A) (A) (A) (A) (A) (A) (A) (A) (A)
                 (A) (A) (A) (A) (A) (A) (A) (A) (A) (A) (A) (A)
                 (A) (A) (A) (A) (A) (A) (A) (A) (A) (A) (A) (A)
                 (A) (A) (A) (A) (A) (A) (A) (A) (A) (A) (A) (A)
                 (A) (A) (A) (A) (A) (A) (A) (A) (A) (A) (A) (A)
                 (A) (A) (A) (A) (A) (A) (A) (A) (A) (A) (A) (A)
                 (A) (A) (A) (A) (A) (A) (A) (A) (A) (A) (A) (A)
                 (A) (A) (A) (A) (A) (A) (A) (A) (A) (A) (A) (A)
                 (A) (A) (A) (A) (A) (A) (A) (A) (A) (A) (A) (A)
                 (A) (A) (A) (A) (A) (A) (A) (A) (A) (A) (A) (A)
                 (A) (A) (A) (A) (A) (A) (A) (A) (A) (A) (A) (A)
                 (A)
 The electronic state is 1-A.
 Alpha  occ. eigenvalues -- -485.36481 -63.34984 -57.16924 -57.16691 -57.16687
 Alpha  occ. eigenvalues --  -14.75118 -10.60484 -10.57747 -10.57715 -10.56306
 Alpha  occ. eigenvalues --  -10.56192 -10.56077 -10.55443 -10.55369  -9.01618
 Alpha  occ. eigenvalues --   -6.84007  -6.83156  -6.83142  -2.87374  -2.87072
 Alpha  occ. eigenvalues --   -2.87059  -2.86264  -2.86264  -1.05354  -0.94308
 Alpha  occ. eigenvalues --   -0.91077  -0.87805  -0.83768  -0.77715  -0.71979
 Alpha  occ. eigenvalues --   -0.70530  -0.67670  -0.60195  -0.57261  -0.55080
 Alpha  occ. eigenvalues --   -0.53913  -0.52098  -0.50247  -0.47760  -0.47349
 Alpha  occ. eigenvalues --   -0.46022  -0.45368  -0.43123  -0.41611  -0.40486
 Alpha  occ. eigenvalues --   -0.34799  -0.34170  -0.33982  -0.32629  -0.31210
 Alpha virt. eigenvalues --   -0.00210   0.01192   0.02589   0.06360   0.07963
 Alpha virt. eigenvalues --    0.08848   0.10235   0.10386   0.12102   0.13053
 Alpha virt. eigenvalues --    0.13383   0.14103   0.14764   0.15755   0.16532
 Alpha virt. eigenvalues --    0.18810   0.20362   0.21051   0.22127   0.22797
 Alpha virt. eigenvalues --    0.23342   0.23490   0.24154   0.25214   0.26172
 Alpha virt. eigenvalues --    0.27801   0.28314   0.28627   0.29328   0.30561
 Alpha virt. eigenvalues --    0.30800   0.31607   0.32992   0.34396   0.34590
 Alpha virt. eigenvalues --    0.35422   0.35661   0.36880   0.37576   0.38834
 Alpha virt. eigenvalues --    0.39587   0.40041   0.40429   0.41469   0.42910
 Alpha virt. eigenvalues --    0.43831   0.44470   0.44665   0.45830   0.46430
 Alpha virt. eigenvalues --    0.46536   0.47397   0.47554   0.49066   0.49630
 Alpha virt. eigenvalues --    0.50175   0.50912   0.52230   0.52863   0.55108
 Alpha virt. eigenvalues --    0.55903   0.56758   0.58688   0.59493   0.61043
 Alpha virt. eigenvalues --    0.61814   0.62631   0.64483   0.66392   0.67617
 Alpha virt. eigenvalues --    0.68437   0.69336   0.69882   0.70817   0.72626
 Alpha virt. eigenvalues --    0.74073   0.75399   0.77934   0.78593   0.81432
 Alpha virt. eigenvalues --    0.81727   0.84164   0.84678   0.85629   0.87801
 Alpha virt. eigenvalues --    0.88296   0.90063   0.91924   0.93815   0.98014
 Alpha virt. eigenvalues --    0.99227   1.01597   1.02171   1.02871   1.05751
 Alpha virt. eigenvalues --    1.07674   1.08466   1.09082   1.11869   1.13191
 Alpha virt. eigenvalues --    1.15224   1.16294   1.18458   1.20760   1.22895
 Alpha virt. eigenvalues --    1.24539   1.25917   1.28166   1.28606   1.30086
 Alpha virt. eigenvalues --    1.32020   1.32686   1.34747   1.37735   1.39474
 Alpha virt. eigenvalues --    1.40071   1.40314   1.42025   1.42972   1.43011
 Alpha virt. eigenvalues --    1.43966   1.46131   1.47203   1.48452   1.51179
 Alpha virt. eigenvalues --    1.51939   1.54119   1.55766   1.57430   1.57800
 Alpha virt. eigenvalues --    1.58350   1.59564   1.60196   1.61096   1.61730
 Alpha virt. eigenvalues --    1.62597   1.63419   1.63860   1.64396   1.66256
 Alpha virt. eigenvalues --    1.66833   1.66997   1.68193   1.69281   1.69867
 Alpha virt. eigenvalues --    1.70514   1.73259   1.74261   1.74858   1.77146
 Alpha virt. eigenvalues --    1.77696   1.78884   1.80248   1.80822   1.83621
 Alpha virt. eigenvalues --    1.85875   1.87508   1.91992   1.92660   1.94095
 Alpha virt. eigenvalues --    1.95732   1.96917   1.97699   1.98205   2.02461
 Alpha virt. eigenvalues --    2.03212   2.05791   2.08666   2.12184   2.12801
 Alpha virt. eigenvalues --    2.15148   2.17587   2.18028   2.21913   2.24915
 Alpha virt. eigenvalues --    2.27196   2.27737   2.29540   2.31152   2.32201
 Alpha virt. eigenvalues --    2.34105   2.36057   2.39172   2.40974   2.43695
 Alpha virt. eigenvalues --    2.44647   2.47134   2.47571   2.49393   2.52883
 Alpha virt. eigenvalues --    2.53741   2.54519   2.57670   2.59229   2.59941
 Alpha virt. eigenvalues --    2.60389   2.62514   2.63328   2.64054   2.65152
 Alpha virt. eigenvalues --    2.65636   2.67536   2.69338   2.70925   2.71704
 Alpha virt. eigenvalues --    2.72885   2.74563   2.75918   2.76469   2.78897
 Alpha virt. eigenvalues --    2.81816   2.82346   2.83002   2.85084   2.86405
 Alpha virt. eigenvalues --    2.88318   2.90807   2.91957   2.95221   2.95972
 Alpha virt. eigenvalues --    2.98497   3.00105   3.02605   3.04397   3.06674
 Alpha virt. eigenvalues --    3.08704   3.09692   3.09769   3.11474   3.13192
 Alpha virt. eigenvalues --    3.13716   3.16500   3.17184   3.17379   3.19195
 Alpha virt. eigenvalues --    3.20286   3.22409   3.22714   3.24342   3.24606
 Alpha virt. eigenvalues --    3.27456   3.27887   3.28430   3.29800   3.31930
 Alpha virt. eigenvalues --    3.32801   3.34062   3.36627   3.38645   3.40068
 Alpha virt. eigenvalues --    3.40895   3.41776   3.42343   3.44102   3.44556
 Alpha virt. eigenvalues --    3.46371   3.47171   3.49268   3.51211   3.51540
 Alpha virt. eigenvalues --    3.53408   3.56301   3.60792   3.61021   3.64181
 Alpha virt. eigenvalues --    3.66862   3.71193   3.74656   3.76832   3.78829
 Alpha virt. eigenvalues --    3.80928   3.82875   3.85304   3.86951   3.88984
 Alpha virt. eigenvalues --    3.90300   3.95703   3.97405   4.01293   4.03056
 Alpha virt. eigenvalues --    4.04800   4.05775   4.09849   4.10187   4.11351
 Alpha virt. eigenvalues --    4.11846   4.13860   4.14922   4.16852   4.22739
 Alpha virt. eigenvalues --    4.24792   4.27799   4.28347   4.29367   4.34564
 Alpha virt. eigenvalues --    4.35595   4.37429   4.40110   4.45040   4.47784
 Alpha virt. eigenvalues --    4.49430   4.51607   4.53261   4.55350   4.57074
 Alpha virt. eigenvalues --    4.59252   4.63033   4.72894   4.74769   4.78210
 Alpha virt. eigenvalues --    4.79343   4.83583   4.89584   4.92170   4.92769
 Alpha virt. eigenvalues --    5.02562   5.06115   5.16274   5.17290   5.19959
 Alpha virt. eigenvalues --    5.26685   5.34809   5.41359   5.52782   5.57877
 Alpha virt. eigenvalues --    5.72560   5.95114   7.69009  22.32833  22.43600
 Alpha virt. eigenvalues --   22.52238  22.59979  22.73376  22.85491  22.88767
 Alpha virt. eigenvalues --   23.20752  32.51393
          Condensed to atoms (all electrons):
               1          2          3          4          5          6
     1  Br  35.029812   0.247831  -0.038620  -0.007162   0.000339  -0.000395
     2  C    0.247831   4.941276   0.261164  -0.032492   0.009597   0.000621
     3  C   -0.038620   0.261164   5.301331   0.155512  -0.019898  -0.013057
     4  C   -0.007162  -0.032492   0.155512   5.442685   0.207932  -0.030578
     5  C    0.000339   0.009597  -0.019898   0.207932   5.102858   0.459740
     6  C   -0.000395   0.000621  -0.013057  -0.030578   0.459740   4.893922
     7  N    0.000001   0.000005   0.000327   0.008266  -0.045265   0.513802
     8  C    0.000009  -0.000014  -0.000230  -0.000698  -0.041722  -0.115328
     9  C   -0.000088   0.000021   0.001860   0.008377  -0.046377  -0.015628
    10  C    0.001267  -0.000035  -0.012676  -0.085657   0.452078  -0.059662
    11  H   -0.041160   0.437506  -0.053202   0.010265  -0.000612  -0.000090
    12  H   -0.041537   0.421264  -0.034820  -0.014533   0.000511   0.000252
    13  H   -0.003394  -0.034826   0.432479  -0.057897   0.004141   0.003923
    14  H    0.007416  -0.039036   0.405565  -0.038836   0.003126  -0.003856
    15  H    0.006674  -0.003935  -0.057620   0.442754  -0.042030   0.001307
    16  H    0.000046   0.001117  -0.048684   0.421655  -0.041721  -0.000140
    17  H    0.000016   0.000021  -0.001228   0.004733  -0.090705   0.443049
    18  H    0.000000  -0.000000   0.000012   0.000058  -0.000726   0.006079
    19  H   -0.000002  -0.000001   0.000050   0.000027   0.012475  -0.001776
    20  H    0.001373  -0.000092  -0.002670   0.004148  -0.049031   0.003746
               7          8          9         10         11         12
     1  Br   0.000001   0.000009  -0.000088   0.001267  -0.041160  -0.041537
     2  C    0.000005  -0.000014   0.000021  -0.000035   0.437506   0.421264
     3  C    0.000327  -0.000230   0.001860  -0.012676  -0.053202  -0.034820
     4  C    0.008266  -0.000698   0.008377  -0.085657   0.010265  -0.014533
     5  C   -0.045265  -0.041722  -0.046377   0.452078  -0.000612   0.000511
     6  C    0.513802  -0.115328  -0.015628  -0.059662  -0.000090   0.000252
     7  N    6.420335   0.495974  -0.043196  -0.068140  -0.000000   0.000000
     8  C    0.495974   4.830610   0.489978  -0.017796   0.000002  -0.000004
     9  C   -0.043196   0.489978   4.984819   0.460892  -0.000007   0.000010
    10  C   -0.068140  -0.017796   0.460892   5.101113   0.000078  -0.000202
    11  H   -0.000000   0.000002  -0.000007   0.000078   0.506049  -0.025577
    12  H    0.000000  -0.000004   0.000010  -0.000202  -0.025577   0.516783
    13  H   -0.000078  -0.000145   0.000388  -0.005509  -0.004216   0.005662
    14  H   -0.000165   0.000147  -0.000557   0.005552  -0.004582  -0.000385
    15  H   -0.000396   0.000267  -0.001182  -0.001512  -0.000230   0.002114
    16  H    0.000160  -0.000036  -0.000273   0.005215   0.000166   0.001108
    17  H   -0.032050   0.009167  -0.002482   0.006519   0.000001   0.000015
    18  H   -0.033870   0.432939  -0.066634   0.001981  -0.000000  -0.000000
    19  H    0.007208  -0.030745   0.415139  -0.057465  -0.000000   0.000000
    20  H   -0.002110   0.003360  -0.034090   0.423111   0.000012   0.000019
              13         14         15         16         17         18
     1  Br  -0.003394   0.007416   0.006674   0.000046   0.000016   0.000000
     2  C   -0.034826  -0.039036  -0.003935   0.001117   0.000021  -0.000000
     3  C    0.432479   0.405565  -0.057620  -0.048684  -0.001228   0.000012
     4  C   -0.057897  -0.038836   0.442754   0.421655   0.004733   0.000058
     5  C    0.004141   0.003126  -0.042030  -0.041721  -0.090705  -0.000726
     6  C    0.003923  -0.003856   0.001307  -0.000140   0.443049   0.006079
     7  N   -0.000078  -0.000165  -0.000396   0.000160  -0.032050  -0.033870
     8  C   -0.000145   0.000147   0.000267  -0.000036   0.009167   0.432939
     9  C    0.000388  -0.000557  -0.001182  -0.000273  -0.002482  -0.066634
    10  C   -0.005509   0.005552  -0.001512   0.005215   0.006519   0.001981
    11  H   -0.004216  -0.004582  -0.000230   0.000166   0.000001  -0.000000
    12  H    0.005662  -0.000385   0.002114   0.001108   0.000015  -0.000000
    13  H    0.489973  -0.011456   0.003675   0.003820   0.000020  -0.000002
    14  H   -0.011456   0.514376   0.003729   0.000229   0.000587  -0.000001
    15  H    0.003675   0.003729   0.463544  -0.008699   0.000155  -0.000003
    16  H    0.003820   0.000229  -0.008699   0.501332   0.001268  -0.000002
    17  H    0.000020   0.000587   0.000155   0.001268   0.518110  -0.000026
    18  H   -0.000002  -0.000001  -0.000003  -0.000002  -0.000026   0.516552
    19  H    0.000020  -0.000006  -0.000063   0.000013   0.000097  -0.000319
    20  H    0.000851   0.000263   0.000620   0.000327  -0.000220  -0.000255
              19         20
     1  Br  -0.000002   0.001373
     2  C   -0.000001  -0.000092
     3  C    0.000050  -0.002670
     4  C    0.000027   0.004148
     5  C    0.012475  -0.049031
     6  C   -0.001776   0.003746
     7  N    0.007208  -0.002110
     8  C   -0.030745   0.003360
     9  C    0.415139  -0.034090
    10  C   -0.057465   0.423111
    11  H   -0.000000   0.000012
    12  H    0.000000   0.000019
    13  H    0.000020   0.000851
    14  H   -0.000006   0.000263
    15  H   -0.000063   0.000620
    16  H    0.000013   0.000327
    17  H    0.000097  -0.000220
    18  H   -0.000319  -0.000255
    19  H    0.518130  -0.005606
    20  H   -0.005606   0.491661
 Mulliken charges:
               1
     1  Br  -0.162426
     2  C   -0.209992
     3  C   -0.275596
     4  C   -0.438558
     5  C    0.125291
     6  C   -0.085931
     7  N   -0.220809
     8  C   -0.055738
     9  C   -0.150971
    10  C   -0.149153
    11  H    0.175598
    12  H    0.169320
    13  H    0.172569
    14  H    0.157890
    15  H    0.190829
    16  H    0.163097
    17  H    0.142953
    18  H    0.144217
    19  H    0.142825
    20  H    0.164585
 Sum of Mulliken charges =  -0.00000
 Mulliken charges with hydrogens summed into heavy atoms:
               1
     1  Br  -0.162426
     2  C    0.134927
     3  C    0.054863
     4  C   -0.084632
     5  C    0.125291
     6  C    0.057022
     7  N   -0.220809
     8  C    0.088479
     9  C   -0.008146
    10  C    0.015431
 Electronic spatial extent (au):  <R**2>=           3298.5943
 Charge=              0.0000 electrons
 Dipole moment (field-independent basis, Debye):
    X=              0.5908    Y=             -0.0167    Z=              0.9744  Tot=              1.1396
 Quadrupole moment (field-independent basis, Debye-Ang):
   XX=            -85.8608   YY=            -68.0623   ZZ=            -73.9659
   XY=             10.9149   XZ=             -0.6204   YZ=             -0.2023
 Traceless Quadrupole moment (field-independent basis, Debye-Ang):
   XX=             -9.8978   YY=              7.9007   ZZ=              1.9971
   XY=             10.9149   XZ=             -0.6204   YZ=             -0.2023
 Octapole moment (field-independent basis, Debye-Ang**2):
  XXX=            102.7750  YYY=            -13.2330  ZZZ=             -1.8454  XYY=             36.9364
  XXY=            -38.1810  XXZ=             12.8257  XZZ=             40.4746  YZZ=             -0.5361
  YYZ=             -0.5411  XYZ=              6.9697
 Hexadecapole moment (field-independent basis, Debye-Ang**3):
 XXXX=          -3522.2577 YYYY=           -416.8264 ZZZZ=           -180.8681 XXXY=            153.5413
 XXXZ=            -70.0818 YYYX=            -11.7853 YYYZ=             -6.5985 ZZZX=             -5.6990
 ZZZY=              5.5868 XXYY=           -635.9141 XXZZ=           -614.7144 YYZZ=           -102.3794
 XXYZ=              1.0253 YYXZ=            -11.5402 ZZXY=            -12.2630
 N-N= 6.946133651460D+02 E-N=-8.390165593188D+03  KE= 2.934433903538D+03
 Unable to Open any file for archive entry.
 1\1\GINC-COMPUTE-0-29\SP\RM062X\def2TZVP\C8H10Br1N1\ZTAN64\14-Aug-2024
 \0\\# M062X/def2tzvp int=(grid=ultrafine) nmr=giao guess=read geom=che
 ck\\pyrd10.xyz\\0,1\Br,0,4.7531360283,-0.7703982265,-0.8461283845\C,0,
 4.5657155828,-1.798505461,0.8412445793\C,0,3.1340357487,-2.2537207117,
 1.0598631578\C,0,2.1393323894,-1.0990024719,1.2619842953\C,0,0.7281373
 256,-1.5946177223,1.4435463807\C,0,0.1792098829,-1.7798878403,2.717785
 1452\N,0,-1.0490834243,-2.252981729,2.9541266298\C,0,-1.7979102993,-2.
 5683258228,1.8907208003\C,0,-1.3595924278,-2.4237724576,0.5739563431\C
 ,0,-0.0772873884,-1.9301469838,0.350966562\H,0,5.2563061812,-2.6341274
 764,0.7385383368\H,0,4.9157330666,-1.1230240355,1.6221926578\H,0,2.815
 0109072,-2.8736653388,0.2153011002\H,0,3.1242358278,-2.9009950178,1.94
 76335368\H,0,2.1969543535,-0.4332624883,0.3949111029\H,0,2.443549364,-
 0.5107971764,2.1360412741\H,0,0.7697869443,-1.5239414312,3.5973682783\
 H,0,-2.7944157444,-2.9512503799,2.1010250555\H,0,-2.0104539451,-2.6887
 243343,-0.2529762631\H,0,0.2990996269,-1.8002528945,-0.6606005885\\Ver
 sion=ES64L-G16RevC.01\State=1-A\HF=-2939.7892146\RMSD=3.805e-09\Dipole
 =0.2679222,-0.3264822,-0.1505377\Quadrupole=0.6808445,1.0616965,-1.742
 5409,-1.1786025,10.169262,2.0978687\PG=C01 [X(C8H10Br1N1)]\\@
 The archive entry for this job was punched.


 SCIENCE IS LONG AND LIFE IS SHORT.

                     DON MOSER IN THE FEBRUARY 1979 SMITHSONIAN
 Job cpu time:       0 days  0 hours 25 minutes 31.0 seconds.
 Elapsed time:       0 days  0 hours  1 minutes 43.4 seconds.
 File lengths (MBytes):  RWF=     88 Int=      0 D2E=      0 Chk=     15 Scr=      1
 Normal termination of Gaussian 16 at Wed Aug 14 18:56:03 2024.
 
 
-----Kestrel cluster job statistics-----
Time info:

real	10m15.600s
user	156m36.199s
sys	0m28.628s
 
Disk space usage:
15M	/scratch/362951.kestrel.chem.wisc.edu
