 Entering Gaussian System, Link 0=/share/apps/gaussian/g16/g16
 Initial command:
 /share/apps/gaussian/g16/l1.exe "/scratch/362969.kestrel.chem.wisc.edu/Gau-4139.inp" -scrdir="/scratch/362969.kestrel.chem.wisc.edu/"
 Entering Link 1 = /share/apps/gaussian/g16/l1.exe PID=      4140.
  
 Copyright (c) 1988-2019, Gaussian, Inc.  All Rights Reserved.
  
 This is part of the Gaussian(R) 16 program.  It is based on
 the Gaussian(R) 09 system (copyright 2009, Gaussian, Inc.),
 the Gaussian(R) 03 system (copyright 2003, Gaussian, Inc.),
 the Gaussian(R) 98 system (copyright 1998, Gaussian, Inc.),
 the Gaussian(R) 94 system (copyright 1995, Gaussian, Inc.),
 the Gaussian 92(TM) system (copyright 1992, Gaussian, Inc.),
 the Gaussian 90(TM) system (copyright 1990, Gaussian, Inc.),
 the Gaussian 88(TM) system (copyright 1988, Gaussian, Inc.),
 the Gaussian 86(TM) system (copyright 1986, Carnegie Mellon
 University), and the Gaussian 82(TM) system (copyright 1983,
 Carnegie Mellon University). Gaussian is a federally registered
 trademark of Gaussian, Inc.
  
 This software contains proprietary and confidential information,
 including trade secrets, belonging to Gaussian, Inc.
  
 This software is provided under written license and may be
 used, copied, transmitted, or stored only in accord with that
 written license.
  
 The following legend is applicable only to US Government
 contracts under FAR:
  
                    RESTRICTED RIGHTS LEGEND
  
 Use, reproduction and disclosure by the US Government is
 subject to restrictions as set forth in subparagraphs (a)
 and (c) of the Commercial Computer Software - Restricted
 Rights clause in FAR 52.227-19.
  
 Gaussian, Inc.
 340 Quinnipiac St., Bldg. 40, Wallingford CT 06492
  
  
 ---------------------------------------------------------------
 Warning -- This program may not be used in any manner that
 competes with the business of Gaussian, Inc. or will provide
 assistance to any competitor of Gaussian, Inc.  The licensee
 of this program is prohibited from giving any competitor of
 Gaussian, Inc. access to this program.  By using this program,
 the user acknowledges that Gaussian, Inc. is engaged in the
 business of creating and licensing software in the field of
 computational chemistry and represents and warrants to the
 licensee that it is not a competitor of Gaussian, Inc. and that
 it will not use this program in any manner prohibited above.
 ---------------------------------------------------------------
  

 Cite this work as:
 Gaussian 16, Revision C.01,
 M. J. Frisch, G. W. Trucks, H. B. Schlegel, G. E. Scuseria, 
 M. A. Robb, J. R. Cheeseman, G. Scalmani, V. Barone, 
 G. A. Petersson, H. Nakatsuji, X. Li, M. Caricato, A. V. Marenich, 
 J. Bloino, B. G. Janesko, R. Gomperts, B. Mennucci, H. P. Hratchian, 
 J. V. Ortiz, A. F. Izmaylov, J. L. Sonnenberg, D. Williams-Young, 
 F. Ding, F. Lipparini, F. Egidi, J. Goings, B. Peng, A. Petrone, 
 T. Henderson, D. Ranasinghe, V. G. Zakrzewski, J. Gao, N. Rega, 
 G. Zheng, W. Liang, M. Hada, M. Ehara, K. Toyota, R. Fukuda, 
 J. Hasegawa, M. Ishida, T. Nakajima, Y. Honda, O. Kitao, H. Nakai, 
 T. Vreven, K. Throssell, J. A. Montgomery, Jr., J. E. Peralta, 
 F. Ogliaro, M. J. Bearpark, J. J. Heyd, E. N. Brothers, K. N. Kudin, 
 V. N. Staroverov, T. A. Keith, R. Kobayashi, J. Normand, 
 K. Raghavachari, A. P. Rendell, J. C. Burant, S. S. Iyengar, 
 J. Tomasi, M. Cossi, J. M. Millam, M. Klene, C. Adamo, R. Cammi, 
 J. W. Ochterski, R. L. Martin, K. Morokuma, O. Farkas, 
 J. B. Foresman, and D. J. Fox, Gaussian, Inc., Wallingford CT, 2019.
 
 ******************************************
 Gaussian 16:  ES64L-G16RevC.01  3-Jul-2019
                14-Aug-2024 
 ******************************************
 %nprocs=16
 Will use up to   16 processors via shared memory.
 %mem=16GB
 %chk=pyrd4_conf-6.chk
 ----------------------------------------------------------------------
 # B3LYP/6-31G(d,p) symmetry=loose empiricaldispersion=GD3BJ int=(grid=
 ultrafine) opt freq=noraman
 ----------------------------------------------------------------------
 1/18=20,19=15,26=4,38=1/1,3;
 2/9=110,12=2,17=4,18=3,40=1/2;
 3/5=1,6=6,7=101,11=2,25=1,30=1,71=1,74=-5,75=-5,124=41/1,2,3;
 4//1;
 5/5=2,38=5/2;
 6/7=2,8=2,9=2,10=2,28=1/1;
 7//1,2,3,16;
 1/18=20,19=15,26=4/3(2);
 2/9=110/2;
 99//99;
 2/9=110/2;
 3/5=1,6=6,7=101,11=2,25=1,30=1,71=1,74=-5,75=-5,124=41/1,2,3;
 4/5=5,16=3,69=1/1;
 5/5=2,38=5/2;
 7//1,2,3,16;
 1/18=20,19=15,26=4/3(-5);
 2/9=110/2;
 6/7=2,8=2,9=2,10=2,19=2,28=1/1;
 99/9=1/99;
 ---------
 pyrd4.xyz
 ---------
 Symbolic Z-matrix:
 Charge =  0 Multiplicity = 1
 O                     2.0681   -1.4948    4.2482 
 C                     1.6911   -0.3827    3.8797 
 N                     2.4361    0.7388    3.931 
 C                     3.733     0.9083    4.4305 
 N                     4.2667    0.0381    5.3305 
 C                     5.5181    0.2734    5.7937 
 C                     6.2747    1.3757    5.3951 
 C                     5.7234    2.2772    4.48 
 C                     6.5333    3.4891    4.0321 
 C                     6.4806    4.0265    2.6174 
 C                     5.9007    4.8374    3.7579 
 C                     4.431     2.0388    3.995 
 C                     0.3203   -0.2086    3.2629 
 C                    -0.3921    0.9971    3.3772 
 C                    -1.6523    1.1271    2.7986 
 C                    -2.2248    0.0603    2.1041 
 B                    -3.6578    0.2124    1.4484 
 O                    -4.301    -0.7851    0.7511 
 C                    -5.6419   -0.3709    0.5653 
 C                    -6.113    -0.9581   -0.7805 
 C                    -6.4381   -0.9973    1.7375 
 C                    -5.496     1.1945    0.6017 
 C                    -5.0361    1.8549   -0.722 
 C                    -6.7       1.9545    1.1937 
 O                    -4.4173    1.3596    1.5042 
 C                    -1.5272   -1.144     1.9995 
 C                    -0.2677   -1.2797    2.577 
 H                     2.0407    1.5287    3.4593 
 H                     5.906    -0.4482    6.4983 
 H                     7.2685    1.5231    5.7903 
 H                     7.5182    3.531     4.5021 
 H                     5.8141    3.5471    1.8989 
 H                     7.414     4.3476    2.1525 
 H                     6.4244    5.7318    4.0987 
 H                     4.819     4.9394    3.8546 
 H                     3.9879    2.7209    3.2868 
 H                     0.0056    1.8368    3.9294 
 H                    -2.1959    2.0567    2.8945 
 H                    -6.1429   -2.0477   -0.7485 
 H                    -5.4471   -0.6898   -1.6008 
 H                    -7.1124   -0.6051   -1.0333 
 H                    -7.5008   -0.7691    1.6611 
 H                    -6.0897   -0.6332    2.705 
 H                    -6.3376   -2.0832    1.7519 
 H                    -5.821     1.8163   -1.4769 
 H                    -4.1547    1.3631   -1.1354 
 H                    -4.776     2.9038   -0.5748 
 H                    -7.5959    1.7962    0.5939 
 H                    -6.511     3.0278    1.2333 
 H                    -6.9222    1.6402    2.2136 
 H                    -1.9669   -1.9786    1.4714 
 H                     0.2528   -2.2251    2.4901 
 

 GradGradGradGradGradGradGradGradGradGradGradGradGradGradGradGradGradGrad
 Berny optimization.
 Initialization pass.
                           ----------------------------
                           !    Initial Parameters    !
                           ! (Angstroms and Degrees)  !
 --------------------------                            --------------------------
 ! Name  Definition              Value          Derivative Info.                !
 --------------------------------------------------------------------------------
 ! R1    R(1,2)                  1.2307         estimate D2E/DX2                !
 ! R2    R(2,3)                  1.3474         estimate D2E/DX2                !
 ! R3    R(2,13)                 1.5132         estimate D2E/DX2                !
 ! R4    R(3,4)                  1.4001         estimate D2E/DX2                !
 ! R5    R(3,28)                 1.0014         estimate D2E/DX2                !
 ! R6    R(4,5)                  1.3609         estimate D2E/DX2                !
 ! R7    R(4,12)                 1.3982         estimate D2E/DX2                !
 ! R8    R(5,6)                  1.355          estimate D2E/DX2                !
 ! R9    R(6,7)                  1.3951         estimate D2E/DX2                !
 ! R10   R(6,29)                 1.0806         estimate D2E/DX2                !
 ! R11   R(7,8)                  1.3979         estimate D2E/DX2                !
 ! R12   R(7,30)                 1.0796         estimate D2E/DX2                !
 ! R13   R(8,9)                  1.5249         estimate D2E/DX2                !
 ! R14   R(8,12)                 1.4008         estimate D2E/DX2                !
 ! R15   R(9,10)                 1.5142         estimate D2E/DX2                !
 ! R16   R(9,11)                 1.5144         estimate D2E/DX2                !
 ! R17   R(9,31)                 1.0921         estimate D2E/DX2                !
 ! R18   R(10,11)                1.5148         estimate D2E/DX2                !
 ! R19   R(10,32)                1.091          estimate D2E/DX2                !
 ! R20   R(10,33)                1.0911         estimate D2E/DX2                !
 ! R21   R(11,34)                1.091          estimate D2E/DX2                !
 ! R22   R(11,35)                1.0908         estimate D2E/DX2                !
 ! R23   R(12,36)                1.0785         estimate D2E/DX2                !
 ! R24   R(13,14)                1.4051         estimate D2E/DX2                !
 ! R25   R(13,27)                1.4012         estimate D2E/DX2                !
 ! R26   R(14,15)                1.3928         estimate D2E/DX2                !
 ! R27   R(14,37)                1.0808         estimate D2E/DX2                !
 ! R28   R(15,16)                1.3958         estimate D2E/DX2                !
 ! R29   R(15,38)                1.0811         estimate D2E/DX2                !
 ! R30   R(16,17)                1.5832         estimate D2E/DX2                !
 ! R31   R(16,26)                1.3957         estimate D2E/DX2                !
 ! R32   R(17,18)                1.3766         estimate D2E/DX2                !
 ! R33   R(17,25)                1.377          estimate D2E/DX2                !
 ! R34   R(18,19)                1.4157         estimate D2E/DX2                !
 ! R35   R(19,20)                1.542          estimate D2E/DX2                !
 ! R36   R(19,21)                1.5493         estimate D2E/DX2                !
 ! R37   R(19,22)                1.5726         estimate D2E/DX2                !
 ! R38   R(20,39)                1.0905         estimate D2E/DX2                !
 ! R39   R(20,40)                1.0901         estimate D2E/DX2                !
 ! R40   R(20,41)                1.0896         estimate D2E/DX2                !
 ! R41   R(21,42)                1.0896         estimate D2E/DX2                !
 ! R42   R(21,43)                1.0909         estimate D2E/DX2                !
 ! R43   R(21,44)                1.0906         estimate D2E/DX2                !
 ! R44   R(22,23)                1.5491         estimate D2E/DX2                !
 ! R45   R(22,24)                1.542          estimate D2E/DX2                !
 ! R46   R(22,25)                1.4161         estimate D2E/DX2                !
 ! R47   R(23,45)                1.0897         estimate D2E/DX2                !
 ! R48   R(23,46)                1.0907         estimate D2E/DX2                !
 ! R49   R(23,47)                1.0906         estimate D2E/DX2                !
 ! R50   R(24,48)                1.0897         estimate D2E/DX2                !
 ! R51   R(24,49)                1.0905         estimate D2E/DX2                !
 ! R52   R(24,50)                1.0901         estimate D2E/DX2                !
 ! R53   R(26,27)                1.3922         estimate D2E/DX2                !
 ! R54   R(26,51)                1.0811         estimate D2E/DX2                !
 ! R55   R(27,52)                1.0827         estimate D2E/DX2                !
 ! A1    A(1,2,3)              124.8448         estimate D2E/DX2                !
 ! A2    A(1,2,13)             120.2318         estimate D2E/DX2                !
 ! A3    A(3,2,13)             114.875          estimate D2E/DX2                !
 ! A4    A(2,3,4)              128.7952         estimate D2E/DX2                !
 ! A5    A(2,3,28)             114.8541         estimate D2E/DX2                !
 ! A6    A(4,3,28)             115.9963         estimate D2E/DX2                !
 ! A7    A(3,4,5)              121.4526         estimate D2E/DX2                !
 ! A8    A(3,4,12)             116.6923         estimate D2E/DX2                !
 ! A9    A(5,4,12)             121.8177         estimate D2E/DX2                !
 ! A10   A(4,5,6)              118.5043         estimate D2E/DX2                !
 ! A11   A(5,6,7)              122.711          estimate D2E/DX2                !
 ! A12   A(5,6,29)             116.0071         estimate D2E/DX2                !
 ! A13   A(7,6,29)             121.2819         estimate D2E/DX2                !
 ! A14   A(6,7,8)              118.8619         estimate D2E/DX2                !
 ! A15   A(6,7,30)             120.1655         estimate D2E/DX2                !
 ! A16   A(8,7,30)             120.9725         estimate D2E/DX2                !
 ! A17   A(7,8,9)              119.6936         estimate D2E/DX2                !
 ! A18   A(7,8,12)             118.7345         estimate D2E/DX2                !
 ! A19   A(9,8,12)             121.5719         estimate D2E/DX2                !
 ! A20   A(8,9,10)             122.5467         estimate D2E/DX2                !
 ! A21   A(8,9,11)             122.61           estimate D2E/DX2                !
 ! A22   A(8,9,31)             112.524          estimate D2E/DX2                !
 ! A23   A(10,9,31)            114.8245         estimate D2E/DX2                !
 ! A24   A(11,9,31)            114.8658         estimate D2E/DX2                !
 ! A25   A(9,10,32)            118.7238         estimate D2E/DX2                !
 ! A26   A(9,10,33)            118.2128         estimate D2E/DX2                !
 ! A27   A(11,10,32)           119.8149         estimate D2E/DX2                !
 ! A28   A(11,10,33)           119.3908         estimate D2E/DX2                !
 ! A29   A(32,10,33)           111.7972         estimate D2E/DX2                !
 ! A30   A(9,11,34)            118.2166         estimate D2E/DX2                !
 ! A31   A(9,11,35)            118.7806         estimate D2E/DX2                !
 ! A32   A(10,11,34)           119.3581         estimate D2E/DX2                !
 ! A33   A(10,11,35)           119.7647         estimate D2E/DX2                !
 ! A34   A(34,11,35)           111.8176         estimate D2E/DX2                !
 ! A35   A(4,12,8)             119.3629         estimate D2E/DX2                !
 ! A36   A(4,12,36)            120.7174         estimate D2E/DX2                !
 ! A37   A(8,12,36)            119.9181         estimate D2E/DX2                !
 ! A38   A(2,13,14)            121.6589         estimate D2E/DX2                !
 ! A39   A(2,13,27)            119.4531         estimate D2E/DX2                !
 ! A40   A(14,13,27)           118.8805         estimate D2E/DX2                !
 ! A41   A(13,14,15)           120.335          estimate D2E/DX2                !
 ! A42   A(13,14,37)           121.4435         estimate D2E/DX2                !
 ! A43   A(15,14,37)           118.2077         estimate D2E/DX2                !
 ! A44   A(14,15,16)           120.431          estimate D2E/DX2                !
 ! A45   A(14,15,38)           119.8913         estimate D2E/DX2                !
 ! A46   A(16,15,38)           119.6755         estimate D2E/DX2                !
 ! A47   A(15,16,17)           120.2585         estimate D2E/DX2                !
 ! A48   A(15,16,26)           119.458          estimate D2E/DX2                !
 ! A49   A(17,16,26)           120.2824         estimate D2E/DX2                !
 ! A50   A(16,17,18)           124.27           estimate D2E/DX2                !
 ! A51   A(16,17,25)           124.2289         estimate D2E/DX2                !
 ! A52   A(18,17,25)           111.5011         estimate D2E/DX2                !
 ! A53   A(17,18,19)           107.28           estimate D2E/DX2                !
 ! A54   A(18,19,20)           107.0076         estimate D2E/DX2                !
 ! A55   A(18,19,21)           105.615          estimate D2E/DX2                !
 ! A56   A(18,19,22)           101.5562         estimate D2E/DX2                !
 ! A57   A(20,19,21)           110.4475         estimate D2E/DX2                !
 ! A58   A(20,19,22)           115.3148         estimate D2E/DX2                !
 ! A59   A(21,19,22)           115.6341         estimate D2E/DX2                !
 ! A60   A(19,20,39)           111.3            estimate D2E/DX2                !
 ! A61   A(19,20,40)           112.1105         estimate D2E/DX2                !
 ! A62   A(19,20,41)           111.0583         estimate D2E/DX2                !
 ! A63   A(39,20,40)           106.5445         estimate D2E/DX2                !
 ! A64   A(39,20,41)           107.7797         estimate D2E/DX2                !
 ! A65   A(40,20,41)           107.8158         estimate D2E/DX2                !
 ! A66   A(19,21,42)           111.3147         estimate D2E/DX2                !
 ! A67   A(19,21,43)           111.836          estimate D2E/DX2                !
 ! A68   A(19,21,44)           111.4191         estimate D2E/DX2                !
 ! A69   A(42,21,43)           107.6845         estimate D2E/DX2                !
 ! A70   A(42,21,44)           107.4169         estimate D2E/DX2                !
 ! A71   A(43,21,44)           106.9286         estimate D2E/DX2                !
 ! A72   A(19,22,23)           115.6018         estimate D2E/DX2                !
 ! A73   A(19,22,24)           115.2813         estimate D2E/DX2                !
 ! A74   A(19,22,25)           101.6232         estimate D2E/DX2                !
 ! A75   A(23,22,24)           110.4718         estimate D2E/DX2                !
 ! A76   A(23,22,25)           105.5884         estimate D2E/DX2                !
 ! A77   A(24,22,25)           107.0158         estimate D2E/DX2                !
 ! A78   A(22,23,45)           111.2853         estimate D2E/DX2                !
 ! A79   A(22,23,46)           111.8113         estimate D2E/DX2                !
 ! A80   A(22,23,47)           111.4358         estimate D2E/DX2                !
 ! A81   A(45,23,46)           107.6696         estimate D2E/DX2                !
 ! A82   A(45,23,47)           107.4182         estimate D2E/DX2                !
 ! A83   A(46,23,47)           106.9825         estimate D2E/DX2                !
 ! A84   A(22,24,48)           111.0406         estimate D2E/DX2                !
 ! A85   A(22,24,49)           111.3279         estimate D2E/DX2                !
 ! A86   A(22,24,50)           112.1013         estimate D2E/DX2                !
 ! A87   A(48,24,49)           107.7851         estimate D2E/DX2                !
 ! A88   A(48,24,50)           107.7887         estimate D2E/DX2                !
 ! A89   A(49,24,50)           106.5657         estimate D2E/DX2                !
 ! A90   A(17,25,22)           107.2893         estimate D2E/DX2                !
 ! A91   A(16,26,27)           120.3445         estimate D2E/DX2                !
 ! A92   A(16,26,51)           119.9639         estimate D2E/DX2                !
 ! A93   A(27,26,51)           119.6911         estimate D2E/DX2                !
 ! A94   A(13,27,26)           120.5419         estimate D2E/DX2                !
 ! A95   A(13,27,52)           120.3322         estimate D2E/DX2                !
 ! A96   A(26,27,52)           119.1258         estimate D2E/DX2                !
 ! D1    D(1,2,3,4)             -2.2509         estimate D2E/DX2                !
 ! D2    D(1,2,3,28)           170.5654         estimate D2E/DX2                !
 ! D3    D(13,2,3,4)          -179.715          estimate D2E/DX2                !
 ! D4    D(13,2,3,28)           -6.8987         estimate D2E/DX2                !
 ! D5    D(1,2,13,14)          150.8162         estimate D2E/DX2                !
 ! D6    D(1,2,13,27)          -28.1747         estimate D2E/DX2                !
 ! D7    D(3,2,13,14)          -31.5925         estimate D2E/DX2                !
 ! D8    D(3,2,13,27)          149.4166         estimate D2E/DX2                !
 ! D9    D(2,3,4,5)            -21.8444         estimate D2E/DX2                !
 ! D10   D(2,3,4,12)           160.3402         estimate D2E/DX2                !
 ! D11   D(28,3,4,5)           165.4081         estimate D2E/DX2                !
 ! D12   D(28,3,4,12)          -12.4074         estimate D2E/DX2                !
 ! D13   D(3,4,5,6)           -178.7646         estimate D2E/DX2                !
 ! D14   D(12,4,5,6)            -1.0616         estimate D2E/DX2                !
 ! D15   D(3,4,12,8)           178.7584         estimate D2E/DX2                !
 ! D16   D(3,4,12,36)           -1.7158         estimate D2E/DX2                !
 ! D17   D(5,4,12,8)             0.9516         estimate D2E/DX2                !
 ! D18   D(5,4,12,36)         -179.5226         estimate D2E/DX2                !
 ! D19   D(4,5,6,7)              0.5923         estimate D2E/DX2                !
 ! D20   D(4,5,6,29)          -179.3792         estimate D2E/DX2                !
 ! D21   D(5,6,7,8)             -0.0173         estimate D2E/DX2                !
 ! D22   D(5,6,7,30)          -179.9746         estimate D2E/DX2                !
 ! D23   D(29,6,7,8)           179.9528         estimate D2E/DX2                !
 ! D24   D(29,6,7,30)           -0.0046         estimate D2E/DX2                !
 ! D25   D(6,7,8,9)            179.9552         estimate D2E/DX2                !
 ! D26   D(6,7,8,12)            -0.1019         estimate D2E/DX2                !
 ! D27   D(30,7,8,9)            -0.0878         estimate D2E/DX2                !
 ! D28   D(30,7,8,12)          179.855          estimate D2E/DX2                !
 ! D29   D(7,8,9,10)           143.3779         estimate D2E/DX2                !
 ! D30   D(7,8,9,11)          -143.8032         estimate D2E/DX2                !
 ! D31   D(7,8,9,31)            -0.1226         estimate D2E/DX2                !
 ! D32   D(12,8,9,10)          -36.5633         estimate D2E/DX2                !
 ! D33   D(12,8,9,11)           36.2556         estimate D2E/DX2                !
 ! D34   D(12,8,9,31)          179.9362         estimate D2E/DX2                !
 ! D35   D(7,8,12,4)            -0.3462         estimate D2E/DX2                !
 ! D36   D(7,8,12,36)         -179.8759         estimate D2E/DX2                !
 ! D37   D(9,8,12,4)           179.5956         estimate D2E/DX2                !
 ! D38   D(9,8,12,36)            0.0659         estimate D2E/DX2                !
 ! D39   D(8,9,10,32)            1.9407         estimate D2E/DX2                !
 ! D40   D(8,9,10,33)         -138.8207         estimate D2E/DX2                !
 ! D41   D(31,9,10,32)         144.6844         estimate D2E/DX2                !
 ! D42   D(31,9,10,33)           3.923          estimate D2E/DX2                !
 ! D43   D(8,9,11,34)          138.9663         estimate D2E/DX2                !
 ! D44   D(8,9,11,35)           -1.9262         estimate D2E/DX2                !
 ! D45   D(31,9,11,34)          -3.9481         estimate D2E/DX2                !
 ! D46   D(31,9,11,35)        -144.8406         estimate D2E/DX2                !
 ! D47   D(32,10,11,34)       -144.4695         estimate D2E/DX2                !
 ! D48   D(32,10,11,35)         -0.0878         estimate D2E/DX2                !
 ! D49   D(33,10,11,34)          0.0158         estimate D2E/DX2                !
 ! D50   D(33,10,11,35)        144.3974         estimate D2E/DX2                !
 ! D51   D(2,13,14,15)        -179.9938         estimate D2E/DX2                !
 ! D52   D(2,13,14,37)          -1.3721         estimate D2E/DX2                !
 ! D53   D(27,13,14,15)         -0.9973         estimate D2E/DX2                !
 ! D54   D(27,13,14,37)        177.6244         estimate D2E/DX2                !
 ! D55   D(2,13,27,26)        -179.9245         estimate D2E/DX2                !
 ! D56   D(2,13,27,52)           0.1164         estimate D2E/DX2                !
 ! D57   D(14,13,27,26)          1.0564         estimate D2E/DX2                !
 ! D58   D(14,13,27,52)       -178.9027         estimate D2E/DX2                !
 ! D59   D(13,14,15,16)          0.2922         estimate D2E/DX2                !
 ! D60   D(13,14,15,38)        179.7446         estimate D2E/DX2                !
 ! D61   D(37,14,15,16)       -178.3735         estimate D2E/DX2                !
 ! D62   D(37,14,15,38)          1.0789         estimate D2E/DX2                !
 ! D63   D(14,15,16,17)        179.9787         estimate D2E/DX2                !
 ! D64   D(14,15,16,26)          0.3687         estimate D2E/DX2                !
 ! D65   D(38,15,16,17)          0.5251         estimate D2E/DX2                !
 ! D66   D(38,15,16,26)       -179.0849         estimate D2E/DX2                !
 ! D67   D(15,16,17,18)       -179.7508         estimate D2E/DX2                !
 ! D68   D(15,16,17,25)          0.2481         estimate D2E/DX2                !
 ! D69   D(26,16,17,18)         -0.144          estimate D2E/DX2                !
 ! D70   D(26,16,17,25)        179.8549         estimate D2E/DX2                !
 ! D71   D(15,16,26,27)         -0.3114         estimate D2E/DX2                !
 ! D72   D(15,16,26,51)        179.4263         estimate D2E/DX2                !
 ! D73   D(17,16,26,27)       -179.9213         estimate D2E/DX2                !
 ! D74   D(17,16,26,51)         -0.1836         estimate D2E/DX2                !
 ! D75   D(16,17,18,19)        168.2379         estimate D2E/DX2                !
 ! D76   D(25,17,18,19)        -11.7611         estimate D2E/DX2                !
 ! D77   D(16,17,25,22)        169.0389         estimate D2E/DX2                !
 ! D78   D(18,17,25,22)        -10.9622         estimate D2E/DX2                !
 ! D79   D(17,18,19,20)        147.9433         estimate D2E/DX2                !
 ! D80   D(17,18,19,21)        -94.3585         estimate D2E/DX2                !
 ! D81   D(17,18,19,22)         26.682          estimate D2E/DX2                !
 ! D82   D(18,19,20,39)         65.0036         estimate D2E/DX2                !
 ! D83   D(18,19,20,40)        -54.225          estimate D2E/DX2                !
 ! D84   D(18,19,20,41)       -174.9091         estimate D2E/DX2                !
 ! D85   D(21,19,20,39)        -49.4813         estimate D2E/DX2                !
 ! D86   D(21,19,20,40)       -168.7099         estimate D2E/DX2                !
 ! D87   D(21,19,20,41)         70.606          estimate D2E/DX2                !
 ! D88   D(22,19,20,39)        177.1162         estimate D2E/DX2                !
 ! D89   D(22,19,20,40)         57.8876         estimate D2E/DX2                !
 ! D90   D(22,19,20,41)        -62.7965         estimate D2E/DX2                !
 ! D91   D(18,19,21,42)       -177.6155         estimate D2E/DX2                !
 ! D92   D(18,19,21,43)         61.8786         estimate D2E/DX2                !
 ! D93   D(18,19,21,44)        -57.7348         estimate D2E/DX2                !
 ! D94   D(20,19,21,42)        -62.2536         estimate D2E/DX2                !
 ! D95   D(20,19,21,43)        177.2405         estimate D2E/DX2                !
 ! D96   D(20,19,21,44)         57.6271         estimate D2E/DX2                !
 ! D97   D(22,19,21,42)         70.9875         estimate D2E/DX2                !
 ! D98   D(22,19,21,43)        -49.5184         estimate D2E/DX2                !
 ! D99   D(22,19,21,44)       -169.1317         estimate D2E/DX2                !
 ! D100  D(18,19,22,23)         81.4809         estimate D2E/DX2                !
 ! D101  D(18,19,22,24)       -147.5837         estimate D2E/DX2                !
 ! D102  D(18,19,22,25)        -32.2711         estimate D2E/DX2                !
 ! D103  D(20,19,22,23)        -33.7954         estimate D2E/DX2                !
 ! D104  D(20,19,22,24)         97.14           estimate D2E/DX2                !
 ! D105  D(20,19,22,25)       -147.5474         estimate D2E/DX2                !
 ! D106  D(21,19,22,23)       -164.7625         estimate D2E/DX2                !
 ! D107  D(21,19,22,24)        -33.8271         estimate D2E/DX2                !
 ! D108  D(21,19,22,25)         81.4855         estimate D2E/DX2                !
 ! D109  D(19,22,23,45)         70.8984         estimate D2E/DX2                !
 ! D110  D(19,22,23,46)        -49.5511         estimate D2E/DX2                !
 ! D111  D(19,22,23,47)       -169.2278         estimate D2E/DX2                !
 ! D112  D(24,22,23,45)        -62.287          estimate D2E/DX2                !
 ! D113  D(24,22,23,46)        177.2635         estimate D2E/DX2                !
 ! D114  D(24,22,23,47)         57.5868         estimate D2E/DX2                !
 ! D115  D(25,22,23,45)       -177.6559         estimate D2E/DX2                !
 ! D116  D(25,22,23,46)         61.8946         estimate D2E/DX2                !
 ! D117  D(25,22,23,47)        -57.7821         estimate D2E/DX2                !
 ! D118  D(19,22,24,48)        -62.7094         estimate D2E/DX2                !
 ! D119  D(19,22,24,49)        177.1898         estimate D2E/DX2                !
 ! D120  D(19,22,24,50)         57.9212         estimate D2E/DX2                !
 ! D121  D(23,22,24,48)         70.6379         estimate D2E/DX2                !
 ! D122  D(23,22,24,49)        -49.4628         estimate D2E/DX2                !
 ! D123  D(23,22,24,50)       -168.7314         estimate D2E/DX2                !
 ! D124  D(25,22,24,48)       -174.8918         estimate D2E/DX2                !
 ! D125  D(25,22,24,49)         65.0074         estimate D2E/DX2                !
 ! D126  D(25,22,24,50)        -54.2611         estimate D2E/DX2                !
 ! D127  D(19,22,25,17)         26.2256         estimate D2E/DX2                !
 ! D128  D(23,22,25,17)        -94.7982         estimate D2E/DX2                !
 ! D129  D(24,22,25,17)        147.4849         estimate D2E/DX2                !
 ! D130  D(16,26,27,13)         -0.4093         estimate D2E/DX2                !
 ! D131  D(16,26,27,52)        179.5504         estimate D2E/DX2                !
 ! D132  D(51,26,27,13)        179.8523         estimate D2E/DX2                !
 ! D133  D(51,26,27,52)         -0.188          estimate D2E/DX2                !
 --------------------------------------------------------------------------------
 Trust Radius=3.00D-01 FncErr=1.00D-07 GrdErr=1.00D-06 EigMax=2.50D+02 EigMin=1.00D-04
 Number of steps in this run=    294 maximum allowed number of steps=    312.
 GradGradGradGradGradGradGradGradGradGradGradGradGradGradGradGradGradGrad

 Stoichiometry    C21H25BN2O3
 Framework group  C1[X(C21H25BN2O3)]
 Deg. of freedom   150
 Full point group                 C1      NOp   1
 Largest Abelian subgroup         C1      NOp   1
 Largest concise Abelian subgroup C1      NOp   1
                         Standard orientation:                         
 ---------------------------------------------------------------------
 Center     Atomic      Atomic             Coordinates (Angstroms)
 Number     Number       Type             X           Y           Z
 ---------------------------------------------------------------------
      1          8           0       -2.171887   -2.796443    0.233943
      2          6           0       -1.878828   -1.620496    0.019580
      3          7           0       -2.769503   -0.625780   -0.161132
      4          6           0       -4.167535   -0.694889   -0.191351
      5          7           0       -4.815149   -1.859755   -0.466610
      6          6           0       -6.169544   -1.853085   -0.505255
      7          6           0       -6.924353   -0.700326   -0.286622
      8          6           0       -6.260451    0.499646   -0.015803
      9          6           0       -7.066737    1.771305    0.225108
     10          6           0       -6.651234    2.820290    1.235029
     11          6           0       -6.602552    3.133533   -0.246217
     12          6           0       -4.860300    0.499589    0.028176
     13          6           0       -0.428931   -1.187686    0.001699
     14          6           0        0.008431   -0.106788   -0.782306
     15          6           0        1.349817    0.267974   -0.777999
     16          6           0        2.276013   -0.428782   -0.000284
     17          5           0        3.799937    0.000425    0.001151
     18          8           0        4.782059   -0.629859    0.731300
     19          6           0        6.028236   -0.145412    0.266056
     20          6           0        6.991410   -0.148485    1.470299
     21          6           0        6.497374   -1.162000   -0.804842
     22          6           0        5.631439    1.277253   -0.274006
     23          6           0        5.519448    2.392077    0.795780
     24          6           0        6.446396    1.772490   -1.485726
     25          8           0        4.309280    1.051460   -0.728176
     26          6           0        1.849158   -1.511848    0.769579
     27          6           0        0.509684   -1.891408    0.768014
     28          1           0       -2.375080    0.294515   -0.177584
     29          1           0       -6.642183   -2.801466   -0.716963
     30          1           0       -8.002405   -0.742035   -0.326788
     31          1           0       -8.143585    1.603478    0.154990
     32          1           0       -5.722944    2.675508    1.789650
     33          1           0       -7.425848    3.276194    1.853574
     34          1           0       -7.342815    3.811137   -0.674262
     35          1           0       -5.639093    3.214312   -0.751244
     36          1           0       -4.328662    1.414300    0.237487
     37          1           0       -0.672922    0.440685   -1.418087
     38          1           0        1.679251    1.098181   -1.387165
     39          1           0        7.182353   -1.162800    1.822225
     40          1           0        6.588573    0.403974    2.319305
     41          1           0        7.949671    0.298045    1.206361
     42          1           0        7.478289   -0.897839   -1.198884
     43          1           0        5.805087   -1.213412   -1.646330
     44          1           0        6.571525   -2.169011   -0.392633
     45          1           0        6.499893    2.669799    1.181823
     46          1           0        4.906207    2.081122    1.642464
     47          1           0        5.062700    3.293585    0.385688
     48          1           0        7.500048    1.881957   -1.230206
     49          1           0        6.086548    2.740162   -1.836986
     50          1           0        6.378300    1.089482   -2.332612
     51          1           0        2.561243   -2.063094    1.367781
     52          1           0        0.201468   -2.739143    1.366847
 ---------------------------------------------------------------------
 Rotational constants (GHZ):           0.4685277           0.0560412           0.0520036
 Standard basis: 6-31G(d,p) (6D, 7F)
 There are   530 symmetry adapted cartesian basis functions of A   symmetry.
 There are   530 symmetry adapted basis functions of A   symmetry.
   530 basis functions,   931 primitive gaussians,   530 cartesian basis functions
    97 alpha electrons       97 beta electrons
       nuclear repulsion energy      2229.3956409656 Hartrees.
 NAtoms=   52 NActive=   52 NUniq=   52 SFac= 1.00D+00 NAtFMM=   60 NAOKFM=F Big=F
 Integral buffers will be    131072 words long.
 Raffenetti 2 integral format.
 Two-electron integral symmetry is turned on.
 Nuclear repulsion after empirical dispersion term =     2229.2895560896 Hartrees.
 One-electron integrals computed using PRISM.
 NBasis=   530 RedAO= T EigKep=  4.38D-04  NBF=   530
 NBsUse=   530 1.00D-06 EigRej= -1.00D+00 NBFU=   530
 ExpMin= 1.27D-01 ExpMax= 5.48D+03 ExpMxC= 8.25D+02 IAcc=3 IRadAn=         5 AccDes= 0.00D+00
 Harris functional with IExCor=  402 and IRadAn=       5 diagonalized for initial guess.
 HarFok:  IExCor=  402 AccDes= 0.00D+00 IRadAn=         5 IDoV= 1 UseB2=F ITyADJ=14
 ICtDFT=  3500011 ScaDFX=  1.000000  1.000000  1.000000  1.000000
 FoFCou: FMM=F IPFlag=           0 FMFlag=      100000 FMFlg1=           0
         NFxFlg=           0 DoJE=T BraDBF=F KetDBF=T FulRan=T
         wScrn=  0.000000 ICntrl=       500 IOpCl=  0 I1Cent=   200000004 NGrid=           0
         NMat0=    1 NMatS0=      1 NMatT0=    0 NMatD0=    1 NMtDS0=    0 NMtDT0=    0
 Petite list used in FoFCou.
 Requested convergence on RMS density matrix=1.00D-08 within 128 cycles.
 Requested convergence on MAX density matrix=1.00D-06.
 Requested convergence on             energy=1.00D-06.
 No special actions if energy rises.
 Integral accuracy reduced to 1.0D-05 until final iterations.
 Initial convergence to 1.0D-05 achieved.  Increase integral accuracy.
 SCF Done:  E(RB3LYP) =  -1175.56442444     A.U. after   15 cycles
            NFock= 15  Conv=0.58D-08     -V/T= 2.0096

 **********************************************************************

            Population analysis using the SCF Density.

 **********************************************************************

 Orbital symmetries:
       Occupied  (A) (A) (A) (A) (A) (A) (A) (A) (A) (A) (A) (A)
                 (A) (A) (A) (A) (A) (A) (A) (A) (A) (A) (A) (A)
                 (A) (A) (A) (A) (A) (A) (A) (A) (A) (A) (A) (A)
                 (A) (A) (A) (A) (A) (A) (A) (A) (A) (A) (A) (A)
                 (A) (A) (A) (A) (A) (A) (A) (A) (A) (A) (A) (A)
                 (A) (A) (A) (A) (A) (A) (A) (A) (A) (A) (A) (A)
                 (A) (A) (A) (A) (A) (A) (A) (A) (A) (A) (A) (A)
                 (A) (A) (A) (A) (A) (A) (A) (A) (A) (A) (A) (A)
                 (A)
       Virtual   (A) (A) (A) (A) (A) (A) (A) (A) (A) (A) (A) (A)
                 (A) (A) (A) (A) (A) (A) (A) (A) (A) (A) (A) (A)
                 (A) (A) (A) (A) (A) (A) (A) (A) (A) (A) (A) (A)
                 (A) (A) (A) (A) (A) (A) (A) (A) (A) (A) (A) (A)
                 (A) (A) (A) (A) (A) (A) (A) (A) (A) (A) (A) (A)
                 (A) (A) (A) (A) (A) (A) (A) (A) (A) (A) (A) (A)
                 (A) (A) (A) (A) (A) (A) (A) (A) (A) (A) (A) (A)
                 (A) (A) (A) (A) (A) (A) (A) (A) (A) (A) (A) (A)
                 (A) (A) (A) (A) (A) (A) (A) (A) (A) (A) (A) (A)
                 (A) (A) (A) (A) (A) (A) (A) (A) (A) (A) (A) (A)
                 (A) (A) (A) (A) (A) (A) (A) (A) (A) (A) (A) (A)
                 (A) (A) (A) (A) (A) (A) (A) (A) (A) (A) (A) (A)
                 (A) (A) (A) (A) (A) (A) (A) (A) (A) (A) (A) (A)
                 (A) (A) (A) (A) (A) (A) (A) (A) (A) (A) (A) (A)
                 (A) (A) (A) (A) (A) (A) (A) (A) (A) (A) (A) (A)
                 (A) (A) (A) (A) (A) (A) (A) (A) (A) (A) (A) (A)
                 (A) (A) (A) (A) (A) (A) (A) (A) (A) (A) (A) (A)
                 (A) (A) (A) (A) (A) (A) (A) (A) (A) (A) (A) (A)
                 (A) (A) (A) (A) (A) (A) (A) (A) (A) (A) (A) (A)
                 (A) (A) (A) (A) (A) (A) (A) (A) (A) (A) (A) (A)
                 (A) (A) (A) (A) (A) (A) (A) (A) (A) (A) (A) (A)
                 (A) (A) (A) (A) (A) (A) (A) (A) (A) (A) (A) (A)
                 (A) (A) (A) (A) (A) (A) (A) (A) (A) (A) (A) (A)
                 (A) (A) (A) (A) (A) (A) (A) (A) (A) (A) (A) (A)
                 (A) (A) (A) (A) (A) (A) (A) (A) (A) (A) (A) (A)
                 (A) (A) (A) (A) (A) (A) (A) (A) (A) (A) (A) (A)
                 (A) (A) (A) (A) (A) (A) (A) (A) (A) (A) (A) (A)
                 (A) (A) (A) (A) (A) (A) (A) (A) (A) (A) (A) (A)
                 (A) (A) (A) (A) (A) (A) (A) (A) (A) (A) (A) (A)
                 (A) (A) (A) (A) (A) (A) (A) (A) (A) (A) (A) (A)
                 (A) (A) (A) (A) (A) (A) (A) (A) (A) (A) (A) (A)
                 (A) (A) (A) (A) (A) (A) (A) (A) (A) (A) (A) (A)
                 (A) (A) (A) (A) (A) (A) (A) (A) (A) (A) (A) (A)
                 (A) (A) (A) (A) (A) (A) (A) (A) (A) (A) (A) (A)
                 (A) (A) (A) (A) (A) (A) (A) (A) (A) (A) (A) (A)
                 (A) (A) (A) (A) (A) (A) (A) (A) (A) (A) (A) (A)
                 (A)
 The electronic state is 1-A.
 Alpha  occ. eigenvalues --  -19.15127 -19.15082 -19.10393 -14.37592 -14.32196
 Alpha  occ. eigenvalues --  -10.28462 -10.26802 -10.25449 -10.25412 -10.22192
 Alpha  occ. eigenvalues --  -10.21836 -10.21181 -10.20344 -10.20299 -10.20255
 Alpha  occ. eigenvalues --  -10.19765 -10.19717 -10.19249 -10.19004 -10.19000
 Alpha  occ. eigenvalues --  -10.18943 -10.18197 -10.18181 -10.18132 -10.18089
 Alpha  occ. eigenvalues --  -10.17663  -6.77901  -1.07451  -1.02769  -1.00262
 Alpha  occ. eigenvalues --   -0.95858  -0.90976  -0.86992  -0.85546  -0.79994
 Alpha  occ. eigenvalues --   -0.79655  -0.77163  -0.75097  -0.74653  -0.74443
 Alpha  occ. eigenvalues --   -0.70828  -0.68595  -0.66732  -0.65173  -0.62853
 Alpha  occ. eigenvalues --   -0.61433  -0.61226  -0.60754  -0.59539  -0.56242
 Alpha  occ. eigenvalues --   -0.56010  -0.54859  -0.54608  -0.51893  -0.49856
 Alpha  occ. eigenvalues --   -0.49609  -0.48052  -0.47432  -0.46567  -0.45659
 Alpha  occ. eigenvalues --   -0.45591  -0.45260  -0.44680  -0.44056  -0.43649
 Alpha  occ. eigenvalues --   -0.43584  -0.42296  -0.41938  -0.40672  -0.40222
 Alpha  occ. eigenvalues --   -0.40086  -0.40025  -0.38961  -0.38565  -0.37954
 Alpha  occ. eigenvalues --   -0.37862  -0.37770  -0.37360  -0.36936  -0.36530
 Alpha  occ. eigenvalues --   -0.36270  -0.35930  -0.34528  -0.33442  -0.33206
 Alpha  occ. eigenvalues --   -0.32713  -0.32525  -0.31065  -0.30648  -0.29925
 Alpha  occ. eigenvalues --   -0.27120  -0.26439  -0.25772  -0.25461  -0.24895
 Alpha  occ. eigenvalues --   -0.22924  -0.22555
 Alpha virt. eigenvalues --   -0.04663  -0.02092  -0.00586  -0.00428   0.04966
 Alpha virt. eigenvalues --    0.07278   0.07648   0.08210   0.09751   0.09793
 Alpha virt. eigenvalues --    0.10789   0.12152   0.12427   0.12654   0.12913
 Alpha virt. eigenvalues --    0.13310   0.13384   0.14018   0.14448   0.15006
 Alpha virt. eigenvalues --    0.15230   0.15437   0.15662   0.15803   0.16979
 Alpha virt. eigenvalues --    0.17281   0.17656   0.18253   0.18603   0.18995
 Alpha virt. eigenvalues --    0.19442   0.19508   0.19811   0.20894   0.21664
 Alpha virt. eigenvalues --    0.21813   0.22009   0.22189   0.22766   0.22872
 Alpha virt. eigenvalues --    0.24049   0.24429   0.25689   0.26134   0.27028
 Alpha virt. eigenvalues --    0.28669   0.28804   0.29783   0.30961   0.31142
 Alpha virt. eigenvalues --    0.32320   0.33317   0.34156   0.34650   0.35085
 Alpha virt. eigenvalues --    0.37633   0.38725   0.39736   0.43680   0.44018
 Alpha virt. eigenvalues --    0.45925   0.46255   0.47416   0.47958   0.48177
 Alpha virt. eigenvalues --    0.49850   0.50947   0.51152   0.52293   0.52842
 Alpha virt. eigenvalues --    0.53733   0.54142   0.55081   0.55122   0.55674
 Alpha virt. eigenvalues --    0.55982   0.56822   0.56953   0.57090   0.57875
 Alpha virt. eigenvalues --    0.58294   0.58488   0.58722   0.59225   0.59514
 Alpha virt. eigenvalues --    0.59617   0.59759   0.60122   0.60461   0.61464
 Alpha virt. eigenvalues --    0.61718   0.62100   0.63257   0.63605   0.64011
 Alpha virt. eigenvalues --    0.64103   0.64909   0.65799   0.66552   0.67035
 Alpha virt. eigenvalues --    0.67417   0.68627   0.69541   0.70369   0.70837
 Alpha virt. eigenvalues --    0.71811   0.72411   0.73187   0.73589   0.74397
 Alpha virt. eigenvalues --    0.75306   0.75870   0.76549   0.78553   0.78839
 Alpha virt. eigenvalues --    0.79947   0.80202   0.80656   0.80936   0.81575
 Alpha virt. eigenvalues --    0.82113   0.82662   0.83181   0.83254   0.84086
 Alpha virt. eigenvalues --    0.84347   0.85144   0.85258   0.85346   0.87168
 Alpha virt. eigenvalues --    0.87509   0.87729   0.88052   0.88148   0.88538
 Alpha virt. eigenvalues --    0.88786   0.89159   0.89341   0.90568   0.91373
 Alpha virt. eigenvalues --    0.91820   0.92872   0.93026   0.93542   0.94265
 Alpha virt. eigenvalues --    0.94467   0.95253   0.95933   0.96083   0.97547
 Alpha virt. eigenvalues --    0.97961   0.98734   0.99244   1.00215   1.01963
 Alpha virt. eigenvalues --    1.02375   1.03164   1.03723   1.05358   1.06909
 Alpha virt. eigenvalues --    1.08153   1.10479   1.10675   1.11536   1.14023
 Alpha virt. eigenvalues --    1.14633   1.15928   1.16687   1.17384   1.18540
 Alpha virt. eigenvalues --    1.19506   1.20013   1.20555   1.21365   1.21996
 Alpha virt. eigenvalues --    1.24388   1.25414   1.26959   1.27901   1.29059
 Alpha virt. eigenvalues --    1.29460   1.31290   1.32181   1.33465   1.34659
 Alpha virt. eigenvalues --    1.34986   1.35820   1.37034   1.37672   1.39568
 Alpha virt. eigenvalues --    1.40014   1.40669   1.41013   1.41225   1.43838
 Alpha virt. eigenvalues --    1.43926   1.44416   1.45056   1.45605   1.47138
 Alpha virt. eigenvalues --    1.48129   1.49416   1.50082   1.52159   1.53315
 Alpha virt. eigenvalues --    1.56494   1.56613   1.58223   1.58404   1.60601
 Alpha virt. eigenvalues --    1.60774   1.65151   1.65509   1.66746   1.68558
 Alpha virt. eigenvalues --    1.69114   1.69361   1.70965   1.71917   1.72613
 Alpha virt. eigenvalues --    1.73516   1.74839   1.75682   1.76641   1.76936
 Alpha virt. eigenvalues --    1.77408   1.78635   1.79645   1.80526   1.81741
 Alpha virt. eigenvalues --    1.82659   1.83844   1.85003   1.85398   1.85905
 Alpha virt. eigenvalues --    1.86076   1.87270   1.88606   1.89323   1.89769
 Alpha virt. eigenvalues --    1.91337   1.91663   1.92735   1.92843   1.93713
 Alpha virt. eigenvalues --    1.94317   1.95087   1.95568   1.96263   1.96648
 Alpha virt. eigenvalues --    1.97960   1.99909   2.01025   2.01499   2.02906
 Alpha virt. eigenvalues --    2.03666   2.03868   2.04496   2.05612   2.05696
 Alpha virt. eigenvalues --    2.05993   2.07003   2.07726   2.08476   2.09043
 Alpha virt. eigenvalues --    2.09321   2.09446   2.09983   2.11235   2.11322
 Alpha virt. eigenvalues --    2.11408   2.12633   2.13792   2.14249   2.14722
 Alpha virt. eigenvalues --    2.15192   2.15352   2.16393   2.17694   2.18677
 Alpha virt. eigenvalues --    2.19052   2.20661   2.21509   2.22156   2.23381
 Alpha virt. eigenvalues --    2.24024   2.24519   2.25126   2.25321   2.26593
 Alpha virt. eigenvalues --    2.28250   2.28981   2.29195   2.30114   2.30803
 Alpha virt. eigenvalues --    2.31154   2.31587   2.32249   2.33817   2.35929
 Alpha virt. eigenvalues --    2.36371   2.36993   2.37486   2.37622   2.38634
 Alpha virt. eigenvalues --    2.40703   2.41111   2.41257   2.41625   2.43323
 Alpha virt. eigenvalues --    2.43668   2.44990   2.45529   2.46964   2.47386
 Alpha virt. eigenvalues --    2.48411   2.49306   2.50289   2.50547   2.51296
 Alpha virt. eigenvalues --    2.51856   2.52598   2.54631   2.56202   2.57339
 Alpha virt. eigenvalues --    2.58541   2.58835   2.59327   2.59940   2.61221
 Alpha virt. eigenvalues --    2.62147   2.63490   2.63881   2.64962   2.66022
 Alpha virt. eigenvalues --    2.66478   2.67490   2.67845   2.68212   2.69222
 Alpha virt. eigenvalues --    2.71073   2.72223   2.74328   2.74756   2.75120
 Alpha virt. eigenvalues --    2.75304   2.75877   2.76767   2.77291   2.77821
 Alpha virt. eigenvalues --    2.79181   2.79842   2.80199   2.83472   2.83745
 Alpha virt. eigenvalues --    2.84362   2.85604   2.86442   2.86902   2.87961
 Alpha virt. eigenvalues --    2.88243   2.90450   2.90597   2.91328   2.93283
 Alpha virt. eigenvalues --    2.95521   2.97483   2.98059   2.99937   3.01345
 Alpha virt. eigenvalues --    3.02429   3.03130   3.06550   3.08570   3.09904
 Alpha virt. eigenvalues --    3.15526   3.16756   3.19249   3.19335   3.21255
 Alpha virt. eigenvalues --    3.21685   3.22592   3.23651   3.25153   3.26118
 Alpha virt. eigenvalues --    3.26609   3.29806   3.33202   3.34723   3.37116
 Alpha virt. eigenvalues --    3.38093   3.42533   3.42629   3.44654   3.44743
 Alpha virt. eigenvalues --    3.47235   3.47332   3.48394   3.49434   3.50283
 Alpha virt. eigenvalues --    3.51287   3.52219   3.57350   3.57916   3.71847
 Alpha virt. eigenvalues --    3.77263   3.83553   4.08311   4.10741   4.15215
 Alpha virt. eigenvalues --    4.15620   4.16274   4.18275   4.20726   4.26451
 Alpha virt. eigenvalues --    4.30773   4.31176   4.32230   4.36378   4.38792
 Alpha virt. eigenvalues --    4.43233   4.44439   4.48068   4.49802   4.53439
 Alpha virt. eigenvalues --    4.54746   4.56002   4.60858   4.65546   4.67913
 Alpha virt. eigenvalues --    4.78290   4.84124   4.85849
          Condensed to atoms (all electrons):
 Mulliken charges:
               1
     1  O   -0.482815
     2  C    0.553852
     3  N   -0.600325
     4  C    0.512090
     5  N   -0.469668
     6  C    0.098214
     7  C   -0.157665
     8  C    0.212439
     9  C   -0.156380
    10  C   -0.215943
    11  C   -0.215953
    12  C   -0.203308
    13  C    0.021133
    14  C   -0.125721
    15  C   -0.137632
    16  C    0.026012
    17  B    0.480774
    18  O   -0.472117
    19  C    0.246398
    20  C   -0.325958
    21  C   -0.319465
    22  C    0.247226
    23  C   -0.319029
    24  C   -0.325786
    25  O   -0.473839
    26  C   -0.137395
    27  C   -0.090573
    28  H    0.264525
    29  H    0.105905
    30  H    0.084640
    31  H    0.100511
    32  H    0.117529
    33  H    0.118888
    34  H    0.118719
    35  H    0.114384
    36  H    0.076442
    37  H    0.083774
    38  H    0.099095
    39  H    0.114846
    40  H    0.115042
    41  H    0.101742
    42  H    0.101885
    43  H    0.114490
    44  H    0.118912
    45  H    0.102340
    46  H    0.113596
    47  H    0.116265
    48  H    0.102087
    49  H    0.113006
    50  H    0.115933
    51  H    0.103245
    52  H    0.113633
 Sum of Mulliken charges =  -0.00000
 Mulliken charges with hydrogens summed into heavy atoms:
               1
     1  O   -0.482815
     2  C    0.553852
     3  N   -0.335799
     4  C    0.512090
     5  N   -0.469668
     6  C    0.204120
     7  C   -0.073025
     8  C    0.212439
     9  C   -0.055870
    10  C    0.020474
    11  C    0.017151
    12  C   -0.126866
    13  C    0.021133
    14  C   -0.041947
    15  C   -0.038537
    16  C    0.026012
    17  B    0.480774
    18  O   -0.472117
    19  C    0.246398
    20  C    0.005672
    21  C    0.015821
    22  C    0.247226
    23  C    0.013172
    24  C    0.005240
    25  O   -0.473839
    26  C   -0.034150
    27  C    0.023060
 Electronic spatial extent (au):  <R**2>=          19863.3651
 Charge=             -0.0000 electrons
 Dipole moment (field-independent basis, Debye):
    X=              1.4237    Y=              5.7764    Z=              0.1167  Tot=              5.9504
 Quadrupole moment (field-independent basis, Debye-Ang):
   XX=           -112.1737   YY=           -164.7236   ZZ=           -158.1202
   XY=            -14.7863   XZ=             -0.3068   YZ=             -0.1185
 Traceless Quadrupole moment (field-independent basis, Debye-Ang):
   XX=             32.8322   YY=            -19.7178   ZZ=            -13.1144
   XY=            -14.7863   XZ=             -0.3068   YZ=             -0.1185
 Octapole moment (field-independent basis, Debye-Ang**2):
  XXX=            -30.2949  YYY=             35.8412  ZZZ=              3.8257  XYY=             27.0911
  XXY=             78.9978  XXZ=              0.1890  XZZ=             17.9501  YZZ=             -0.0287
  YYZ=              2.4082  XYZ=             -3.7427
 Hexadecapole moment (field-independent basis, Debye-Ang**3):
 XXXX=         -20316.3045 YYYY=          -2631.3486 ZZZZ=           -710.5484 XXXY=           -140.2825
 XXXZ=            -22.0035 YYYX=            -74.9906 YYYZ=            -29.0100 ZZZX=            -16.3551
 ZZZY=             -6.8902 XXYY=          -4174.7317 XXZZ=          -4123.1874 YYZZ=           -524.5196
 XXYZ=             73.2205 YYXZ=             19.2219 ZZXY=             -6.3369
 N-N= 2.229289556090D+03 E-N=-7.190662605323D+03  KE= 1.164432966059D+03
 Calling FoFJK, ICntrl=      2127 FMM=F ISym2X=0 I1Cent= 0 IOpClX= 0 NMat=1 NMatS=1 NMatT=0.
 ***** Axes restored to original set *****
 -------------------------------------------------------------------
 Center     Atomic                   Forces (Hartrees/Bohr)
 Number     Number              X              Y              Z
 -------------------------------------------------------------------
      1        8          -0.003232841    0.012574484   -0.004356696
      2        6          -0.015938552   -0.047736075    0.000228935
      3        7           0.012893093    0.013058298    0.007483868
      4        6           0.021941974   -0.005454713    0.018105977
      5        7          -0.003835275    0.006600236   -0.006637967
      6        6          -0.021534135    0.010010917   -0.019268216
      7        6          -0.003965708   -0.004816339    0.000879388
      8        6           0.005735531    0.018781175   -0.009275548
      9        6          -0.002545355   -0.014285886    0.008806753
     10        6          -0.002070906    0.002874540   -0.001753957
     11        6          -0.001057106    0.001678747   -0.003463378
     12        6           0.010565292   -0.000443922    0.005161637
     13        6           0.001263579    0.007377317    0.001777134
     14        6          -0.002878587   -0.002587726   -0.004133019
     15        6           0.005428146   -0.000923626    0.002589874
     16        6          -0.025901228    0.003443028   -0.011709120
     17        5           0.009565451   -0.000820849    0.004276021
     18        8           0.028117901   -0.004934722    0.007766894
     19        6          -0.015507000   -0.011047565   -0.014634810
     20        6          -0.001629378    0.005538207    0.002882680
     21        6          -0.004857409    0.009913611   -0.003475137
     22        6          -0.019011322    0.014708002   -0.000926262
     23        6          -0.007610221   -0.008625122   -0.002102395
     24        6           0.000085329   -0.005387787   -0.003555238
     25        8           0.024321916   -0.000723638    0.016217141
     26        6           0.007840786    0.000448419    0.004526018
     27        6          -0.000449293   -0.002844195   -0.000466184
     28        1           0.000974733    0.007132366   -0.003432149
     29        1           0.000538020   -0.003014145    0.002873292
     30        1           0.003690960    0.001383105    0.000944353
     31        1          -0.003493839   -0.000921918   -0.001046236
     32        1          -0.001229947    0.001100784    0.005085587
     33        1          -0.002078497    0.000258420    0.004251802
     34        1           0.001048289   -0.004135922   -0.001892181
     35        1           0.002361558   -0.004088598   -0.002184208
     36        1          -0.002824094    0.002868299   -0.004143801
     37        1           0.003374996    0.001726624    0.003248065
     38        1          -0.001857844    0.002509134    0.000047160
     39        1           0.000166022   -0.001562269    0.004022071
     40        1           0.002288603    0.002957769    0.001108690
     41        1          -0.003669422    0.001209007    0.000050890
     42        1          -0.003361431    0.001109432   -0.000527050
     43        1           0.002053235    0.002984006    0.000443775
     44        1           0.003596046   -0.000662925   -0.004753550
     45        1          -0.002693496   -0.000435083   -0.002215463
     46        1           0.001246776   -0.003359644    0.000971013
     47        1          -0.001074216    0.000455802    0.005867520
     48        1          -0.002502428   -0.000539120   -0.002835071
     49        1           0.003330281    0.001218396   -0.002423343
     50        1           0.001841012   -0.003354459    0.000703442
     51        1          -0.001641984   -0.001799815   -0.001716988
     52        1           0.004181982    0.000585937    0.002607986
 -------------------------------------------------------------------
 Cartesian Forces:  Max     0.047736075 RMS     0.008352169

 GradGradGradGradGradGradGradGradGradGradGradGradGradGradGradGradGradGrad
 Berny optimization.
 FormGI is forming the generalized inverse of G from B-inverse, IUseBI=4.
 Internal  Forces:  Max     0.032169411 RMS     0.004958322
 Search for a local minimum.
 Step number   1 out of a maximum of  294
 All quantities printed in internal units (Hartrees-Bohrs-Radians)
 Mixed Optimization -- RFO/linear search
 Second derivative matrix not updated -- first step.
 ITU=  0
     Eigenvalues ---    0.00230   0.00230   0.00230   0.00230   0.00230
     Eigenvalues ---    0.00437   0.00591   0.00822   0.01310   0.01422
     Eigenvalues ---    0.01520   0.01542   0.01632   0.01691   0.01861
     Eigenvalues ---    0.01986   0.02062   0.02063   0.02094   0.02101
     Eigenvalues ---    0.02103   0.02129   0.02135   0.02141   0.02151
     Eigenvalues ---    0.02154   0.02167   0.02171   0.02191   0.02222
     Eigenvalues ---    0.02252   0.02342   0.02388   0.02988   0.02990
     Eigenvalues ---    0.03433   0.03484   0.03723   0.03808   0.05299
     Eigenvalues ---    0.05302   0.05308   0.05313   0.05363   0.05363
     Eigenvalues ---    0.05381   0.05383   0.05758   0.06307   0.07709
     Eigenvalues ---    0.09997   0.10271   0.10895   0.11660   0.12781
     Eigenvalues ---    0.14683   0.15629   0.15950   0.15996   0.15999
     Eigenvalues ---    0.15999   0.16000   0.16000   0.16000   0.16000
     Eigenvalues ---    0.16000   0.16000   0.16000   0.16000   0.16000
     Eigenvalues ---    0.16000   0.16000   0.16000   0.16000   0.16000
     Eigenvalues ---    0.16000   0.16000   0.16000   0.17376   0.17862
     Eigenvalues ---    0.21364   0.21999   0.22021   0.22315   0.22969
     Eigenvalues ---    0.23489   0.23999   0.24546   0.24982   0.24987
     Eigenvalues ---    0.24996   0.24999   0.25000   0.25000   0.25000
     Eigenvalues ---    0.25010   0.25044   0.26302   0.27195   0.27710
     Eigenvalues ---    0.27725   0.28338   0.28345   0.29902   0.30906
     Eigenvalues ---    0.31029   0.34571   0.34687   0.34693   0.34697
     Eigenvalues ---    0.34712   0.34721   0.34732   0.34738   0.34739
     Eigenvalues ---    0.34751   0.34757   0.34799   0.34802   0.34847
     Eigenvalues ---    0.34848   0.34854   0.34858   0.35669   0.35857
     Eigenvalues ---    0.35861   0.35895   0.35925   0.36042   0.36177
     Eigenvalues ---    0.39785   0.40950   0.41782   0.42062   0.42145
     Eigenvalues ---    0.43569   0.45029   0.45415   0.45610   0.45808
     Eigenvalues ---    0.45865   0.46227   0.46469   0.46891   0.47445
     Eigenvalues ---    0.48789   0.51399   0.52960   0.55584   0.90784
 RFO step:  Lambda=-2.24525311D-02 EMin= 2.30000000D-03
 Linear search not attempted -- first point.
 Iteration  1 RMS(Cart)=  0.05550852 RMS(Int)=  0.00067688
 Iteration  2 RMS(Cart)=  0.00127393 RMS(Int)=  0.00025858
 Iteration  3 RMS(Cart)=  0.00000050 RMS(Int)=  0.00025858
 Variable       Old X    -DE/DX   Delta X   Delta X   Delta X     New X
                                 (Linear)    (Quad)   (Total)
    R1        2.32574  -0.01366   0.00000  -0.01468  -0.01468   2.31106
    R2        2.54617   0.03217   0.00000   0.05563   0.05563   2.60180
    R3        2.85958  -0.00440   0.00000  -0.01322  -0.01322   2.84636
    R4        2.64574   0.00090   0.00000   0.00189   0.00189   2.64762
    R5        1.89235   0.00686   0.00000   0.01380   0.01380   1.90616
    R6        2.57175  -0.02713   0.00000  -0.05077  -0.05078   2.52098
    R7        2.64217   0.00389   0.00000   0.00827   0.00828   2.65045
    R8        2.56051  -0.01922   0.00000  -0.03581  -0.03583   2.52468
    R9        2.63642  -0.00171   0.00000  -0.00380  -0.00382   2.63260
   R10        2.04198   0.00408   0.00000   0.01069   0.01069   2.05267
   R11        2.64159  -0.00323   0.00000  -0.00504  -0.00504   2.63655
   R12        2.04016   0.00393   0.00000   0.01027   0.01027   2.05043
   R13        2.88160  -0.02103   0.00000  -0.06542  -0.06542   2.81618
   R14        2.64721  -0.00816   0.00000  -0.01518  -0.01516   2.63204
   R15        2.86152  -0.00165   0.00000  -0.00196  -0.00188   2.85963
   R16        2.86172  -0.00171   0.00000  -0.00222  -0.00215   2.85957
   R17        2.06377  -0.00364   0.00000  -0.00988  -0.00988   2.05389
   R18        2.86253  -0.00748   0.00000  -0.02854  -0.02869   2.83385
   R19        2.06170  -0.00308   0.00000  -0.00834  -0.00834   2.05336
   R20        2.06186  -0.00351   0.00000  -0.00951  -0.00951   2.05234
   R21        2.06176  -0.00348   0.00000  -0.00942  -0.00942   2.05234
   R22        2.06130  -0.00292   0.00000  -0.00789  -0.00789   2.05341
   R23        2.03805   0.00570   0.00000   0.01482   0.01482   2.05288
   R24        2.65524  -0.00138   0.00000  -0.00358  -0.00358   2.65166
   R25        2.64795  -0.00369   0.00000  -0.00844  -0.00845   2.63950
   R26        2.63194   0.00100   0.00000   0.00211   0.00211   2.63405
   R27        2.04247   0.00424   0.00000   0.01112   0.01112   2.05359
   R28        2.63761   0.00532   0.00000   0.01164   0.01165   2.64926
   R29        2.04305   0.00310   0.00000   0.00812   0.00812   2.05117
   R30        2.99184  -0.01627   0.00000  -0.05971  -0.05971   2.93213
   R31        2.63745   0.00715   0.00000   0.01533   0.01533   2.65279
   R32        2.60134  -0.00128   0.00000  -0.00434  -0.00393   2.59741
   R33        2.60208  -0.00110   0.00000  -0.00397  -0.00355   2.59853
   R34        2.67521   0.02572   0.00000   0.05853   0.05847   2.73368
   R35        2.91405  -0.00927   0.00000  -0.03031  -0.03031   2.88374
   R36        2.92777  -0.01036   0.00000  -0.03460  -0.03460   2.89318
   R37        2.97179  -0.00569   0.00000  -0.01949  -0.02011   2.95169
   R38        2.06071   0.00167   0.00000   0.00453   0.00453   2.06523
   R39        2.05997   0.00129   0.00000   0.00349   0.00349   2.06346
   R40        2.05912   0.00375   0.00000   0.01010   0.01010   2.06922
   R41        2.05906   0.00355   0.00000   0.00956   0.00956   2.06862
   R42        2.06145   0.00205   0.00000   0.00553   0.00553   2.06699
   R43        2.06100   0.00093   0.00000   0.00251   0.00251   2.06351
   R44        2.92744  -0.01026   0.00000  -0.03424  -0.03424   2.89320
   R45        2.91391  -0.00924   0.00000  -0.03020  -0.03020   2.88371
   R46        2.67605   0.02555   0.00000   0.05820   0.05815   2.73421
   R47        2.05922   0.00349   0.00000   0.00941   0.00941   2.06863
   R48        2.06113   0.00215   0.00000   0.00583   0.00583   2.06696
   R49        2.06102   0.00097   0.00000   0.00263   0.00263   2.06366
   R50        2.05924   0.00370   0.00000   0.00996   0.00996   2.06921
   R51        2.06081   0.00169   0.00000   0.00456   0.00456   2.06537
   R52        2.06002   0.00125   0.00000   0.00337   0.00337   2.06340
   R53        2.63090   0.00028   0.00000   0.00051   0.00050   2.63141
   R54        2.04299   0.00290   0.00000   0.00760   0.00760   2.05059
   R55        2.04602   0.00129   0.00000   0.00340   0.00340   2.04942
    A1        2.17895   0.00129   0.00000   0.00497   0.00491   2.18387
    A2        2.09844   0.00330   0.00000   0.01231   0.01226   2.11070
    A3        2.00495  -0.00456   0.00000  -0.01654  -0.01660   1.98835
    A4        2.24790   0.00092   0.00000   0.00370   0.00370   2.25160
    A5        2.00458   0.00314   0.00000   0.01777   0.01777   2.02235
    A6        2.02452  -0.00408   0.00000  -0.02193  -0.02193   2.00259
    A7        2.11975  -0.01467   0.00000  -0.05248  -0.05250   2.06725
    A8        2.03667   0.00505   0.00000   0.01992   0.01991   2.05657
    A9        2.12612   0.00963   0.00000   0.03284   0.03284   2.15896
   A10        2.06829  -0.00772   0.00000  -0.03791  -0.03794   2.03035
   A11        2.14171   0.00945   0.00000   0.03474   0.03470   2.17641
   A12        2.02471  -0.00567   0.00000  -0.02256  -0.02255   2.00216
   A13        2.11677  -0.00378   0.00000  -0.01218  -0.01218   2.10459
   A14        2.07453  -0.00196   0.00000  -0.00515  -0.00516   2.06937
   A15        2.09728   0.00198   0.00000   0.00806   0.00807   2.10535
   A16        2.11137  -0.00002   0.00000  -0.00291  -0.00291   2.10846
   A17        2.08905   0.00417   0.00000   0.01204   0.01203   2.10108
   A18        2.07231  -0.00753   0.00000  -0.02111  -0.02109   2.05121
   A19        2.12183   0.00336   0.00000   0.00907   0.00905   2.13088
   A20        2.13884  -0.00157   0.00000  -0.01384  -0.01400   2.12485
   A21        2.13995  -0.00158   0.00000  -0.01402  -0.01417   2.12578
   A22        1.96392   0.00020   0.00000   0.00759   0.00768   1.97160
   A23        2.00407   0.00224   0.00000   0.01178   0.01179   2.01586
   A24        2.00479   0.00221   0.00000   0.01137   0.01138   2.01617
   A25        2.07212  -0.00178   0.00000  -0.01059  -0.01062   2.06151
   A26        2.06320  -0.00106   0.00000  -0.00611  -0.00611   2.05709
   A27        2.09116  -0.00297   0.00000  -0.01884  -0.01882   2.07234
   A28        2.08376  -0.00026   0.00000  -0.00542  -0.00548   2.07828
   A29        1.95123   0.00326   0.00000   0.02314   0.02315   1.97438
   A30        2.06327  -0.00106   0.00000  -0.00628  -0.00628   2.05699
   A31        2.07311  -0.00178   0.00000  -0.01079  -0.01081   2.06230
   A32        2.08319  -0.00022   0.00000  -0.00491  -0.00497   2.07822
   A33        2.09029  -0.00295   0.00000  -0.01849  -0.01846   2.07182
   A34        1.95159   0.00322   0.00000   0.02273   0.02275   1.97433
   A35        2.08327  -0.00187   0.00000  -0.00337  -0.00334   2.07993
   A36        2.10692   0.00010   0.00000  -0.00291  -0.00293   2.10399
   A37        2.09297   0.00177   0.00000   0.00627   0.00626   2.09922
   A38        2.12335   0.00470   0.00000   0.01846   0.01845   2.14180
   A39        2.08485  -0.00757   0.00000  -0.02656  -0.02656   2.05829
   A40        2.07486   0.00286   0.00000   0.00795   0.00793   2.08279
   A41        2.10024   0.00020   0.00000  -0.00045  -0.00046   2.09978
   A42        2.11959  -0.00270   0.00000  -0.01413  -0.01414   2.10545
   A43        2.06311   0.00249   0.00000   0.01437   0.01435   2.07746
   A44        2.10192   0.00042   0.00000   0.00316   0.00317   2.10509
   A45        2.09250   0.00021   0.00000   0.00071   0.00070   2.09320
   A46        2.08873  -0.00063   0.00000  -0.00386  -0.00387   2.08486
   A47        2.09891   0.00201   0.00000   0.00625   0.00624   2.10515
   A48        2.08494  -0.00454   0.00000  -0.01437  -0.01436   2.07058
   A49        2.09932   0.00252   0.00000   0.00811   0.00810   2.10743
   A50        2.16892  -0.00223   0.00000  -0.00650  -0.00650   2.16242
   A51        2.16820  -0.00204   0.00000  -0.00579  -0.00579   2.16242
   A52        1.94606   0.00427   0.00000   0.01230   0.01228   1.95835
   A53        1.87239  -0.00115   0.00000   0.00093   0.00038   1.87277
   A54        1.86763   0.00250   0.00000   0.03365   0.03356   1.90120
   A55        1.84333   0.00168   0.00000   0.03094   0.03129   1.87462
   A56        1.77249  -0.00028   0.00000   0.00792   0.00793   1.78042
   A57        1.92767   0.00100   0.00000  -0.00172  -0.00357   1.92410
   A58        2.01262   0.00020   0.00000  -0.00869  -0.00939   2.00324
   A59        2.01820  -0.00437   0.00000  -0.04818  -0.04853   1.96967
   A60        1.94255  -0.00451   0.00000  -0.02552  -0.02567   1.91688
   A61        1.95670  -0.00384   0.00000  -0.02024  -0.02036   1.93634
   A62        1.93833   0.00050   0.00000   0.00274   0.00274   1.94107
   A63        1.85955   0.00446   0.00000   0.02447   0.02421   1.88377
   A64        1.88111   0.00188   0.00000   0.00880   0.00877   1.88988
   A65        1.88174   0.00203   0.00000   0.01257   0.01259   1.89433
   A66        1.94281   0.00155   0.00000   0.01064   0.01071   1.95352
   A67        1.95191  -0.00266   0.00000  -0.01457  -0.01481   1.93710
   A68        1.94463  -0.00779   0.00000  -0.04486  -0.04510   1.89953
   A69        1.87945   0.00125   0.00000   0.01085   0.01090   1.89035
   A70        1.87478   0.00332   0.00000   0.01820   0.01827   1.89305
   A71        1.86626   0.00494   0.00000   0.02304   0.02250   1.88875
   A72        2.01763  -0.00429   0.00000  -0.04770  -0.04803   1.96960
   A73        2.01204   0.00022   0.00000  -0.00853  -0.00920   2.00283
   A74        1.77366  -0.00039   0.00000   0.00698   0.00699   1.78065
   A75        1.92810   0.00092   0.00000  -0.00191  -0.00374   1.92435
   A76        1.84287   0.00174   0.00000   0.03130   0.03164   1.87450
   A77        1.86778   0.00252   0.00000   0.03364   0.03355   1.90133
   A78        1.94229   0.00162   0.00000   0.01109   0.01116   1.95346
   A79        1.95147  -0.00268   0.00000  -0.01469  -0.01493   1.93654
   A80        1.94492  -0.00778   0.00000  -0.04482  -0.04505   1.89987
   A81        1.87919   0.00124   0.00000   0.01083   0.01089   1.89007
   A82        1.87480   0.00327   0.00000   0.01794   0.01802   1.89282
   A83        1.86720   0.00493   0.00000   0.02293   0.02238   1.88958
   A84        1.93802   0.00050   0.00000   0.00278   0.00278   1.94081
   A85        1.94304  -0.00447   0.00000  -0.02532  -0.02547   1.91757
   A86        1.95654  -0.00386   0.00000  -0.02035  -0.02047   1.93606
   A87        1.88120   0.00185   0.00000   0.00864   0.00862   1.88982
   A88        1.88127   0.00205   0.00000   0.01275   0.01278   1.89404
   A89        1.85992   0.00444   0.00000   0.02432   0.02406   1.88398
   A90        1.87255  -0.00108   0.00000   0.00109   0.00057   1.87312
   A91        2.10041   0.00212   0.00000   0.00975   0.00975   2.11016
   A92        2.09376  -0.00175   0.00000  -0.00866  -0.00866   2.08510
   A93        2.08900  -0.00037   0.00000  -0.00109  -0.00109   2.08791
   A94        2.10385  -0.00107   0.00000  -0.00609  -0.00610   2.09775
   A95        2.10019  -0.00436   0.00000  -0.02379  -0.02378   2.07641
   A96        2.07914   0.00543   0.00000   0.02988   0.02988   2.10902
    D1       -0.03929  -0.00030   0.00000  -0.00650  -0.00649  -0.04578
    D2        2.97693  -0.00072   0.00000  -0.01247  -0.01250   2.96442
    D3       -3.13662  -0.00105   0.00000  -0.02591  -0.02587   3.12070
    D4       -0.12040  -0.00148   0.00000  -0.03188  -0.03188  -0.15229
    D5        2.63224  -0.00011   0.00000   0.00021   0.00022   2.63246
    D6       -0.49174   0.00023   0.00000   0.00953   0.00949  -0.48225
    D7       -0.55139   0.00057   0.00000   0.01849   0.01853  -0.53286
    D8        2.60781   0.00090   0.00000   0.02781   0.02781   2.63562
    D9       -0.38126   0.00022   0.00000   0.00069   0.00062  -0.38064
   D10        2.79846  -0.00037   0.00000  -0.00830  -0.00819   2.79027
   D11        2.88692   0.00021   0.00000   0.00431   0.00420   2.89111
   D12       -0.21655  -0.00038   0.00000  -0.00468  -0.00461  -0.22116
   D13       -3.12003  -0.00049   0.00000  -0.00884  -0.00868  -3.12871
   D14       -0.01853  -0.00001   0.00000   0.00021   0.00024  -0.01829
   D15        3.11992  -0.00012   0.00000   0.00114   0.00133   3.12125
   D16       -0.02995  -0.00015   0.00000  -0.00008   0.00007  -0.02988
   D17        0.01661  -0.00014   0.00000  -0.00588  -0.00596   0.01065
   D18       -3.13326  -0.00017   0.00000  -0.00710  -0.00722  -3.14048
   D19        0.01034   0.00015   0.00000   0.00438   0.00443   0.01476
   D20       -3.13076  -0.00020   0.00000  -0.00419  -0.00418  -3.13494
   D21       -0.00030  -0.00013   0.00000  -0.00311  -0.00316  -0.00346
   D22       -3.14115  -0.00019   0.00000  -0.00478  -0.00486   3.13717
   D23        3.14077   0.00025   0.00000   0.00591   0.00592  -3.13650
   D24       -0.00008   0.00019   0.00000   0.00423   0.00422   0.00414
   D25        3.14081   0.00005   0.00000   0.00112   0.00105  -3.14132
   D26       -0.00178  -0.00009   0.00000  -0.00303  -0.00308  -0.00486
   D27       -0.00153   0.00012   0.00000   0.00281   0.00276   0.00123
   D28        3.13906  -0.00003   0.00000  -0.00133  -0.00137   3.13769
   D29        2.50242   0.00216   0.00000   0.01114   0.01099   2.51340
   D30       -2.50984  -0.00231   0.00000  -0.01561  -0.01553  -2.52537
   D31       -0.00214  -0.00010   0.00000  -0.00276  -0.00279  -0.00493
   D32       -0.63815   0.00232   0.00000   0.01542   0.01533  -0.62282
   D33        0.63278  -0.00216   0.00000  -0.01133  -0.01118   0.62160
   D34        3.14048   0.00005   0.00000   0.00152   0.00155  -3.14116
   D35       -0.00604   0.00033   0.00000   0.00764   0.00759   0.00154
   D36       -3.13943   0.00036   0.00000   0.00889   0.00889  -3.13054
   D37        3.13453   0.00019   0.00000   0.00342   0.00338   3.13791
   D38        0.00115   0.00022   0.00000   0.00467   0.00468   0.00583
   D39        0.03387  -0.00002   0.00000  -0.00071  -0.00067   0.03321
   D40       -2.42288  -0.00190   0.00000  -0.01927  -0.01919  -2.44207
   D41        2.52522   0.00158   0.00000   0.01183   0.01178   2.53700
   D42        0.06847  -0.00030   0.00000  -0.00673  -0.00674   0.06173
   D43        2.42542   0.00183   0.00000   0.01827   0.01819   2.44361
   D44       -0.03362   0.00006   0.00000   0.00103   0.00099  -0.03263
   D45       -0.06891   0.00027   0.00000   0.00666   0.00667  -0.06224
   D46       -2.52795  -0.00151   0.00000  -0.01058  -0.01053  -2.53848
   D47       -2.52147  -0.00117   0.00000  -0.00626  -0.00623  -2.52770
   D48       -0.00153   0.00000   0.00000   0.00033   0.00033  -0.00120
   D49        0.00028  -0.00000   0.00000  -0.00036  -0.00036  -0.00008
   D50        2.52021   0.00117   0.00000   0.00623   0.00620   2.52641
   D51       -3.14148   0.00041   0.00000   0.00896   0.00905  -3.13244
   D52       -0.02395  -0.00003   0.00000  -0.00137  -0.00122  -0.02516
   D53       -0.01741  -0.00003   0.00000  -0.00065  -0.00069  -0.01809
   D54        3.10013  -0.00047   0.00000  -0.01098  -0.01095   3.08918
   D55       -3.14027  -0.00014   0.00000  -0.00482  -0.00470   3.13821
   D56        0.00203  -0.00010   0.00000  -0.00372  -0.00364  -0.00161
   D57        0.01844   0.00017   0.00000   0.00412   0.00413   0.02257
   D58       -3.12244   0.00021   0.00000   0.00522   0.00518  -3.11726
   D59        0.00510  -0.00016   0.00000  -0.00330  -0.00329   0.00180
   D60        3.13713  -0.00015   0.00000  -0.00282  -0.00284   3.13430
   D61       -3.11321   0.00033   0.00000   0.00708   0.00719  -3.10602
   D62        0.01883   0.00035   0.00000   0.00757   0.00764   0.02648
   D63        3.14122   0.00008   0.00000   0.00163   0.00163  -3.14033
   D64        0.00643   0.00013   0.00000   0.00349   0.00349   0.00993
   D65        0.00917   0.00006   0.00000   0.00113   0.00115   0.01032
   D66       -3.12562   0.00011   0.00000   0.00299   0.00301  -3.12261
   D67       -3.13724  -0.00021   0.00000  -0.00910  -0.00909   3.13686
   D68        0.00433  -0.00023   0.00000  -0.00995  -0.00994  -0.00561
   D69       -0.00251  -0.00029   0.00000  -0.01106  -0.01107  -0.01359
   D70        3.13906  -0.00031   0.00000  -0.01191  -0.01193   3.12713
   D71       -0.00543   0.00001   0.00000   0.00003   0.00002  -0.00542
   D72        3.13158   0.00000   0.00000  -0.00060  -0.00059   3.13099
   D73       -3.14022   0.00007   0.00000   0.00189   0.00189  -3.13833
   D74       -0.00320   0.00006   0.00000   0.00127   0.00128  -0.00193
   D75        2.93630   0.00198   0.00000   0.01917   0.01904   2.95534
   D76       -0.20527   0.00201   0.00000   0.01993   0.01980  -0.18547
   D77        2.95028   0.00187   0.00000   0.01704   0.01691   2.96719
   D78       -0.19133   0.00185   0.00000   0.01628   0.01614  -0.17518
   D79        2.58210   0.00051   0.00000  -0.02488  -0.02545   2.55665
   D80       -1.64687   0.00368   0.00000   0.00440   0.00422  -1.64264
   D81        0.46569  -0.00064   0.00000  -0.03319  -0.03365   0.43204
   D82        1.13453   0.00084   0.00000   0.00646   0.00679   1.14132
   D83       -0.94641   0.00084   0.00000   0.00640   0.00660  -0.93980
   D84       -3.05274   0.00053   0.00000   0.00232   0.00261  -3.05013
   D85       -0.86361  -0.00302   0.00000  -0.04769  -0.04790  -0.91151
   D86       -2.94454  -0.00303   0.00000  -0.04775  -0.04809  -2.99264
   D87        1.23231  -0.00333   0.00000  -0.05183  -0.05208   1.18022
   D88        3.09126   0.00219   0.00000   0.03297   0.03303   3.12429
   D89        1.01033   0.00218   0.00000   0.03291   0.03284   1.04316
   D90       -1.09601   0.00187   0.00000   0.02883   0.02884  -1.06716
   D91       -3.09998  -0.00148   0.00000  -0.00665  -0.00710  -3.10708
   D92        1.07998  -0.00233   0.00000  -0.01789  -0.01818   1.06180
   D93       -1.00766  -0.00148   0.00000  -0.00665  -0.00728  -1.01494
   D94       -1.08653   0.00285   0.00000   0.04884   0.04863  -1.03790
   D95        3.09343   0.00200   0.00000   0.03761   0.03755   3.13098
   D96        1.00578   0.00285   0.00000   0.04884   0.04845   1.05423
   D97        1.23897  -0.00006   0.00000  -0.01206  -0.01137   1.22759
   D98       -0.86426  -0.00090   0.00000  -0.02329  -0.02245  -0.88671
   D99       -2.95191  -0.00006   0.00000  -0.01206  -0.01155  -2.96346
   D100       1.42211   0.00367   0.00000   0.06693   0.06652   1.48863
   D101      -2.57582   0.00084   0.00000   0.00547   0.00564  -2.57019
   D102      -0.56324   0.00371   0.00000   0.04613   0.04591  -0.51733
   D103      -0.58984   0.00077   0.00000   0.02574   0.02572  -0.56412
   D104       1.69541  -0.00206   0.00000  -0.03571  -0.03516   1.66025
   D105      -2.57519   0.00081   0.00000   0.00494   0.00511  -2.57008
   D106      -2.87565   0.00360   0.00000   0.08771   0.08708  -2.78856
   D107      -0.59039   0.00077   0.00000   0.02625   0.02620  -0.56419
   D108       1.42219   0.00364   0.00000   0.06691   0.06648   1.48867
   D109       1.23741  -0.00002   0.00000  -0.01157  -0.01089   1.22652
   D110      -0.86483  -0.00088   0.00000  -0.02300  -0.02216  -0.88699
   D111      -2.95358  -0.00002   0.00000  -0.01155  -0.01105  -2.96463
   D112      -1.08711   0.00285   0.00000   0.04874   0.04853  -1.03858
   D113       3.09383   0.00199   0.00000   0.03731   0.03726   3.13109
   D114       1.00508   0.00285   0.00000   0.04877   0.04838   1.05346
   D115      -3.10068  -0.00150   0.00000  -0.00685  -0.00730  -3.10798
   D116       1.08027  -0.00237   0.00000  -0.01828  -0.01857   1.06169
   D117      -1.00849  -0.00150   0.00000  -0.00683  -0.00746  -1.01594
   D118      -1.09449   0.00181   0.00000   0.02815   0.02816  -1.06632
   D119       3.09254   0.00213   0.00000   0.03232   0.03238   3.12492
   D120       1.01092   0.00214   0.00000   0.03243   0.03235   1.04327
   D121       1.23286  -0.00333   0.00000  -0.05177  -0.05202   1.18084
   D122      -0.86329  -0.00302   0.00000  -0.04760  -0.04780  -0.91109
   D123      -2.94492  -0.00301   0.00000  -0.04749  -0.04783  -2.99275
   D124      -3.05244   0.00057   0.00000   0.00272   0.00301  -3.04943
   D125       1.13459   0.00089   0.00000   0.00689   0.00722   1.14182
   D126      -0.94703   0.00089   0.00000   0.00700   0.00719  -0.93984
[...]
 Alpha virt. eigenvalues --    0.33914   0.34255   0.34412   0.34451   0.34946
 Alpha virt. eigenvalues --    0.35508   0.35712   0.35835   0.36240   0.37342
 Alpha virt. eigenvalues --    0.37502   0.37928   0.38128   0.38602   0.38684
 Alpha virt. eigenvalues --    0.39095   0.39554   0.39858   0.40168   0.40400
 Alpha virt. eigenvalues --    0.40584   0.40827   0.41161   0.41746   0.42068
 Alpha virt. eigenvalues --    0.42782   0.42987   0.43217   0.43378   0.43873
 Alpha virt. eigenvalues --    0.43955   0.44119   0.44677   0.44820   0.44931
 Alpha virt. eigenvalues --    0.45163   0.45296   0.45666   0.45810   0.46012
 Alpha virt. eigenvalues --    0.46567   0.47210   0.47302   0.47589   0.48435
 Alpha virt. eigenvalues --    0.48701   0.48880   0.49237   0.49327   0.49739
 Alpha virt. eigenvalues --    0.50034   0.50234   0.50401   0.50715   0.51043
 Alpha virt. eigenvalues --    0.51130   0.51660   0.51949   0.52251   0.52441
 Alpha virt. eigenvalues --    0.52877   0.53162   0.53555   0.53657   0.53838
 Alpha virt. eigenvalues --    0.54350   0.54718   0.55115   0.56021   0.56622
 Alpha virt. eigenvalues --    0.56716   0.57311   0.57711   0.58032   0.58258
 Alpha virt. eigenvalues --    0.58557   0.59250   0.60178   0.60780   0.60992
 Alpha virt. eigenvalues --    0.61679   0.62003   0.62182   0.62755   0.63258
 Alpha virt. eigenvalues --    0.63964   0.64325   0.66094   0.66412   0.67116
 Alpha virt. eigenvalues --    0.67776   0.67986   0.68274   0.68836   0.68936
 Alpha virt. eigenvalues --    0.69458   0.69543   0.70589   0.70710   0.71650
 Alpha virt. eigenvalues --    0.72191   0.72546   0.72910   0.73218   0.73725
 Alpha virt. eigenvalues --    0.73892   0.74571   0.75451   0.76283   0.76617
 Alpha virt. eigenvalues --    0.77171   0.77919   0.78594   0.78791   0.79840
 Alpha virt. eigenvalues --    0.80203   0.81108   0.81230   0.81769   0.82675
 Alpha virt. eigenvalues --    0.83338   0.83915   0.84030   0.84373   0.85735
 Alpha virt. eigenvalues --    0.86214   0.87149   0.87801   0.88560   0.88641
 Alpha virt. eigenvalues --    0.89397   0.89597   0.89971   0.90508   0.90980
 Alpha virt. eigenvalues --    0.91307   0.92007   0.92428   0.93405   0.93515
 Alpha virt. eigenvalues --    0.93985   0.94521   0.94701   0.95078   0.95635
 Alpha virt. eigenvalues --    0.95828   0.96942   0.97458   0.98432   0.98936
 Alpha virt. eigenvalues --    0.99375   1.00196   1.00533   1.01047   1.01257
 Alpha virt. eigenvalues --    1.01645   1.02443   1.03219   1.03334   1.04095
 Alpha virt. eigenvalues --    1.05111   1.05516   1.05590   1.06796   1.07763
 Alpha virt. eigenvalues --    1.07872   1.08082   1.08964   1.09503   1.10429
 Alpha virt. eigenvalues --    1.10748   1.10951   1.12301   1.12600   1.13339
 Alpha virt. eigenvalues --    1.15031   1.15232   1.16296   1.16489   1.16687
 Alpha virt. eigenvalues --    1.17052   1.17405   1.17560   1.18298   1.19711
 Alpha virt. eigenvalues --    1.19776   1.20859   1.21018   1.22017   1.22602
 Alpha virt. eigenvalues --    1.23436   1.24515   1.24852   1.25116   1.25770
 Alpha virt. eigenvalues --    1.26281   1.26880   1.27344   1.27730   1.28807
 Alpha virt. eigenvalues --    1.29042   1.29752   1.30347   1.31174   1.31725
 Alpha virt. eigenvalues --    1.32523   1.33717   1.34089   1.34590   1.35120
 Alpha virt. eigenvalues --    1.35277   1.35638   1.37339   1.38461   1.38543
 Alpha virt. eigenvalues --    1.39466   1.40507   1.42143   1.42291   1.43213
 Alpha virt. eigenvalues --    1.43851   1.44965   1.45712   1.46511   1.47479
 Alpha virt. eigenvalues --    1.49636   1.49730   1.50150   1.51339   1.51482
 Alpha virt. eigenvalues --    1.52401   1.52529   1.53050   1.53380   1.53905
 Alpha virt. eigenvalues --    1.54079   1.54231   1.54615   1.55905   1.56280
 Alpha virt. eigenvalues --    1.56738   1.57875   1.58079   1.58262   1.58689
 Alpha virt. eigenvalues --    1.59124   1.59239   1.59830   1.60549   1.60778
 Alpha virt. eigenvalues --    1.60814   1.61636   1.62192   1.62865   1.63492
 Alpha virt. eigenvalues --    1.63778   1.64060   1.64340   1.64787   1.65244
 Alpha virt. eigenvalues --    1.65624   1.65844   1.66550   1.66610   1.67195
 Alpha virt. eigenvalues --    1.67821   1.68505   1.68890   1.69063   1.70796
 Alpha virt. eigenvalues --    1.71670   1.71831   1.72106   1.72745   1.73057
 Alpha virt. eigenvalues --    1.73573   1.73900   1.74778   1.75747   1.76687
 Alpha virt. eigenvalues --    1.77345   1.78364   1.79161   1.79558   1.79889
 Alpha virt. eigenvalues --    1.80139   1.80501   1.81174   1.82402   1.82700
 Alpha virt. eigenvalues --    1.83312   1.83685   1.84927   1.85285   1.85621
 Alpha virt. eigenvalues --    1.86177   1.86797   1.87916   1.88415   1.89470
 Alpha virt. eigenvalues --    1.90682   1.91023   1.91997   1.92109   1.92502
 Alpha virt. eigenvalues --    1.93596   1.94087   1.94247   1.94943   1.95478
 Alpha virt. eigenvalues --    1.96010   1.96415   1.96816   1.97024   1.97792
 Alpha virt. eigenvalues --    1.98443   1.99081   2.01015   2.01294   2.03835
 Alpha virt. eigenvalues --    2.04189   2.04997   2.05135   2.05816   2.06965
 Alpha virt. eigenvalues --    2.07490   2.08498   2.08770   2.09357   2.09972
 Alpha virt. eigenvalues --    2.10259   2.11807   2.11903   2.12317   2.12573
 Alpha virt. eigenvalues --    2.13455   2.15045   2.15199   2.16201   2.16592
 Alpha virt. eigenvalues --    2.17088   2.18016   2.18187   2.18806   2.19089
 Alpha virt. eigenvalues --    2.19388   2.19866   2.21926   2.22509   2.23492
 Alpha virt. eigenvalues --    2.23921   2.24167   2.25260   2.26000   2.28000
 Alpha virt. eigenvalues --    2.29247   2.29614   2.29941   2.30518   2.31184
 Alpha virt. eigenvalues --    2.32155   2.32650   2.33873   2.34541   2.34934
 Alpha virt. eigenvalues --    2.35521   2.35769   2.35984   2.36586   2.37213
 Alpha virt. eigenvalues --    2.37752   2.38071   2.38672   2.39043   2.39409
 Alpha virt. eigenvalues --    2.39870   2.40664   2.41509   2.41799   2.42136
 Alpha virt. eigenvalues --    2.42674   2.43139   2.44533   2.45517   2.45998
 Alpha virt. eigenvalues --    2.46461   2.47485   2.48031   2.48281   2.49314
 Alpha virt. eigenvalues --    2.49604   2.50330   2.51795   2.52272   2.52553
 Alpha virt. eigenvalues --    2.52862   2.53422   2.53898   2.54583   2.55464
 Alpha virt. eigenvalues --    2.55964   2.56356   2.57682   2.58023   2.58399
 Alpha virt. eigenvalues --    2.58829   2.59226   2.59396   2.59984   2.61162
 Alpha virt. eigenvalues --    2.61813   2.62106   2.62446   2.63122   2.63450
 Alpha virt. eigenvalues --    2.63921   2.64355   2.65214   2.65720   2.66503
 Alpha virt. eigenvalues --    2.66839   2.67489   2.68017   2.68696   2.69057
 Alpha virt. eigenvalues --    2.69547   2.69944   2.70214   2.70615   2.71293
 Alpha virt. eigenvalues --    2.71645   2.71856   2.71960   2.72910   2.73381
 Alpha virt. eigenvalues --    2.74109   2.74179   2.75064   2.76753   2.77533
 Alpha virt. eigenvalues --    2.77682   2.77966   2.78219   2.79102   2.79230
 Alpha virt. eigenvalues --    2.79734   2.80206   2.80434   2.80725   2.81378
 Alpha virt. eigenvalues --    2.81629   2.82401   2.82844   2.83659   2.84891
 Alpha virt. eigenvalues --    2.85314   2.85516   2.86560   2.87310   2.88204
 Alpha virt. eigenvalues --    2.88240   2.88752   2.89767   2.90070   2.90491
 Alpha virt. eigenvalues --    2.91529   2.92562   2.92576   2.93759   2.94516
 Alpha virt. eigenvalues --    2.95171   2.96708   2.96905   2.97560   2.98268
 Alpha virt. eigenvalues --    2.98307   2.99214   2.99771   3.00473   3.00931
 Alpha virt. eigenvalues --    3.01562   3.02337   3.03255   3.04194   3.05148
 Alpha virt. eigenvalues --    3.05357   3.05788   3.06699   3.07058   3.07431
 Alpha virt. eigenvalues --    3.07947   3.08328   3.08624   3.09142   3.09608
 Alpha virt. eigenvalues --    3.10432   3.10737   3.11478   3.12238   3.12645
 Alpha virt. eigenvalues --    3.12833   3.13872   3.14264   3.15023   3.15396
 Alpha virt. eigenvalues --    3.15504   3.16088   3.16329   3.16583   3.17404
 Alpha virt. eigenvalues --    3.18114   3.18650   3.18935   3.19823   3.20004
 Alpha virt. eigenvalues --    3.20498   3.20935   3.21521   3.21679   3.22298
 Alpha virt. eigenvalues --    3.23008   3.23318   3.24138   3.24642   3.25604
 Alpha virt. eigenvalues --    3.26160   3.26764   3.27093   3.27785   3.28125
 Alpha virt. eigenvalues --    3.28478   3.28712   3.29185   3.30059   3.30372
 Alpha virt. eigenvalues --    3.30662   3.31467   3.31772   3.32316   3.32807
 Alpha virt. eigenvalues --    3.33538   3.34552   3.35021   3.36021   3.36505
 Alpha virt. eigenvalues --    3.36915   3.37412   3.37888   3.38371   3.38580
 Alpha virt. eigenvalues --    3.38780   3.39569   3.39764   3.40002   3.40692
 Alpha virt. eigenvalues --    3.41708   3.42358   3.42909   3.43469   3.44067
 Alpha virt. eigenvalues --    3.44386   3.44807   3.45214   3.46143   3.46440
 Alpha virt. eigenvalues --    3.47035   3.47576   3.47896   3.48306   3.48913
 Alpha virt. eigenvalues --    3.49871   3.50737   3.51184   3.51927   3.52124
 Alpha virt. eigenvalues --    3.52796   3.53667   3.54149   3.54685   3.55123
 Alpha virt. eigenvalues --    3.55732   3.56236   3.56879   3.57547   3.57985
 Alpha virt. eigenvalues --    3.58820   3.59683   3.60602   3.61454   3.62440
 Alpha virt. eigenvalues --    3.63238   3.63564   3.65235   3.66270   3.67057
 Alpha virt. eigenvalues --    3.67751   3.68690   3.69199   3.70437   3.71794
 Alpha virt. eigenvalues --    3.72548   3.73383   3.74123   3.74233   3.76505
 Alpha virt. eigenvalues --    3.77942   3.78766   3.79844   3.80926   3.81227
 Alpha virt. eigenvalues --    3.81290   3.83193   3.83813   3.84926   3.85408
 Alpha virt. eigenvalues --    3.86421   3.86775   3.89939   3.90601   3.91037
 Alpha virt. eigenvalues --    3.92603   3.94175   3.95166   3.95981   3.96780
 Alpha virt. eigenvalues --    3.97989   3.98632   3.98774   4.00076   4.00399
 Alpha virt. eigenvalues --    4.00878   4.01973   4.02072   4.03719   4.04606
 Alpha virt. eigenvalues --    4.05387   4.05859   4.06473   4.07094   4.07265
 Alpha virt. eigenvalues --    4.08260   4.08666   4.09178   4.09853   4.10549
 Alpha virt. eigenvalues --    4.11177   4.11510   4.12570   4.14572   4.15387
 Alpha virt. eigenvalues --    4.15943   4.16177   4.16459   4.16676   4.17454
 Alpha virt. eigenvalues --    4.17860   4.19927   4.21082   4.21632   4.23125
 Alpha virt. eigenvalues --    4.23429   4.24466   4.25360   4.26180   4.26414
 Alpha virt. eigenvalues --    4.27866   4.28995   4.30399   4.31297   4.32172
 Alpha virt. eigenvalues --    4.34176   4.35523   4.37124   4.38237   4.39103
 Alpha virt. eigenvalues --    4.40049   4.40380   4.41643   4.42296   4.42756
 Alpha virt. eigenvalues --    4.43343   4.44196   4.46067   4.46913   4.47412
 Alpha virt. eigenvalues --    4.48041   4.49503   4.50855   4.50974   4.51692
 Alpha virt. eigenvalues --    4.53531   4.55366   4.55570   4.56561   4.58068
 Alpha virt. eigenvalues --    4.58486   4.58777   4.60648   4.61734   4.64689
 Alpha virt. eigenvalues --    4.67832   4.70612   4.74167   4.75721   4.77838
 Alpha virt. eigenvalues --    4.80171   4.80706   4.81124   4.81965   4.84297
 Alpha virt. eigenvalues --    4.85379   4.86411   4.86879   4.88046   4.88245
 Alpha virt. eigenvalues --    4.88895   4.89364   4.91833   4.94947   4.95073
 Alpha virt. eigenvalues --    4.95798   4.99566   5.01359   5.01595   5.02643
 Alpha virt. eigenvalues --    5.03863   5.05997   5.07607   5.08590   5.11873
 Alpha virt. eigenvalues --    5.12890   5.16052   5.18807   5.22934   5.23750
 Alpha virt. eigenvalues --    5.25184   5.26397   5.28133   5.29508   5.30591
 Alpha virt. eigenvalues --    5.31631   5.33131   5.40496   5.41873   5.42556
 Alpha virt. eigenvalues --    5.45912   5.46502   5.47395   5.50489   5.55319
 Alpha virt. eigenvalues --    5.57559   5.59393   5.59785   5.64155   5.67344
 Alpha virt. eigenvalues --    5.67759   5.70544   5.73917   5.74950   5.79706
 Alpha virt. eigenvalues --    5.81389   5.85503   5.86907   5.90386   5.93917
 Alpha virt. eigenvalues --    5.95756   6.14298   6.15505   6.20045   6.21705
 Alpha virt. eigenvalues --    6.38917   6.43961   6.52838   6.60947   6.75712
 Alpha virt. eigenvalues --    6.77883   6.78121   6.80890   6.85081   6.88422
 Alpha virt. eigenvalues --    6.95020   6.96246   7.10041   7.13983   7.19378
 Alpha virt. eigenvalues --    7.23658   7.37038   7.46158  16.36729  22.34721
 Alpha virt. eigenvalues --   22.48427  22.49850  22.52738  22.53000  22.53468
 Alpha virt. eigenvalues --   22.57217  22.57752  22.76849  22.77840  22.81648
 Alpha virt. eigenvalues --   22.82045  22.83226  22.84232  22.84975  22.90285
 Alpha virt. eigenvalues --   23.03922  23.16506  23.30991  23.36441  23.50696
 Alpha virt. eigenvalues --   32.60211  32.81879  44.11515  44.39636  44.43506
          Condensed to atoms (all electrons):
 Mulliken charges:
               1
     1  O   -0.329082
     2  C    0.315736
     3  N   -0.380226
     4  C    0.292355
     5  N   -0.233375
     6  C   -0.075606
     7  C   -0.199931
     8  C    0.194726
     9  C   -0.223833
    10  C   -0.241195
    11  C   -0.239679
    12  C   -0.304605
    13  C    0.065413
    14  C   -0.209414
    15  C   -0.197951
    16  C   -0.045804
    17  B    0.428862
    18  O   -0.334330
    19  C    0.129757
    20  C   -0.432624
    21  C   -0.499064
    22  C    0.131202
    23  C   -0.500224
    24  C   -0.432785
    25  O   -0.337142
    26  C   -0.167461
    27  C   -0.168457
    28  H    0.242044
    29  H    0.141872
    30  H    0.139666
    31  H    0.123349
    32  H    0.149000
    33  H    0.141912
    34  H    0.141876
    35  H    0.145177
    36  H    0.170677
    37  H    0.168071
    38  H    0.157283
    39  H    0.159837
    40  H    0.158190
    41  H    0.155517
    42  H    0.163720
    43  H    0.166918
    44  H    0.166299
    45  H    0.164291
    46  H    0.166338
    47  H    0.164241
    48  H    0.155809
    49  H    0.158207
    50  H    0.159278
    51  H    0.158752
    52  H    0.176413
 Sum of Mulliken charges =  -0.00000
 Mulliken charges with hydrogens summed into heavy atoms:
               1
     1  O   -0.329082
     2  C    0.315736
     3  N   -0.138183
     4  C    0.292355
     5  N   -0.233375
     6  C    0.066266
     7  C   -0.060265
     8  C    0.194726
     9  C   -0.100484
    10  C    0.049717
    11  C    0.047374
    12  C   -0.133928
    13  C    0.065413
    14  C   -0.041342
    15  C   -0.040668
    16  C   -0.045804
    17  B    0.428862
    18  O   -0.334330
    19  C    0.129757
    20  C    0.040920
    21  C   -0.002127
    22  C    0.131202
    23  C   -0.005354
    24  C    0.040509
    25  O   -0.337142
    26  C   -0.008709
    27  C    0.007956
 Electronic spatial extent (au):  <R**2>=          20038.5596
 Charge=              0.0000 electrons
 Dipole moment (field-independent basis, Debye):
    X=              1.8114    Y=              5.6652    Z=             -0.0106  Tot=              5.9478
 Quadrupole moment (field-independent basis, Debye-Ang):
   XX=           -106.5649   YY=           -165.4420   ZZ=           -162.4965
   XY=            -14.2238   XZ=             -0.4596   YZ=              0.8486
 Traceless Quadrupole moment (field-independent basis, Debye-Ang):
   XX=             38.2696   YY=            -20.6075   ZZ=            -17.6620
   XY=            -14.2238   XZ=             -0.4596   YZ=              0.8486
 Octapole moment (field-independent basis, Debye-Ang**2):
  XXX=            -10.7568  YYY=             29.6436  ZZZ=              5.8852  XYY=             21.1839
  XXY=             90.3809  XXZ=             -0.8291  XZZ=             19.7335  YZZ=              0.7849
  YYZ=             -1.6196  XYZ=            -12.4016
 Hexadecapole moment (field-independent basis, Debye-Ang**3):
 XXXX=         -20461.2927 YYYY=          -2410.6066 ZZZZ=           -813.7245 XXXY=           -179.0028
 XXXZ=            -20.2318 YYYX=            -53.0163 YYYZ=            -26.9685 ZZZX=            -30.5386
 ZZZY=             -9.2104 XXYY=          -4251.3498 XXZZ=          -4291.4331 YYZZ=           -511.2842
 XXYZ=            108.9386 YYXZ=             33.8605 ZZXY=             -5.2071
 N-N= 2.232719750258D+03 E-N=-7.201036885530D+03  KE= 1.169121880068D+03
 Unable to Open any file for archive entry.
 1\1\GINC-COMPUTE-0-28\SP\RM062X\def2TZVP\C21H25B1N2O3\ZTAN64\14-Aug-20
 24\0\\# M062X/def2tzvp int=(grid=ultrafine) nmr=giao guess=read geom=c
 heck\\pyrd4.xyz\\0,1\O,0,2.1754228467,-1.368958653,3.9943911528\C,0,1.
 7201766621,-0.2695545323,3.7379766592\N,0,2.4176459009,0.9238831769,3.
 9052832045\C,0,3.6976402532,1.0829729003,4.4620812699\N,0,4.0482933408
 ,0.2733771773,5.463257068\C,0,5.2616680397,0.464065527,5.9900224488\C,
 0,6.1477279348,1.4558688033,5.5812931892\C,0,5.7711132353,2.317410478,
 4.5421198522\C,0,6.6941877833,3.3859806014,4.0832237625\C,0,6.76882777
 18,3.778355115,2.6186106139\C,0,6.1627275645,4.7259925096,3.6075184838
 \C,0,4.514416238,2.1096998737,3.969409157\C,0,0.3412947186,-0.08970935
 92,3.1674835448\C,0,-0.3975974069,1.0943475072,3.2998098886\C,0,-1.672
 9458753,1.1869402692,2.7494852827\C,0,-2.2418124365,0.1061848448,2.057
 3656508\B,0,-3.6628313755,0.2159315026,1.4448611435\O,0,-4.2446964696,
 -0.7830693605,0.7054017829\C,0,-5.6397968034,-0.4144055188,0.514173883
 5\C,0,-6.0845622766,-0.8890595108,-0.8630757373\C,0,-6.4356399079,-1.1
 302900577,1.6088507883\C,0,-5.5998274168,1.1466517715,0.6989825277\C,0
 ,-5.2646525338,1.8977399884,-0.5924609101\C,0,-6.8332999674,1.74899344
 17,1.3591125427\O,0,-4.4622214311,1.322772927,1.5899566863\C,0,-1.4958
 723671,-1.0800241953,1.9457633304\C,0,-0.2245044019,-1.1818294972,2.49
 77221181\H,0,2.0687317732,1.71201655,3.3812072474\H,0,5.535340641,-0.2
 11327673,6.7981536987\H,0,7.1144846379,1.5606695706,6.0627591443\H,0,7
 .6327741819,3.4158423513,4.6286810628\H,0,6.1109605744,3.2528305003,1.
 9334828468\H,0,7.7478588172,4.0077778675,2.2107269621\H,0,6.7198942643
 ,5.6144483778,3.8864104928\H,0,5.0849291832,4.8559842009,3.6065939589\
 H,0,4.1679498603,2.7226102835,3.1422894239\H,0,0.0038042891,1.92964886
 19,3.866130127\H,0,-2.2450878277,2.1029215877,2.8614995537\H,0,-6.0604
 208207,-1.9812697328,-0.900280234\H,0,-5.4304060741,-0.5089305374,-1.6
 487264874\H,0,-7.1090029837,-0.5641448182,-1.0705801943\H,0,-7.5105768
 203,-0.9626860589,1.4990992105\H,0,-6.1295383202,-0.7932819601,2.60265
 48755\H,0,-6.2433359036,-2.2037443567,1.5402700559\H,0,-6.0994542842,1
 .8761147931,-1.2983151959\H,0,-4.3846896082,1.4697872556,-1.079792621\
 H,0,-5.0447957089,2.939841546,-0.3477764683\H,0,-7.7240786357,1.567834
 353,0.7493814063\H,0,-6.7049220549,2.8298722815,1.4603069622\H,0,-6.99
 89237705,1.3329127183,2.3535941246\H,0,-1.9276131649,-1.9267543671,1.4
 208436287\H,0,0.3541361354,-2.0962413247,2.428567034\\Version=ES64L-G1
 6RevC.01\State=1-A\HF=-1175.3896913\RMSD=2.849e-09\Dipole=-0.7135042,1
 .9142233,-1.1412462\Quadrupole=22.9765367,-11.1320074,-11.8445293,15.5
 028412,7.8066517,4.832571\PG=C01 [X(C21H25B1N2O3)]\\@
 The archive entry for this job was punched.


 THE TEST OF A FIRST RATE INTELLIGENCE IS THE ABILITY TO HOLD TWO OPPOSED
 IDEAS IN THE MIND AT THE SAME TIME, AND STILL RETAIN THE ABILITY TO FUNCTION.
 ONE SHOULD, FOR EXAMPLE, BE ABLE TO SEE THAT THINGS ARE HOPELESS AND YET BE
 DETERMINED TO MAKE THEM OTHERWISE.

                                                       -- F. SCOTT FITZGERALD
 Job cpu time:       0 days  4 hours 21 minutes 23.7 seconds.
 Elapsed time:       0 days  0 hours 17 minutes 39.4 seconds.
 File lengths (MBytes):  RWF=    543 Int=      0 D2E=      0 Chk=     88 Scr=      1
 Normal termination of Gaussian 16 at Wed Aug 14 20:22:04 2024.
 
 
-----Kestrel cluster job statistics-----
Time info:

real	83m13.940s
user	1307m48.605s
sys	0m43.131s
 
Disk space usage:
88M	/scratch/362969.kestrel.chem.wisc.edu
