 Entering Gaussian System, Link 0=/share/apps/gaussian/g16/g16
 Initial command:
 /share/apps/gaussian/g16/l1.exe "/scratch/362964.kestrel.chem.wisc.edu/Gau-155819.inp" -scrdir="/scratch/362964.kestrel.chem.wisc.edu/"
 Entering Link 1 = /share/apps/gaussian/g16/l1.exe PID=    155820.
  
 Copyright (c) 1988-2019, Gaussian, Inc.  All Rights Reserved.
  
 This is part of the Gaussian(R) 16 program.  It is based on
 the Gaussian(R) 09 system (copyright 2009, Gaussian, Inc.),
 the Gaussian(R) 03 system (copyright 2003, Gaussian, Inc.),
 the Gaussian(R) 98 system (copyright 1998, Gaussian, Inc.),
 the Gaussian(R) 94 system (copyright 1995, Gaussian, Inc.),
 the Gaussian 92(TM) system (copyright 1992, Gaussian, Inc.),
 the Gaussian 90(TM) system (copyright 1990, Gaussian, Inc.),
 the Gaussian 88(TM) system (copyright 1988, Gaussian, Inc.),
 the Gaussian 86(TM) system (copyright 1986, Carnegie Mellon
 University), and the Gaussian 82(TM) system (copyright 1983,
 Carnegie Mellon University). Gaussian is a federally registered
 trademark of Gaussian, Inc.
  
 This software contains proprietary and confidential information,
 including trade secrets, belonging to Gaussian, Inc.
  
 This software is provided under written license and may be
 used, copied, transmitted, or stored only in accord with that
 written license.
  
 The following legend is applicable only to US Government
 contracts under FAR:
  
                    RESTRICTED RIGHTS LEGEND
  
 Use, reproduction and disclosure by the US Government is
 subject to restrictions as set forth in subparagraphs (a)
 and (c) of the Commercial Computer Software - Restricted
 Rights clause in FAR 52.227-19.
  
 Gaussian, Inc.
 340 Quinnipiac St., Bldg. 40, Wallingford CT 06492
  
  
 ---------------------------------------------------------------
 Warning -- This program may not be used in any manner that
 competes with the business of Gaussian, Inc. or will provide
 assistance to any competitor of Gaussian, Inc.  The licensee
 of this program is prohibited from giving any competitor of
 Gaussian, Inc. access to this program.  By using this program,
 the user acknowledges that Gaussian, Inc. is engaged in the
 business of creating and licensing software in the field of
 computational chemistry and represents and warrants to the
 licensee that it is not a competitor of Gaussian, Inc. and that
 it will not use this program in any manner prohibited above.
 ---------------------------------------------------------------
  

 Cite this work as:
 Gaussian 16, Revision C.01,
 M. J. Frisch, G. W. Trucks, H. B. Schlegel, G. E. Scuseria, 
 M. A. Robb, J. R. Cheeseman, G. Scalmani, V. Barone, 
 G. A. Petersson, H. Nakatsuji, X. Li, M. Caricato, A. V. Marenich, 
 J. Bloino, B. G. Janesko, R. Gomperts, B. Mennucci, H. P. Hratchian, 
 J. V. Ortiz, A. F. Izmaylov, J. L. Sonnenberg, D. Williams-Young, 
 F. Ding, F. Lipparini, F. Egidi, J. Goings, B. Peng, A. Petrone, 
 T. Henderson, D. Ranasinghe, V. G. Zakrzewski, J. Gao, N. Rega, 
 G. Zheng, W. Liang, M. Hada, M. Ehara, K. Toyota, R. Fukuda, 
 J. Hasegawa, M. Ishida, T. Nakajima, Y. Honda, O. Kitao, H. Nakai, 
 T. Vreven, K. Throssell, J. A. Montgomery, Jr., J. E. Peralta, 
 F. Ogliaro, M. J. Bearpark, J. J. Heyd, E. N. Brothers, K. N. Kudin, 
 V. N. Staroverov, T. A. Keith, R. Kobayashi, J. Normand, 
 K. Raghavachari, A. P. Rendell, J. C. Burant, S. S. Iyengar, 
 J. Tomasi, M. Cossi, J. M. Millam, M. Klene, C. Adamo, R. Cammi, 
 J. W. Ochterski, R. L. Martin, K. Morokuma, O. Farkas, 
 J. B. Foresman, and D. J. Fox, Gaussian, Inc., Wallingford CT, 2019.
 
 ******************************************
 Gaussian 16:  ES64L-G16RevC.01  3-Jul-2019
                14-Aug-2024 
 ******************************************
 %nprocs=16
 Will use up to   16 processors via shared memory.
 %mem=16GB
 %chk=pyrd4_conf-1.chk
 ----------------------------------------------------------------------
 # B3LYP/6-31G(d,p) symmetry=loose empiricaldispersion=GD3BJ int=(grid=
 ultrafine) opt freq=noraman
 ----------------------------------------------------------------------
 1/18=20,19=15,26=4,38=1/1,3;
 2/9=110,12=2,17=4,18=3,40=1/2;
 3/5=1,6=6,7=101,11=2,25=1,30=1,71=1,74=-5,75=-5,124=41/1,2,3;
 4//1;
 5/5=2,38=5/2;
 6/7=2,8=2,9=2,10=2,28=1/1;
 7//1,2,3,16;
 1/18=20,19=15,26=4/3(2);
 2/9=110/2;
 99//99;
 2/9=110/2;
 3/5=1,6=6,7=101,11=2,25=1,30=1,71=1,74=-5,75=-5,124=41/1,2,3;
 4/5=5,16=3,69=1/1;
 5/5=2,38=5/2;
 7//1,2,3,16;
 1/18=20,19=15,26=4/3(-5);
 2/9=110/2;
 6/7=2,8=2,9=2,10=2,19=2,28=1/1;
 99/9=1/99;
 ---------
 pyrd4.xyz
 ---------
 Symbolic Z-matrix:
 Charge =  0 Multiplicity = 1
 O                     2.7837    0.9482    1.9222 
 C                     1.9368    0.984     2.8143 
 N                     2.2036    1.156     4.1225 
 C                     3.4149    1.3874    4.7802 
 N                     3.283     1.4496    6.1286 
 C                     4.3918    1.673     6.8771 
 C                     5.6584    1.8436    6.3182 
 C                     5.7963    1.7834    4.9288 
 C                     7.171     1.9683    4.2953 
 C                     7.6101    1.1994    3.0667 
 C                     7.3699    2.6921    2.98 
 C                     4.6571    1.5527    4.1479 
 C                     0.4742    0.7811    2.4813 
 C                    -0.5469    1.3524    3.2599 
 C                    -1.8838    1.1485    2.927 
 C                    -2.2259    0.3797    1.8135 
 B                    -3.747     0.1504    1.439 
 O                    -4.1768   -0.5882    0.3598 
 C                    -5.5719   -0.778     0.508 
 C                    -6.1745   -0.8206   -0.9108 
 C                    -5.7335   -2.1514    1.2064 
 C                    -5.9714    0.4748    1.3705 
 C                    -6.1655    1.7953    0.5839 
 C                    -7.1415    0.2541    2.3503 
 O                    -4.8064    0.6649    2.1524 
 C                    -1.216    -0.1798    1.0295 
 C                     0.122     0.0216    1.3573 
 H                     1.4148    1.0845    4.7372 
 H                     4.2477    1.7135    7.9473 
 H                     6.5147    2.0192    6.9519 
 H                     7.9549    2.1374    5.0361 
 H                     6.9035    0.5132    2.5962 
 H                     8.6315    0.8182    3.0312 
 H                     8.2216    3.3667    2.883 
 H                     6.4932    3.0649    2.4474 
 H                     4.7554    1.5084    3.076 
 H                    -0.3245    1.9731    4.1164 
 H                    -2.6628    1.5936    3.5302 
 H                    -5.9052    0.058    -1.4973 
 H                    -7.2621   -0.8754   -0.8728 
 H                    -5.8165   -1.6873   -1.4676 
 H                    -6.7844   -2.4115    1.3299 
 H                    -5.2714   -2.1607    2.1944 
 H                    -5.2653   -2.9494    0.6288 
 H                    -7.0694    1.7648   -0.0238 
 H                    -5.3256    1.9977   -0.0821 
 H                    -6.2521    2.6503    1.2554 
 H                    -8.0592    0.0112    1.8153 
 H                    -7.331     1.1459    2.9487 
 H                    -6.9413   -0.5549    3.0529 
 H                    -1.4719   -0.7703    0.1609 
 H                     0.8883   -0.4172    0.7311 
 

 GradGradGradGradGradGradGradGradGradGradGradGradGradGradGradGradGradGrad
 Berny optimization.
 Initialization pass.
                           ----------------------------
                           !    Initial Parameters    !
                           ! (Angstroms and Degrees)  !
 --------------------------                            --------------------------
 ! Name  Definition              Value          Derivative Info.                !
 --------------------------------------------------------------------------------
 ! R1    R(1,2)                  1.2306         estimate D2E/DX2                !
 ! R2    R(2,3)                  1.3462         estimate D2E/DX2                !
 ! R3    R(2,13)                 1.5137         estimate D2E/DX2                !
 ! R4    R(3,4)                  1.3976         estimate D2E/DX2                !
 ! R5    R(3,28)                 1.0026         estimate D2E/DX2                !
 ! R6    R(4,5)                  1.3563         estimate D2E/DX2                !
 ! R7    R(4,12)                 1.4036         estimate D2E/DX2                !
 ! R8    R(5,6)                  1.3563         estimate D2E/DX2                !
 ! R9    R(6,7)                  1.3949         estimate D2E/DX2                !
 ! R10   R(6,29)                 1.0806         estimate D2E/DX2                !
 ! R11   R(7,8)                  1.3975         estimate D2E/DX2                !
 ! R12   R(7,30)                 1.0797         estimate D2E/DX2                !
 ! R13   R(8,9)                  1.5249         estimate D2E/DX2                !
 ! R14   R(8,12)                 1.4003         estimate D2E/DX2                !
 ! R15   R(9,10)                 1.5144         estimate D2E/DX2                !
 ! R16   R(9,11)                 1.5144         estimate D2E/DX2                !
 ! R17   R(9,31)                 1.0917         estimate D2E/DX2                !
 ! R18   R(10,11)                1.5144         estimate D2E/DX2                !
 ! R19   R(10,32)                1.0916         estimate D2E/DX2                !
 ! R20   R(10,33)                1.0908         estimate D2E/DX2                !
 ! R21   R(11,34)                1.0908         estimate D2E/DX2                !
 ! R22   R(11,35)                1.0914         estimate D2E/DX2                !
 ! R23   R(12,36)                1.0773         estimate D2E/DX2                !
 ! R24   R(13,14)                1.4054         estimate D2E/DX2                !
 ! R25   R(13,27)                1.4015         estimate D2E/DX2                !
 ! R26   R(14,15)                1.3927         estimate D2E/DX2                !
 ! R27   R(14,37)                1.0809         estimate D2E/DX2                !
 ! R28   R(15,16)                1.3957         estimate D2E/DX2                !
 ! R29   R(15,38)                1.0811         estimate D2E/DX2                !
 ! R30   R(16,17)                1.5832         estimate D2E/DX2                !
 ! R31   R(16,26)                1.3956         estimate D2E/DX2                !
 ! R32   R(17,18)                1.3766         estimate D2E/DX2                !
 ! R33   R(17,25)                1.3769         estimate D2E/DX2                !
 ! R34   R(18,19)                1.4157         estimate D2E/DX2                !
 ! R35   R(19,20)                1.5421         estimate D2E/DX2                !
 ! R36   R(19,21)                1.5492         estimate D2E/DX2                !
 ! R37   R(19,22)                1.5726         estimate D2E/DX2                !
 ! R38   R(20,39)                1.0902         estimate D2E/DX2                !
 ! R39   R(20,40)                1.0896         estimate D2E/DX2                !
 ! R40   R(20,41)                1.0906         estimate D2E/DX2                !
 ! R41   R(21,42)                1.0896         estimate D2E/DX2                !
 ! R42   R(21,43)                1.0908         estimate D2E/DX2                !
 ! R43   R(21,44)                1.0907         estimate D2E/DX2                !
 ! R44   R(22,23)                1.5492         estimate D2E/DX2                !
 ! R45   R(22,24)                1.542          estimate D2E/DX2                !
 ! R46   R(22,25)                1.4159         estimate D2E/DX2                !
 ! R47   R(23,45)                1.0896         estimate D2E/DX2                !
 ! R48   R(23,46)                1.0909         estimate D2E/DX2                !
 ! R49   R(23,47)                1.0906         estimate D2E/DX2                !
 ! R50   R(24,48)                1.0897         estimate D2E/DX2                !
 ! R51   R(24,49)                1.0906         estimate D2E/DX2                !
 ! R52   R(24,50)                1.09           estimate D2E/DX2                !
 ! R53   R(26,27)                1.3922         estimate D2E/DX2                !
 ! R54   R(26,51)                1.081          estimate D2E/DX2                !
 ! R55   R(27,52)                1.0825         estimate D2E/DX2                !
 ! A1    A(1,2,3)              124.8766         estimate D2E/DX2                !
 ! A2    A(1,2,13)             120.1057         estimate D2E/DX2                !
 ! A3    A(3,2,13)             114.9874         estimate D2E/DX2                !
 ! A4    A(2,3,4)              130.5595         estimate D2E/DX2                !
 ! A5    A(2,3,28)             115.5172         estimate D2E/DX2                !
 ! A6    A(4,3,28)             113.9014         estimate D2E/DX2                !
 ! A7    A(3,4,5)              113.0268         estimate D2E/DX2                !
 ! A8    A(3,4,12)             125.0658         estimate D2E/DX2                !
 ! A9    A(5,4,12)             121.9061         estimate D2E/DX2                !
 ! A10   A(4,5,6)              118.4709         estimate D2E/DX2                !
 ! A11   A(5,6,7)              122.7751         estimate D2E/DX2                !
 ! A12   A(5,6,29)             116.3402         estimate D2E/DX2                !
 ! A13   A(7,6,29)             120.8847         estimate D2E/DX2                !
 ! A14   A(6,7,8)              118.8602         estimate D2E/DX2                !
 ! A15   A(6,7,30)             120.324          estimate D2E/DX2                !
 ! A16   A(8,7,30)             120.8157         estimate D2E/DX2                !
 ! A17   A(7,8,9)              119.7856         estimate D2E/DX2                !
 ! A18   A(7,8,12)             118.7671         estimate D2E/DX2                !
 ! A19   A(9,8,12)             121.4474         estimate D2E/DX2                !
 ! A20   A(8,9,10)             122.4698         estimate D2E/DX2                !
 ! A21   A(8,9,11)             122.4911         estimate D2E/DX2                !
 ! A22   A(8,9,31)             112.5937         estimate D2E/DX2                !
 ! A23   A(10,9,31)            114.8939         estimate D2E/DX2                !
 ! A24   A(11,9,31)            114.898          estimate D2E/DX2                !
 ! A25   A(9,10,32)            118.7613         estimate D2E/DX2                !
 ! A26   A(9,10,33)            118.3812         estimate D2E/DX2                !
 ! A27   A(11,10,32)           119.4908         estimate D2E/DX2                !
 ! A28   A(11,10,33)           119.4145         estimate D2E/DX2                !
 ! A29   A(32,10,33)           111.8653         estimate D2E/DX2                !
 ! A30   A(9,11,34)            118.3823         estimate D2E/DX2                !
 ! A31   A(9,11,35)            118.788          estimate D2E/DX2                !
 ! A32   A(10,11,34)           119.3949         estimate D2E/DX2                !
 ! A33   A(10,11,35)           119.4733         estimate D2E/DX2                !
 ! A34   A(34,11,35)           111.8723         estimate D2E/DX2                !
 ! A35   A(4,12,8)             119.2201         estimate D2E/DX2                !
 ! A36   A(4,12,36)            121.6091         estimate D2E/DX2                !
 ! A37   A(8,12,36)            119.1707         estimate D2E/DX2                !
 ! A38   A(2,13,14)            121.7122         estimate D2E/DX2                !
 ! A39   A(2,13,27)            119.4647         estimate D2E/DX2                !
 ! A40   A(14,13,27)           118.8161         estimate D2E/DX2                !
 ! A41   A(13,14,15)           120.3633         estimate D2E/DX2                !
 ! A42   A(13,14,37)           121.5286         estimate D2E/DX2                !
 ! A43   A(15,14,37)           118.0983         estimate D2E/DX2                !
 ! A44   A(14,15,16)           120.4394         estimate D2E/DX2                !
 ! A45   A(14,15,38)           119.8698         estimate D2E/DX2                !
 ! A46   A(16,15,38)           119.6895         estimate D2E/DX2                !
 ! A47   A(15,16,17)           120.2643         estimate D2E/DX2                !
 ! A48   A(15,16,26)           119.4496         estimate D2E/DX2                !
 ! A49   A(17,16,26)           120.2854         estimate D2E/DX2                !
 ! A50   A(16,17,18)           124.2727         estimate D2E/DX2                !
 ! A51   A(16,17,25)           124.2307         estimate D2E/DX2                !
 ! A52   A(18,17,25)           111.4966         estimate D2E/DX2                !
 ! A53   A(17,18,19)           107.31           estimate D2E/DX2                !
 ! A54   A(18,19,20)           107.006          estimate D2E/DX2                !
 ! A55   A(18,19,21)           105.5947         estimate D2E/DX2                !
 ! A56   A(18,19,22)           101.5925         estimate D2E/DX2                !
 ! A57   A(20,19,21)           110.458          estimate D2E/DX2                !
 ! A58   A(20,19,22)           115.3            estimate D2E/DX2                !
 ! A59   A(21,19,22)           115.6256         estimate D2E/DX2                !
 ! A60   A(19,20,39)           112.0983         estimate D2E/DX2                !
 ! A61   A(19,20,40)           111.0601         estimate D2E/DX2                !
 ! A62   A(19,20,41)           111.3105         estimate D2E/DX2                !
 ! A63   A(39,20,40)           107.8099         estimate D2E/DX2                !
 ! A64   A(39,20,41)           106.5424         estimate D2E/DX2                !
 ! A65   A(40,20,41)           107.7876         estimate D2E/DX2                !
 ! A66   A(19,21,42)           111.3036         estimate D2E/DX2                !
 ! A67   A(19,21,43)           111.8206         estimate D2E/DX2                !
 ! A68   A(19,21,44)           111.4133         estimate D2E/DX2                !
 ! A69   A(42,21,43)           107.6915         estimate D2E/DX2                !
 ! A70   A(42,21,44)           107.4205         estimate D2E/DX2                !
 ! A71   A(43,21,44)           106.9525         estimate D2E/DX2                !
 ! A72   A(19,22,23)           115.6191         estimate D2E/DX2                !
 ! A73   A(19,22,24)           115.2925         estimate D2E/DX2                !
 ! A74   A(19,22,25)           101.5845         estimate D2E/DX2                !
 ! A75   A(23,22,24)           110.4589         estimate D2E/DX2                !
 ! A76   A(23,22,25)           105.6069         estimate D2E/DX2                !
 ! A77   A(24,22,25)           107.0184         estimate D2E/DX2                !
 ! A78   A(22,23,45)           111.2998         estimate D2E/DX2                !
 ! A79   A(22,23,46)           111.8188         estimate D2E/DX2                !
 ! A80   A(22,23,47)           111.4412         estimate D2E/DX2                !
 ! A81   A(45,23,46)           107.6623         estimate D2E/DX2                !
 ! A82   A(45,23,47)           107.4255         estimate D2E/DX2                !
 ! A83   A(46,23,47)           106.9531         estimate D2E/DX2                !
 ! A84   A(22,24,48)           111.0382         estimate D2E/DX2                !
 ! A85   A(22,24,49)           111.3132         estimate D2E/DX2                !
 ! A86   A(22,24,50)           112.1114         estimate D2E/DX2                !
 ! A87   A(48,24,49)           107.779          estimate D2E/DX2                !
 ! A88   A(48,24,50)           107.8001         estimate D2E/DX2                !
 ! A89   A(49,24,50)           106.5676         estimate D2E/DX2                !
 ! A90   A(17,25,22)           107.2639         estimate D2E/DX2                !
 ! A91   A(16,26,27)           120.3448         estimate D2E/DX2                !
 ! A92   A(16,26,51)           119.9389         estimate D2E/DX2                !
 ! A93   A(27,26,51)           119.716          estimate D2E/DX2                !
 ! A94   A(13,27,26)           120.5797         estimate D2E/DX2                !
 ! A95   A(13,27,52)           120.3769         estimate D2E/DX2                !
 ! A96   A(26,27,52)           119.0434         estimate D2E/DX2                !
 ! D1    D(1,2,3,4)              3.187          estimate D2E/DX2                !
 ! D2    D(1,2,3,28)          -174.982          estimate D2E/DX2                !
 ! D3    D(13,2,3,4)          -178.8254         estimate D2E/DX2                !
 ! D4    D(13,2,3,28)            3.0056         estimate D2E/DX2                !
 ! D5    D(1,2,13,14)         -151.9959         estimate D2E/DX2                !
 ! D6    D(1,2,13,27)           27.0298         estimate D2E/DX2                !
 ! D7    D(3,2,13,14)           29.9124         estimate D2E/DX2                !
 ! D8    D(3,2,13,27)         -151.0619         estimate D2E/DX2                !
 ! D9    D(2,3,4,5)           -177.2684         estimate D2E/DX2                !
 ! D10   D(2,3,4,12)             3.1459         estimate D2E/DX2                !
 ! D11   D(28,3,4,5)             0.9242         estimate D2E/DX2                !
 ! D12   D(28,3,4,12)         -178.6615         estimate D2E/DX2                !
 ! D13   D(3,4,5,6)           -179.8784         estimate D2E/DX2                !
 ! D14   D(12,4,5,6)            -0.2778         estimate D2E/DX2                !
 ! D15   D(3,4,12,8)           179.8092         estimate D2E/DX2                !
 ! D16   D(3,4,12,36)           -0.0663         estimate D2E/DX2                !
 ! D17   D(5,4,12,8)             0.2583         estimate D2E/DX2                !
 ! D18   D(5,4,12,36)         -179.6171         estimate D2E/DX2                !
 ! D19   D(4,5,6,7)              0.1314         estimate D2E/DX2                !
 ! D20   D(4,5,6,29)          -179.8502         estimate D2E/DX2                !
 ! D21   D(5,6,7,8)              0.0328         estimate D2E/DX2                !
 ! D22   D(5,6,7,30)          -179.9845         estimate D2E/DX2                !
 ! D23   D(29,6,7,8)          -179.9864         estimate D2E/DX2                !
 ! D24   D(29,6,7,30)           -0.0037         estimate D2E/DX2                !
 ! D25   D(6,7,8,9)            179.943          estimate D2E/DX2                !
 ! D26   D(6,7,8,12)            -0.053          estimate D2E/DX2                !
 ! D27   D(30,7,8,9)            -0.0396         estimate D2E/DX2                !
 ! D28   D(30,7,8,12)          179.9644         estimate D2E/DX2                !
 ! D29   D(7,8,9,10)           143.7306         estimate D2E/DX2                !
 ! D30   D(7,8,9,11)          -143.5713         estimate D2E/DX2                !
 ! D31   D(7,8,9,31)             0.1003         estimate D2E/DX2                !
 ! D32   D(12,8,9,10)          -36.2735         estimate D2E/DX2                !
 ! D33   D(12,8,9,11)           36.4246         estimate D2E/DX2                !
 ! D34   D(12,8,9,31)         -179.9037         estimate D2E/DX2                !
 ! D35   D(7,8,12,4)            -0.0857         estimate D2E/DX2                !
 ! D36   D(7,8,12,36)          179.7928         estimate D2E/DX2                !
 ! D37   D(9,8,12,4)           179.9183         estimate D2E/DX2                !
 ! D38   D(9,8,12,36)           -0.2032         estimate D2E/DX2                !
 ! D39   D(8,9,10,32)            2.2176         estimate D2E/DX2                !
 ! D40   D(8,9,10,33)         -138.9899         estimate D2E/DX2                !
 ! D41   D(31,9,10,32)         145.0922         estimate D2E/DX2                !
 ! D42   D(31,9,10,33)           3.8848         estimate D2E/DX2                !
 ! D43   D(8,9,11,34)          139.0484         estimate D2E/DX2                !
 ! D44   D(8,9,11,35)           -2.2156         estimate D2E/DX2                !
 ! D45   D(31,9,11,34)          -3.8674         estimate D2E/DX2                !
 ! D46   D(31,9,11,35)        -145.1314         estimate D2E/DX2                !
 ! D47   D(32,10,11,34)       -144.0904         estimate D2E/DX2                !
 ! D48   D(32,10,11,35)         -0.0401         estimate D2E/DX2                !
 ! D49   D(33,10,11,34)          0.0099         estimate D2E/DX2                !
 ! D50   D(33,10,11,35)        144.0602         estimate D2E/DX2                !
 ! D51   D(2,13,14,15)         179.9349         estimate D2E/DX2                !
 ! D52   D(2,13,14,37)           1.0977         estimate D2E/DX2                !
 ! D53   D(27,13,14,15)          0.903          estimate D2E/DX2                !
 ! D54   D(27,13,14,37)       -177.9341         estimate D2E/DX2                !
 ! D55   D(2,13,27,26)         179.9995         estimate D2E/DX2                !
 ! D56   D(2,13,27,52)           0.0            estimate D2E/DX2                !
 ! D57   D(14,13,27,26)         -0.9464         estimate D2E/DX2                !
 ! D58   D(14,13,27,52)        179.054          estimate D2E/DX2                !
 ! D59   D(13,14,15,16)         -0.2806         estimate D2E/DX2                !
 ! D60   D(13,14,15,38)       -179.8613         estimate D2E/DX2                !
 ! D61   D(37,14,15,16)        178.5957         estimate D2E/DX2                !
 ! D62   D(37,14,15,38)         -0.985          estimate D2E/DX2                !
 ! D63   D(14,15,16,17)        179.9904         estimate D2E/DX2                !
 ! D64   D(14,15,16,26)         -0.3128         estimate D2E/DX2                !
 ! D65   D(38,15,16,17)         -0.4282         estimate D2E/DX2                !
 ! D66   D(38,15,16,26)        179.2687         estimate D2E/DX2                !
 ! D67   D(15,16,17,18)        179.8152         estimate D2E/DX2                !
 ! D68   D(15,16,17,25)         -0.1929         estimate D2E/DX2                !
 ! D69   D(26,16,17,18)          0.1209         estimate D2E/DX2                !
 ! D70   D(26,16,17,25)       -179.8872         estimate D2E/DX2                !
 ! D71   D(15,16,26,27)          0.2711         estimate D2E/DX2                !
 ! D72   D(15,16,26,51)       -179.5293         estimate D2E/DX2                !
 ! D73   D(17,16,26,27)        179.9679         estimate D2E/DX2                !
 ! D74   D(17,16,26,51)          0.1675         estimate D2E/DX2                !
 ! D75   D(16,17,18,19)        168.7817         estimate D2E/DX2                !
 ! D76   D(25,17,18,19)        -11.2112         estimate D2E/DX2                !
 ! D77   D(16,17,25,22)        168.4906         estimate D2E/DX2                !
 ! D78   D(18,17,25,22)        -11.5166         estimate D2E/DX2                !
 ! D79   D(17,18,19,20)        147.6337         estimate D2E/DX2                !
 ! D80   D(17,18,19,21)        -94.6667         estimate D2E/DX2                !
 ! D81   D(17,18,19,22)         26.3723         estimate D2E/DX2                !
 ! D82   D(18,19,20,39)        -54.2371         estimate D2E/DX2                !
 ! D83   D(18,19,20,40)       -174.9066         estimate D2E/DX2                !
 ! D84   D(18,19,20,41)         64.9879         estimate D2E/DX2                !
 ! D85   D(21,19,20,39)       -168.7024         estimate D2E/DX2                !
 ! D86   D(21,19,20,40)         70.6281         estimate D2E/DX2                !
 ! D87   D(21,19,20,41)        -49.4774         estimate D2E/DX2                !
 ! D88   D(22,19,20,39)         57.9112         estimate D2E/DX2                !
 ! D89   D(22,19,20,40)        -62.7583         estimate D2E/DX2                !
 ! D90   D(22,19,20,41)        177.1362         estimate D2E/DX2                !
 ! D91   D(18,19,21,42)       -177.6229         estimate D2E/DX2                !
 ! D92   D(18,19,21,43)         61.8804         estimate D2E/DX2                !
 ! D93   D(18,19,21,44)        -57.749          estimate D2E/DX2                !
 ! D94   D(20,19,21,42)        -62.2688         estimate D2E/DX2                !
 ! D95   D(20,19,21,43)        177.2345         estimate D2E/DX2                !
 ! D96   D(20,19,21,44)         57.6051         estimate D2E/DX2                !
 ! D97   D(22,19,21,42)         70.953          estimate D2E/DX2                !
 ! D98   D(22,19,21,43)        -49.5436         estimate D2E/DX2                !
 ! D99   D(22,19,21,44)       -169.173          estimate D2E/DX2                !
 ! D100  D(18,19,22,23)         81.4811         estimate D2E/DX2                !
 ! D101  D(18,19,22,24)       -147.5734         estimate D2E/DX2                !
 ! D102  D(18,19,22,25)        -32.2767         estimate D2E/DX2                !
 ! D103  D(20,19,22,23)        -33.8091         estimate D2E/DX2                !
 ! D104  D(20,19,22,24)         97.1364         estimate D2E/DX2                !
 ! D105  D(20,19,22,25)       -147.5669         estimate D2E/DX2                !
 ! D106  D(21,19,22,23)       -164.7679         estimate D2E/DX2                !
 ! D107  D(21,19,22,24)        -33.8224         estimate D2E/DX2                !
 ! D108  D(21,19,22,25)         81.4743         estimate D2E/DX2                !
 ! D109  D(19,22,23,45)         70.9279         estimate D2E/DX2                !
 ! D110  D(19,22,23,46)        -49.5275         estimate D2E/DX2                !
 ! D111  D(19,22,23,47)       -169.1756         estimate D2E/DX2                !
 ! D112  D(24,22,23,45)        -62.2776         estimate D2E/DX2                !
 ! D113  D(24,22,23,46)        177.2671         estimate D2E/DX2                !
 ! D114  D(24,22,23,47)         57.619          estimate D2E/DX2                !
 ! D115  D(25,22,23,45)       -177.6533         estimate D2E/DX2                !
 ! D116  D(25,22,23,46)         61.8913         estimate D2E/DX2                !
 ! D117  D(25,22,23,47)        -57.7568         estimate D2E/DX2                !
 ! D118  D(19,22,24,48)        -62.7576         estimate D2E/DX2                !
 ! D119  D(19,22,24,49)        177.1608         estimate D2E/DX2                !
 ! D120  D(19,22,24,50)         57.8931         estimate D2E/DX2                !
 ! D121  D(23,22,24,48)         70.613          estimate D2E/DX2                !
 ! D122  D(23,22,24,49)        -49.4687         estimate D2E/DX2                !
 ! D123  D(23,22,24,50)       -168.7364         estimate D2E/DX2                !
 ! D124  D(25,22,24,48)       -174.9            estimate D2E/DX2                !
 ! D125  D(25,22,24,49)         65.0184         estimate D2E/DX2                !
 ! D126  D(25,22,24,50)        -54.2494         estimate D2E/DX2                !
 ! D127  D(19,22,25,17)         26.5446         estimate D2E/DX2                !
 ! D128  D(23,22,25,17)        -94.4885         estimate D2E/DX2                !
 ! D129  D(24,22,25,17)        147.799          estimate D2E/DX2                !
 ! D130  D(16,26,27,13)          0.3662         estimate D2E/DX2                !
 ! D131  D(16,26,27,52)       -179.6342         estimate D2E/DX2                !
 ! D132  D(51,26,27,13)       -179.8329         estimate D2E/DX2                !
 ! D133  D(51,26,27,52)          0.1666         estimate D2E/DX2                !
 --------------------------------------------------------------------------------
 Trust Radius=3.00D-01 FncErr=1.00D-07 GrdErr=1.00D-06 EigMax=2.50D+02 EigMin=1.00D-04
 Number of steps in this run=    294 maximum allowed number of steps=    312.
 GradGradGradGradGradGradGradGradGradGradGradGradGradGradGradGradGradGrad

 Stoichiometry    C21H25BN2O3
 Framework group  C1[X(C21H25BN2O3)]
 Deg. of freedom   150
 Full point group                 C1      NOp   1
 Largest Abelian subgroup         C1      NOp   1
 Largest concise Abelian subgroup C1      NOp   1
                         Standard orientation:                         
 ---------------------------------------------------------------------
 Center     Atomic      Atomic             Coordinates (Angstroms)
 Number     Number       Type             X           Y           Z
 ---------------------------------------------------------------------
      1          8           0       -2.523411   -1.597635    0.140430
      2          6           0       -1.995878   -0.492355    0.020311
      3          7           0       -2.662326    0.662885   -0.162501
      4          6           0       -4.034807    0.923898   -0.201658
      5          7           0       -4.320444    2.222667   -0.468232
      6          6           0       -5.622058    2.599017   -0.529532
      7          6           0       -6.676071    1.707948   -0.327537
      8          6           0       -6.384229    0.369865   -0.049264
      9          6           0       -7.520174   -0.622100    0.176448
     10          6           0       -7.449358   -2.059977   -0.293625
     11          6           0       -7.430004   -1.745809    1.187689
     12          6           0       -5.043220   -0.028000    0.015554
     13          6           0       -0.487455   -0.366331    0.026071
     14          6           0        0.154412    0.804359    0.465092
     15          6           0        1.544536    0.889367    0.459700
     16          6           0        2.317167   -0.188247    0.024088
     17          5           0        3.897137   -0.087024    0.019485
     18          8           0        4.737505   -1.098102   -0.388478
     19          6           0        6.037471   -0.547791   -0.495890
     20          6           0        7.032943   -1.668320   -0.133419
     21          6           0        6.196515   -0.142238   -1.982610
     22          6           0        5.962577    0.642218    0.529432
     23          6           0        6.173073    0.259911    2.015927
     24          6           0        6.808560    1.879190    0.166026
     25          8           0        4.603293    1.024017    0.423106
     26          6           0        1.685615   -1.357772   -0.401292
     27          6           0        0.296359   -1.448367   -0.397125
     28          1           0       -2.090473    1.470900   -0.321462
     29          1           0       -5.810248    3.640772   -0.746476
     30          1           0       -7.698273    2.050533   -0.385831
     31          1           0       -8.504940   -0.158631    0.090949
     32          1           0       -6.537040   -2.408927   -0.780896
     33          1           0       -8.341693   -2.505687   -0.735112
     34          1           0       -8.308781   -1.969533    1.793976
     35          1           0       -6.504072   -1.872518    1.751462
     36          1           0       -4.810783   -1.057224    0.232960
     37          1           0       -0.406082    1.652721    0.831767
     38          1           0        2.030043    1.792930    0.801256
     39          1           0        6.816348   -2.110508    0.839206
     40          1           0        8.054868   -1.291044   -0.107874
     41          1           0        6.996019   -2.481377   -0.859322
     42          1           0        7.190489    0.258445   -2.179497
     43          1           0        5.469365    0.615993   -2.276049
     44          1           0        6.051233   -0.995777   -2.645934
     45          1           0        7.209787   -0.012516    2.211564
     46          1           0        5.547899   -0.584304    2.309886
     47          1           0        5.922084    1.087899    2.679914
     48          1           0        7.869805    1.633300    0.139664
     49          1           0        6.670475    2.681075    0.892120
     50          1           0        6.537516    2.290353   -0.806439
     51          1           0        2.276555   -2.199995   -0.733094
     52          1           0       -0.171340   -2.367662   -0.725824
 ---------------------------------------------------------------------
 Rotational constants (GHZ):           0.6259329           0.0530851           0.0508312
 Standard basis: 6-31G(d,p) (6D, 7F)
 There are   530 symmetry adapted cartesian basis functions of A   symmetry.
 There are   530 symmetry adapted basis functions of A   symmetry.
   530 basis functions,   931 primitive gaussians,   530 cartesian basis functions
    97 alpha electrons       97 beta electrons
       nuclear repulsion energy      2231.6476472240 Hartrees.
 NAtoms=   52 NActive=   52 NUniq=   52 SFac= 1.00D+00 NAtFMM=   60 NAOKFM=F Big=F
 Integral buffers will be    131072 words long.
 Raffenetti 2 integral format.
 Two-electron integral symmetry is turned on.
 Nuclear repulsion after empirical dispersion term =     2231.5411956563 Hartrees.
 One-electron integrals computed using PRISM.
 NBasis=   530 RedAO= T EigKep=  4.37D-04  NBF=   530
 NBsUse=   530 1.00D-06 EigRej= -1.00D+00 NBFU=   530
 ExpMin= 1.27D-01 ExpMax= 5.48D+03 ExpMxC= 8.25D+02 IAcc=3 IRadAn=         5 AccDes= 0.00D+00
 Harris functional with IExCor=  402 and IRadAn=       5 diagonalized for initial guess.
 HarFok:  IExCor=  402 AccDes= 0.00D+00 IRadAn=         5 IDoV= 1 UseB2=F ITyADJ=14
 ICtDFT=  3500011 ScaDFX=  1.000000  1.000000  1.000000  1.000000
 FoFCou: FMM=F IPFlag=           0 FMFlag=      100000 FMFlg1=           0
         NFxFlg=           0 DoJE=T BraDBF=F KetDBF=T FulRan=T
         wScrn=  0.000000 ICntrl=       500 IOpCl=  0 I1Cent=   200000004 NGrid=           0
         NMat0=    1 NMatS0=      1 NMatT0=    0 NMatD0=    1 NMtDS0=    0 NMtDT0=    0
 Petite list used in FoFCou.
 Requested convergence on RMS density matrix=1.00D-08 within 128 cycles.
 Requested convergence on MAX density matrix=1.00D-06.
 Requested convergence on             energy=1.00D-06.
 No special actions if energy rises.
 Integral accuracy reduced to 1.0D-05 until final iterations.
 Initial convergence to 1.0D-05 achieved.  Increase integral accuracy.
 SCF Done:  E(RB3LYP) =  -1175.58051171     A.U. after   15 cycles
            NFock= 15  Conv=0.50D-08     -V/T= 2.0096

 **********************************************************************

            Population analysis using the SCF Density.

 **********************************************************************

 Orbital symmetries:
       Occupied  (A) (A) (A) (A) (A) (A) (A) (A) (A) (A) (A) (A)
                 (A) (A) (A) (A) (A) (A) (A) (A) (A) (A) (A) (A)
                 (A) (A) (A) (A) (A) (A) (A) (A) (A) (A) (A) (A)
                 (A) (A) (A) (A) (A) (A) (A) (A) (A) (A) (A) (A)
                 (A) (A) (A) (A) (A) (A) (A) (A) (A) (A) (A) (A)
                 (A) (A) (A) (A) (A) (A) (A) (A) (A) (A) (A) (A)
                 (A) (A) (A) (A) (A) (A) (A) (A) (A) (A) (A) (A)
                 (A) (A) (A) (A) (A) (A) (A) (A) (A) (A) (A) (A)
                 (A)
       Virtual   (A) (A) (A) (A) (A) (A) (A) (A) (A) (A) (A) (A)
                 (A) (A) (A) (A) (A) (A) (A) (A) (A) (A) (A) (A)
                 (A) (A) (A) (A) (A) (A) (A) (A) (A) (A) (A) (A)
                 (A) (A) (A) (A) (A) (A) (A) (A) (A) (A) (A) (A)
                 (A) (A) (A) (A) (A) (A) (A) (A) (A) (A) (A) (A)
                 (A) (A) (A) (A) (A) (A) (A) (A) (A) (A) (A) (A)
                 (A) (A) (A) (A) (A) (A) (A) (A) (A) (A) (A) (A)
                 (A) (A) (A) (A) (A) (A) (A) (A) (A) (A) (A) (A)
                 (A) (A) (A) (A) (A) (A) (A) (A) (A) (A) (A) (A)
                 (A) (A) (A) (A) (A) (A) (A) (A) (A) (A) (A) (A)
                 (A) (A) (A) (A) (A) (A) (A) (A) (A) (A) (A) (A)
                 (A) (A) (A) (A) (A) (A) (A) (A) (A) (A) (A) (A)
                 (A) (A) (A) (A) (A) (A) (A) (A) (A) (A) (A) (A)
                 (A) (A) (A) (A) (A) (A) (A) (A) (A) (A) (A) (A)
                 (A) (A) (A) (A) (A) (A) (A) (A) (A) (A) (A) (A)
                 (A) (A) (A) (A) (A) (A) (A) (A) (A) (A) (A) (A)
                 (A) (A) (A) (A) (A) (A) (A) (A) (A) (A) (A) (A)
                 (A) (A) (A) (A) (A) (A) (A) (A) (A) (A) (A) (A)
                 (A) (A) (A) (A) (A) (A) (A) (A) (A) (A) (A) (A)
                 (A) (A) (A) (A) (A) (A) (A) (A) (A) (A) (A) (A)
                 (A) (A) (A) (A) (A) (A) (A) (A) (A) (A) (A) (A)
                 (A) (A) (A) (A) (A) (A) (A) (A) (A) (A) (A) (A)
                 (A) (A) (A) (A) (A) (A) (A) (A) (A) (A) (A) (A)
                 (A) (A) (A) (A) (A) (A) (A) (A) (A) (A) (A) (A)
                 (A) (A) (A) (A) (A) (A) (A) (A) (A) (A) (A) (A)
                 (A) (A) (A) (A) (A) (A) (A) (A) (A) (A) (A) (A)
                 (A) (A) (A) (A) (A) (A) (A) (A) (A) (A) (A) (A)
                 (A) (A) (A) (A) (A) (A) (A) (A) (A) (A) (A) (A)
                 (A) (A) (A) (A) (A) (A) (A) (A) (A) (A) (A) (A)
                 (A) (A) (A) (A) (A) (A) (A) (A) (A) (A) (A) (A)
                 (A) (A) (A) (A) (A) (A) (A) (A) (A) (A) (A) (A)
                 (A) (A) (A) (A) (A) (A) (A) (A) (A) (A) (A) (A)
                 (A) (A) (A) (A) (A) (A) (A) (A) (A) (A) (A) (A)
                 (A) (A) (A) (A) (A) (A) (A) (A) (A) (A) (A) (A)
                 (A) (A) (A) (A) (A) (A) (A) (A) (A) (A) (A) (A)
                 (A) (A) (A) (A) (A) (A) (A) (A) (A) (A) (A) (A)
                 (A)
 The electronic state is 1-A.
 Alpha  occ. eigenvalues --  -19.15143 -19.15136 -19.11519 -14.37577 -14.32702
 Alpha  occ. eigenvalues --  -10.29253 -10.26649 -10.25452 -10.25433 -10.22285
 Alpha  occ. eigenvalues --  -10.21350 -10.20621 -10.20531 -10.19889 -10.19428
 Alpha  occ. eigenvalues --  -10.19397 -10.19322 -10.19222 -10.19096 -10.18835
 Alpha  occ. eigenvalues --  -10.18789 -10.18172 -10.18146 -10.18145 -10.18144
 Alpha  occ. eigenvalues --  -10.17790  -6.77960  -1.07484  -1.03722  -1.00295
 Alpha  occ. eigenvalues --   -0.96564  -0.90869  -0.86275  -0.85687  -0.80009
 Alpha  occ. eigenvalues --   -0.79305  -0.77016  -0.75136  -0.74759  -0.74355
 Alpha  occ. eigenvalues --   -0.70830  -0.68597  -0.66625  -0.65191  -0.62934
 Alpha  occ. eigenvalues --   -0.61252  -0.60627  -0.60316  -0.58383  -0.57879
 Alpha  occ. eigenvalues --   -0.56125  -0.54760  -0.53735  -0.51568  -0.49656
 Alpha  occ. eigenvalues --   -0.48848  -0.48163  -0.47450  -0.46320  -0.45696
 Alpha  occ. eigenvalues --   -0.45419  -0.44833  -0.44591  -0.44145  -0.43909
 Alpha  occ. eigenvalues --   -0.43410  -0.42560  -0.42170  -0.40720  -0.40667
 Alpha  occ. eigenvalues --   -0.40204  -0.40033  -0.39148  -0.38810  -0.37971
 Alpha  occ. eigenvalues --   -0.37850  -0.37362  -0.36980  -0.36582  -0.36301
 Alpha  occ. eigenvalues --   -0.35941  -0.35896  -0.34658  -0.33404  -0.33205
 Alpha  occ. eigenvalues --   -0.32749  -0.32660  -0.31079  -0.30013  -0.29870
 Alpha  occ. eigenvalues --   -0.27144  -0.26235  -0.25840  -0.25580  -0.25383
 Alpha  occ. eigenvalues --   -0.24528  -0.22854
 Alpha virt. eigenvalues --   -0.04956  -0.01924  -0.00596  -0.00330   0.04899
 Alpha virt. eigenvalues --    0.07287   0.08738   0.09484   0.09646   0.11037
 Alpha virt. eigenvalues --    0.11260   0.12350   0.12557   0.12990   0.13235
 Alpha virt. eigenvalues --    0.13342   0.13413   0.13990   0.15135   0.15198
 Alpha virt. eigenvalues --    0.15538   0.15669   0.15763   0.16101   0.17552
 Alpha virt. eigenvalues --    0.17657   0.17728   0.18101   0.18638   0.19021
 Alpha virt. eigenvalues --    0.19402   0.19544   0.20548   0.20887   0.21736
 Alpha virt. eigenvalues --    0.21852   0.22203   0.22657   0.22894   0.24080
 Alpha virt. eigenvalues --    0.24403   0.24696   0.25891   0.26745   0.27007
 Alpha virt. eigenvalues --    0.28694   0.28852   0.29760   0.30622   0.31238
 Alpha virt. eigenvalues --    0.32346   0.32623   0.34277   0.34726   0.35930
 Alpha virt. eigenvalues --    0.38003   0.38448   0.39685   0.43028   0.43999
 Alpha virt. eigenvalues --    0.45750   0.46141   0.47512   0.48177   0.49206
 Alpha virt. eigenvalues --    0.49682   0.51095   0.51326   0.52391   0.52688
 Alpha virt. eigenvalues --    0.53569   0.54076   0.54337   0.55428   0.55854
 Alpha virt. eigenvalues --    0.55968   0.56319   0.56667   0.57155   0.57806
 Alpha virt. eigenvalues --    0.57962   0.58561   0.59177   0.59398   0.59518
 Alpha virt. eigenvalues --    0.59808   0.60606   0.60753   0.60822   0.61402
 Alpha virt. eigenvalues --    0.61559   0.62848   0.63162   0.63754   0.64010
 Alpha virt. eigenvalues --    0.64475   0.65447   0.65800   0.66159   0.66843
 Alpha virt. eigenvalues --    0.67076   0.69085   0.70310   0.70469   0.70841
 Alpha virt. eigenvalues --    0.71716   0.72850   0.73579   0.73665   0.75006
 Alpha virt. eigenvalues --    0.75575   0.75948   0.76667   0.77990   0.78932
 Alpha virt. eigenvalues --    0.79882   0.80419   0.80646   0.80962   0.81477
 Alpha virt. eigenvalues --    0.82100   0.82397   0.82974   0.83262   0.84423
 Alpha virt. eigenvalues --    0.84634   0.84830   0.85243   0.85700   0.86388
 Alpha virt. eigenvalues --    0.87438   0.87517   0.87749   0.88428   0.88521
 Alpha virt. eigenvalues --    0.89026   0.89236   0.89353   0.91334   0.91861
 Alpha virt. eigenvalues --    0.92636   0.92979   0.93548   0.93711   0.93980
 Alpha virt. eigenvalues --    0.94396   0.95265   0.95919   0.96024   0.98282
 Alpha virt. eigenvalues --    0.98717   0.99143   0.99473   1.01208   1.02252
 Alpha virt. eigenvalues --    1.02752   1.03603   1.04794   1.05463   1.07927
 Alpha virt. eigenvalues --    1.08900   1.10146   1.10649   1.11114   1.13468
 Alpha virt. eigenvalues --    1.14317   1.15875   1.17039   1.17710   1.19276
 Alpha virt. eigenvalues --    1.20277   1.20431   1.21689   1.22395   1.23061
 Alpha virt. eigenvalues --    1.23945   1.25638   1.28301   1.28689   1.29472
 Alpha virt. eigenvalues --    1.30843   1.31652   1.32642   1.33885   1.34488
 Alpha virt. eigenvalues --    1.35130   1.36968   1.37462   1.37967   1.39303
 Alpha virt. eigenvalues --    1.40113   1.40427   1.40800   1.42174   1.42886
 Alpha virt. eigenvalues --    1.44315   1.44944   1.45345   1.46141   1.47322
 Alpha virt. eigenvalues --    1.47977   1.48908   1.49488   1.51957   1.52867
 Alpha virt. eigenvalues --    1.55703   1.56598   1.58306   1.59551   1.60553
 Alpha virt. eigenvalues --    1.60667   1.61777   1.65548   1.66740   1.69165
 Alpha virt. eigenvalues --    1.69360   1.70419   1.71972   1.72426   1.73402
 Alpha virt. eigenvalues --    1.74167   1.74441   1.75379   1.76882   1.77468
 Alpha virt. eigenvalues --    1.77855   1.78734   1.79271   1.80286   1.81509
 Alpha virt. eigenvalues --    1.82524   1.83516   1.84481   1.85322   1.85522
 Alpha virt. eigenvalues --    1.86966   1.87192   1.87577   1.89241   1.89716
 Alpha virt. eigenvalues --    1.91169   1.91358   1.92647   1.92807   1.93716
 Alpha virt. eigenvalues --    1.94821   1.95541   1.95929   1.96264   1.96985
 Alpha virt. eigenvalues --    2.00019   2.00938   2.01515   2.01788   2.03126
 Alpha virt. eigenvalues --    2.03576   2.03865   2.04791   2.05520   2.05917
 Alpha virt. eigenvalues --    2.06341   2.07018   2.07248   2.08288   2.09051
 Alpha virt. eigenvalues --    2.09206   2.09608   2.10804   2.10902   2.11328
 Alpha virt. eigenvalues --    2.11617   2.12173   2.13652   2.13847   2.14647
 Alpha virt. eigenvalues --    2.15048   2.15380   2.16917   2.17672   2.18654
 Alpha virt. eigenvalues --    2.20011   2.20660   2.21415   2.22828   2.23829
 Alpha virt. eigenvalues --    2.24317   2.24491   2.25303   2.25965   2.26516
 Alpha virt. eigenvalues --    2.27728   2.28559   2.29762   2.29986   2.30961
 Alpha virt. eigenvalues --    2.31017   2.31836   2.33330   2.33798   2.35646
 Alpha virt. eigenvalues --    2.36189   2.36389   2.37492   2.38246   2.38658
 Alpha virt. eigenvalues --    2.39931   2.40717   2.41244   2.42540   2.43432
 Alpha virt. eigenvalues --    2.43727   2.45085   2.45507   2.46157   2.47697
 Alpha virt. eigenvalues --    2.48389   2.48490   2.49842   2.50642   2.52446
 Alpha virt. eigenvalues --    2.52836   2.55072   2.55401   2.56742   2.57889
 Alpha virt. eigenvalues --    2.58793   2.59114   2.59281   2.60043   2.61324
 Alpha virt. eigenvalues --    2.62433   2.63246   2.64155   2.65198   2.66607
 Alpha virt. eigenvalues --    2.67362   2.67596   2.68190   2.68584   2.69477
 Alpha virt. eigenvalues --    2.70925   2.72542   2.73247   2.74655   2.74752
 Alpha virt. eigenvalues --    2.75140   2.75796   2.76853   2.78623   2.78810
 Alpha virt. eigenvalues --    2.79154   2.79733   2.81684   2.83031   2.84260
 Alpha virt. eigenvalues --    2.84449   2.84715   2.86298   2.86897   2.87879
 Alpha virt. eigenvalues --    2.88301   2.90508   2.91238   2.93255   2.94486
 Alpha virt. eigenvalues --    2.96239   2.97037   2.97852   2.99863   3.01384
 Alpha virt. eigenvalues --    3.02788   3.03532   3.06537   3.08781   3.10316
 Alpha virt. eigenvalues --    3.14068   3.18291   3.19317   3.20954   3.21572
 Alpha virt. eigenvalues --    3.22416   3.23724   3.25149   3.25469   3.26103
 Alpha virt. eigenvalues --    3.26391   3.31328   3.34145   3.35737   3.37051
 Alpha virt. eigenvalues --    3.39223   3.42538   3.42624   3.44651   3.44748
 Alpha virt. eigenvalues --    3.46242   3.47326   3.48393   3.49465   3.50280
 Alpha virt. eigenvalues --    3.51281   3.52014   3.58070   3.61261   3.71797
 Alpha virt. eigenvalues --    3.77787   3.83577   4.07646   4.10663   4.15422
 Alpha virt. eigenvalues --    4.15759   4.16231   4.17440   4.21416   4.28015
 Alpha virt. eigenvalues --    4.30123   4.31693   4.32912   4.37791   4.39038
 Alpha virt. eigenvalues --    4.43518   4.44159   4.48061   4.51156   4.53624
 Alpha virt. eigenvalues --    4.55575   4.56005   4.62405   4.65553   4.67998
 Alpha virt. eigenvalues --    4.80293   4.84131   4.85734
          Condensed to atoms (all electrons):
 Mulliken charges:
               1
     1  O   -0.517715
     2  C    0.559106
     3  N   -0.592469
     4  C    0.465820
     5  N   -0.529515
     6  C    0.102905
     7  C   -0.154621
     8  C    0.197866
     9  C   -0.156313
    10  C   -0.217617
    11  C   -0.217282
    12  C   -0.151593
    13  C    0.030291
    14  C   -0.126187
    15  C   -0.137835
    16  C    0.026152
    17  B    0.482087
    18  O   -0.472161
    19  C    0.246645
    20  C   -0.325940
    21  C   -0.319223
    22  C    0.246692
    23  C   -0.319406
    24  C   -0.325914
    25  O   -0.473437
    26  C   -0.136998
    27  C   -0.091316
    28  H    0.274382
    29  H    0.100250
    30  H    0.082944
    31  H    0.096237
    32  H    0.129006
    33  H    0.115026
    34  H    0.115052
    35  H    0.127016
    36  H    0.127810
    37  H    0.091805
    38  H    0.101924
    39  H    0.115801
    40  H    0.101919
    41  H    0.114335
    42  H    0.102199
    43  H    0.113666
    44  H    0.118079
    45  H    0.102338
    46  H    0.114506
    47  H    0.117578
    48  H    0.102142
    49  H    0.113859
    50  H    0.115360
    51  H    0.103401
    52  H    0.111340
 Sum of Mulliken charges =  -0.00000
 Mulliken charges with hydrogens summed into heavy atoms:
               1
     1  O   -0.517715
     2  C    0.559106
     3  N   -0.318088
     4  C    0.465820
     5  N   -0.529515
     6  C    0.203156
     7  C   -0.071677
     8  C    0.197866
     9  C   -0.060076
    10  C    0.026415
    11  C    0.024786
    12  C   -0.023783
    13  C    0.030291
    14  C   -0.034382
    15  C   -0.035911
    16  C    0.026152
    17  B    0.482087
    18  O   -0.472161
    19  C    0.246645
    20  C    0.006116
    21  C    0.014720
    22  C    0.246692
    23  C    0.015016
    24  C    0.005447
    25  O   -0.473437
    26  C   -0.033596
    27  C    0.020024
 Electronic spatial extent (au):  <R**2>=          20349.0537
 Charge=             -0.0000 electrons
 Dipole moment (field-independent basis, Debye):
    X=              1.8643    Y=              1.1524    Z=             -0.0316  Tot=              2.1920
 Quadrupole moment (field-independent basis, Debye-Ang):
   XX=           -110.5039   YY=           -158.9427   ZZ=           -157.4428
   XY=             -1.0171   XZ=             -0.6086   YZ=              1.7193
 Traceless Quadrupole moment (field-independent basis, Debye-Ang):
   XX=             31.7926   YY=            -16.6462   ZZ=            -15.1463
   XY=             -1.0171   XZ=             -0.6086   YZ=              1.7193
 Octapole moment (field-independent basis, Debye-Ang**2):
  XXX=            -25.4944  YYY=              5.2874  ZZZ=              3.1592  XYY=              5.5900
  XXY=              0.8274  XXZ=              4.5052  XZZ=             26.5719  YZZ=             -5.3990
  YYZ=             -4.8714  XYZ=              4.0988
 Hexadecapole moment (field-independent basis, Debye-Ang**3):
 XXXX=         -21418.4723 YYYY=          -1801.1788 ZZZZ=           -732.5615 XXXY=             66.6027
 XXXZ=            -25.5096 YYYX=            -64.8912 YYYZ=             19.4732 ZZZX=            -19.8479
 ZZZY=              4.9841 XXYY=          -4373.9969 XXZZ=          -4293.4704 YYZZ=           -416.4545
 XXYZ=            -29.9433 YYXZ=             26.9497 ZZXY=             31.9858
 N-N= 2.231541195656D+03 E-N=-7.195225334896D+03  KE= 1.164433283321D+03
 Calling FoFJK, ICntrl=      2127 FMM=F ISym2X=0 I1Cent= 0 IOpClX= 0 NMat=1 NMatS=1 NMatT=0.
 ***** Axes restored to original set *****
 -------------------------------------------------------------------
 Center     Atomic                   Forces (Hartrees/Bohr)
 Number     Number              X              Y              Z
 -------------------------------------------------------------------
      1        8           0.001812676    0.001252605    0.004577767
      2        6          -0.004052779   -0.008313659   -0.034931406
      3        7           0.003104462    0.004449121    0.015817523
      4        6           0.014043039    0.003651209    0.018126779
      5        7           0.006878115    0.000980212    0.000989721
      6        6          -0.009892501   -0.003041050   -0.024733180
      7        6          -0.005861235   -0.000962217    0.001846765
      8        6           0.013621644    0.001624055   -0.010861068
      9        6          -0.011616201   -0.001122548    0.012947661
     10        6          -0.000869777    0.000717978   -0.004914295
     11        6          -0.000325109   -0.001597140   -0.004805977
     12        6           0.001764667    0.000314746   -0.001146934
     13        6          -0.000426013    0.003012405    0.006685582
     14        6          -0.002694015   -0.003766984   -0.002586026
     15        6           0.006326304    0.001170110    0.000938114
     16        6          -0.027363873   -0.003879490   -0.006318930
     17        5           0.009522862    0.001478482    0.002584866
     18        8           0.029200244    0.005426754    0.002110434
     19        6          -0.014357053   -0.008723994   -0.017300535
     20        6          -0.002479436    0.002209571    0.005422520
     21        6          -0.008787255    0.007040334    0.002592252
     22        6          -0.022504225    0.003252484    0.008245833
     23        6          -0.004246555   -0.009032007   -0.005974894
     24        6           0.000936592   -0.002402111   -0.005919146
     25        8           0.027026492    0.003072465    0.011704778
     26        6           0.007933234    0.002151639    0.003363278
     27        6           0.000848399   -0.000588681   -0.002832280
     28        1          -0.001891607   -0.000578099    0.009787938
     29        1          -0.001972731    0.000006794    0.003849872
     30        1           0.003090792    0.000600237    0.002259427
     31        1          -0.003096786   -0.000546202   -0.001412028
     32        1          -0.001010138    0.005182513    0.002250539
     33        1          -0.001951396    0.003887338    0.001922691
     34        1          -0.000726363   -0.004019329    0.002383900
     35        1           0.000575592   -0.004880057    0.002805895
     36        1          -0.005431558   -0.001623164   -0.003517198
     37        1           0.003094600    0.002532015    0.002379340
     38        1          -0.002375935    0.001315256    0.001328690
     39        1           0.001329821    0.002732613    0.002421070
     40        1          -0.003670442   -0.000732804    0.000925650
     41        1           0.001805964   -0.002939154    0.002552754
     42        1          -0.003507508   -0.000414846    0.000368041
     43        1           0.000948112    0.002992564    0.001928909
     44        1           0.002062715    0.003268832   -0.004547316
     45        1          -0.002930408   -0.000554584   -0.001936857
     46        1           0.002482870   -0.002490273   -0.001014237
     47        1           0.000553691   -0.002840585    0.005259146
     48        1          -0.002862433   -0.000241919   -0.002526768
     49        1           0.001884287    0.003500245   -0.001607213
     50        1           0.003005318   -0.002137284   -0.001292509
     51        1          -0.001263024   -0.001866404   -0.001988380
     52        1           0.004313862    0.001472007    0.001789442
 -------------------------------------------------------------------
 Cartesian Forces:  Max     0.034931406 RMS     0.007426329

 GradGradGradGradGradGradGradGradGradGradGradGradGradGradGradGradGradGrad
 Berny optimization.
 FormGI is forming the generalized inverse of G from B-inverse, IUseBI=4.
 Internal  Forces:  Max     0.025757696 RMS     0.004594011
 Search for a local minimum.
 Step number   1 out of a maximum of  294
 All quantities printed in internal units (Hartrees-Bohrs-Radians)
 Mixed Optimization -- RFO/linear search
 Second derivative matrix not updated -- first step.
 ITU=  0
     Eigenvalues ---    0.00230   0.00230   0.00230   0.00230   0.00230
     Eigenvalues ---    0.00437   0.00585   0.00823   0.01310   0.01424
     Eigenvalues ---    0.01519   0.01546   0.01629   0.01723   0.01861
     Eigenvalues ---    0.01974   0.02059   0.02062   0.02070   0.02086
     Eigenvalues ---    0.02098   0.02127   0.02134   0.02139   0.02151
     Eigenvalues ---    0.02155   0.02167   0.02172   0.02191   0.02232
     Eigenvalues ---    0.02252   0.02342   0.02404   0.02991   0.02991
     Eigenvalues ---    0.03432   0.03481   0.03723   0.03810   0.05300
     Eigenvalues ---    0.05301   0.05311   0.05311   0.05361   0.05364
     Eigenvalues ---    0.05382   0.05383   0.05758   0.06308   0.07709
     Eigenvalues ---    0.10012   0.10273   0.10902   0.11661   0.12781
     Eigenvalues ---    0.14683   0.15649   0.15997   0.15997   0.16000
     Eigenvalues ---    0.16000   0.16000   0.16000   0.16000   0.16000
     Eigenvalues ---    0.16000   0.16000   0.16000   0.16000   0.16000
     Eigenvalues ---    0.16000   0.16000   0.16000   0.16000   0.16000
     Eigenvalues ---    0.16000   0.16000   0.16000   0.17375   0.17862
     Eigenvalues ---    0.21364   0.21999   0.22001   0.22315   0.22969
     Eigenvalues ---    0.23492   0.23999   0.24553   0.24989   0.24996
     Eigenvalues ---    0.25000   0.25000   0.25000   0.25000   0.25000
     Eigenvalues ---    0.25009   0.25046   0.26309   0.27188   0.27716
     Eigenvalues ---    0.27717   0.28338   0.28340   0.29900   0.30912
     Eigenvalues ---    0.30983   0.34613   0.34632   0.34647   0.34715
     Eigenvalues ---    0.34718   0.34721   0.34724   0.34731   0.34742
     Eigenvalues ---    0.34746   0.34749   0.34794   0.34807   0.34850
     Eigenvalues ---    0.34854   0.34855   0.34857   0.35689   0.35860
     Eigenvalues ---    0.35869   0.35887   0.35920   0.36036   0.36321
     Eigenvalues ---    0.39794   0.40958   0.41761   0.41819   0.42049
     Eigenvalues ---    0.43644   0.45033   0.45387   0.45510   0.45852
     Eigenvalues ---    0.46016   0.46137   0.46481   0.46893   0.47237
     Eigenvalues ---    0.48791   0.51921   0.53043   0.55846   0.90839
 RFO step:  Lambda=-2.14831420D-02 EMin= 2.30000000D-03
 Linear search not attempted -- first point.
 Iteration  1 RMS(Cart)=  0.11395191 RMS(Int)=  0.00168046
 Iteration  2 RMS(Cart)=  0.00442759 RMS(Int)=  0.00026842
 Iteration  3 RMS(Cart)=  0.00000328 RMS(Int)=  0.00026841
 Iteration  4 RMS(Cart)=  0.00000000 RMS(Int)=  0.00026841
 Variable       Old X    -DE/DX   Delta X   Delta X   Delta X     New X
                                 (Linear)    (Quad)   (Total)
    R1        2.32549  -0.00211   0.00000  -0.00227  -0.00227   2.32322
    R2        2.54388   0.02300   0.00000   0.03967   0.03967   2.58354
    R3        2.86046  -0.00570   0.00000  -0.01721  -0.01721   2.84325
    R4        2.64113  -0.00349   0.00000  -0.00725  -0.00725   2.63388
    R5        1.89461   0.00753   0.00000   0.01525   0.01525   1.90986
    R6        2.56297  -0.01488   0.00000  -0.02791  -0.02787   2.53510
    R7        2.65248  -0.00759   0.00000  -0.01604  -0.01599   2.63649
    R8        2.56307  -0.02027   0.00000  -0.03765  -0.03765   2.52542
    R9        2.63598  -0.00286   0.00000  -0.00604  -0.00608   2.62990
   R10        2.04207   0.00408   0.00000   0.01071   0.01071   2.05278
   R11        2.64094  -0.00017   0.00000   0.00112   0.00107   2.64201
   R12        2.04026   0.00388   0.00000   0.01015   0.01015   2.05041
   R13        2.88164  -0.02208   0.00000  -0.06889  -0.06889   2.81275
   R14        2.64616  -0.00585   0.00000  -0.01067  -0.01066   2.63549
   R15        2.86184  -0.00167   0.00000  -0.00198  -0.00189   2.85995
   R16        2.86184  -0.00162   0.00000  -0.00184  -0.00176   2.86008
   R17        2.06307  -0.00327   0.00000  -0.00889  -0.00889   2.05419
   R18        2.86178  -0.00760   0.00000  -0.02912  -0.02929   2.83249
   R19        2.06277  -0.00357   0.00000  -0.00972  -0.00972   2.05305
   R20        2.06130  -0.00325   0.00000  -0.00881  -0.00881   2.05249
   R21        2.06135  -0.00326   0.00000  -0.00886  -0.00886   2.05249
   R22        2.06253  -0.00350   0.00000  -0.00951  -0.00951   2.05302
   R23        2.03582   0.00307   0.00000   0.00798   0.00798   2.04380
   R24        2.65589  -0.00163   0.00000  -0.00414  -0.00413   2.65175
   R25        2.64849  -0.00376   0.00000  -0.00862  -0.00863   2.63986
   R26        2.63188   0.00062   0.00000   0.00132   0.00133   2.63321
   R27        2.04259   0.00398   0.00000   0.01045   0.01045   2.05304
   R28        2.63748   0.00550   0.00000   0.01203   0.01204   2.64952
   R29        2.04301   0.00299   0.00000   0.00788   0.00788   2.05089
   R30        2.99185  -0.01611   0.00000  -0.05932  -0.05932   2.93252
   R31        2.63723   0.00693   0.00000   0.01492   0.01492   2.65215
   R32        2.60133  -0.00141   0.00000  -0.00463  -0.00420   2.59713
   R33        2.60205  -0.00129   0.00000  -0.00441  -0.00398   2.59807
   R34        2.67534   0.02576   0.00000   0.05872   0.05867   2.73401
   R35        2.91406  -0.00928   0.00000  -0.03042  -0.03042   2.88364
   R36        2.92761  -0.01030   0.00000  -0.03449  -0.03449   2.89312
   R37        2.97175  -0.00568   0.00000  -0.01945  -0.02010   2.95165
   R38        2.06010   0.00123   0.00000   0.00332   0.00332   2.06342
   R39        2.05913   0.00373   0.00000   0.01009   0.01009   2.06921
   R40        2.06089   0.00162   0.00000   0.00440   0.00440   2.06530
   R41        2.05910   0.00352   0.00000   0.00952   0.00952   2.06863
   R42        2.06125   0.00212   0.00000   0.00576   0.00576   2.06701
   R43        2.06113   0.00090   0.00000   0.00244   0.00244   2.06358
   R44        2.92763  -0.01033   0.00000  -0.03461  -0.03461   2.89303
   R45        2.91401  -0.00927   0.00000  -0.03042  -0.03042   2.88359
   R46        2.67564   0.02573   0.00000   0.05876   0.05870   2.73433
   R47        2.05908   0.00353   0.00000   0.00953   0.00953   2.06861
   R48        2.06141   0.00207   0.00000   0.00561   0.00561   2.06702
   R49        2.06096   0.00097   0.00000   0.00262   0.00262   2.06358
   R50        2.05919   0.00370   0.00000   0.01001   0.01001   2.06921
   R51        2.06084   0.00165   0.00000   0.00448   0.00448   2.06532
   R52        2.05989   0.00131   0.00000   0.00353   0.00353   2.06343
   R53        2.63090   0.00016   0.00000   0.00027   0.00026   2.63116
   R54        2.04286   0.00292   0.00000   0.00767   0.00767   2.05053
   R55        2.04570   0.00142   0.00000   0.00376   0.00376   2.04946
    A1        2.17951  -0.00547   0.00000  -0.01991  -0.02001   2.15949
    A2        2.09624   0.00520   0.00000   0.01939   0.01929   2.11553
    A3        2.00691   0.00030   0.00000   0.00132   0.00122   2.00813
    A4        2.27869  -0.01032   0.00000  -0.04277  -0.04278   2.23591
    A5        2.01616   0.01128   0.00000   0.05502   0.05500   2.07116
    A6        1.98795  -0.00097   0.00000  -0.01250  -0.01251   1.97545
    A7        1.97269  -0.00179   0.00000  -0.00555  -0.00560   1.96709
    A8        2.18281  -0.00996   0.00000  -0.03564  -0.03568   2.14713
    A9        2.12766   0.01175   0.00000   0.04121   0.04130   2.16896
   A10        2.06771  -0.00642   0.00000  -0.03125  -0.03119   2.03652
   A11        2.14283   0.00557   0.00000   0.02022   0.02017   2.16300
   A12        2.03052  -0.00426   0.00000  -0.01824  -0.01822   2.01231
   A13        2.10984  -0.00131   0.00000  -0.00198  -0.00195   2.10788
   A14        2.07450  -0.00167   0.00000  -0.00360  -0.00369   2.07081
   A15        2.10005   0.00086   0.00000   0.00192   0.00197   2.10202
   A16        2.10863   0.00081   0.00000   0.00168   0.00173   2.11036
   A17        2.09065   0.00319   0.00000   0.00872   0.00874   2.09939
   A18        2.07288  -0.00360   0.00000  -0.00721  -0.00725   2.06563
   A19        2.11966   0.00041   0.00000  -0.00151  -0.00149   2.11817
   A20        2.13750  -0.00175   0.00000  -0.01496  -0.01514   2.12237
   A21        2.13787  -0.00171   0.00000  -0.01471  -0.01488   2.12299
   A22        1.96513   0.00017   0.00000   0.00757   0.00767   1.97280
   A23        2.00528   0.00245   0.00000   0.01277   0.01278   2.01806
   A24        2.00535   0.00241   0.00000   0.01246   0.01247   2.01782
   A25        2.07278  -0.00167   0.00000  -0.01123  -0.01126   2.06151
   A26        2.06614  -0.00150   0.00000  -0.00978  -0.00978   2.05636
   A27        2.08551  -0.00301   0.00000  -0.01843  -0.01840   2.06711
   A28        2.08418  -0.00025   0.00000  -0.00438  -0.00444   2.07974
   A29        1.95242   0.00345   0.00000   0.02460   0.02463   1.97705
   A30        2.06616  -0.00147   0.00000  -0.00980  -0.00980   2.05636
   A31        2.07324  -0.00166   0.00000  -0.01123  -0.01126   2.06198
   A32        2.08383  -0.00018   0.00000  -0.00393  -0.00399   2.07985
   A33        2.08520  -0.00302   0.00000  -0.01835  -0.01832   2.06689
   A34        1.95254   0.00340   0.00000   0.02430   0.02433   1.97687
   A35        2.08078  -0.00563   0.00000  -0.01937  -0.01932   2.06146
   A36        2.12248  -0.00319   0.00000  -0.02340  -0.02343   2.09905
   A37        2.07992   0.00882   0.00000   0.04277   0.04274   2.12266
   A38        2.12428   0.00508   0.00000   0.01992   0.01990   2.14418
   A39        2.08505  -0.00832   0.00000  -0.02943  -0.02944   2.05561
   A40        2.07373   0.00323   0.00000   0.00935   0.00933   2.08306
   A41        2.10074  -0.00015   0.00000  -0.00193  -0.00195   2.09878
   A42        2.12107  -0.00229   0.00000  -0.01219  -0.01221   2.10886
   A43        2.06120   0.00244   0.00000   0.01389   0.01386   2.07506
   A44        2.10206   0.00060   0.00000   0.00393   0.00394   2.10601
   A45        2.09212   0.00003   0.00000  -0.00015  -0.00015   2.09197
   A46        2.08898  -0.00063   0.00000  -0.00379  -0.00379   2.08518
   A47        2.09901   0.00202   0.00000   0.00628   0.00627   2.10528
   A48        2.08479  -0.00449   0.00000  -0.01420  -0.01419   2.07060
   A49        2.09938   0.00246   0.00000   0.00791   0.00791   2.10728
   A50        2.16897  -0.00236   0.00000  -0.00697  -0.00696   2.16201
   A51        2.16824  -0.00207   0.00000  -0.00590  -0.00590   2.16234
   A52        1.94598   0.00442   0.00000   0.01287   0.01286   1.95884
   A53        1.87291  -0.00117   0.00000   0.00082   0.00026   1.87318
   A54        1.86761   0.00251   0.00000   0.03407   0.03399   1.90160
   A55        1.84297   0.00171   0.00000   0.03166   0.03202   1.87500
   A56        1.77312  -0.00035   0.00000   0.00767   0.00768   1.78080
   A57        1.92786   0.00095   0.00000  -0.00200  -0.00390   1.92396
   A58        2.01236   0.00022   0.00000  -0.00883  -0.00954   2.00282
   A59        2.01805  -0.00432   0.00000  -0.04848  -0.04883   1.96921
   A60        1.95648  -0.00384   0.00000  -0.02035  -0.02047   1.93602
   A61        1.93837   0.00048   0.00000   0.00264   0.00264   1.94100
   A62        1.94274  -0.00450   0.00000  -0.02557  -0.02572   1.91702
   A63        1.88164   0.00204   0.00000   0.01273   0.01275   1.89439
   A64        1.85952   0.00446   0.00000   0.02464   0.02438   1.88389
   A65        1.88125   0.00187   0.00000   0.00875   0.00872   1.88997
   A66        1.94262   0.00158   0.00000   0.01088   0.01095   1.95356
   A67        1.95164  -0.00265   0.00000  -0.01459  -0.01482   1.93681
   A68        1.94453  -0.00777   0.00000  -0.04497  -0.04521   1.89932
   A69        1.87957   0.00123   0.00000   0.01077   0.01083   1.89040
   A70        1.87484   0.00329   0.00000   0.01812   0.01820   1.89304
   A71        1.86667   0.00492   0.00000   0.02307   0.02252   1.88919
   A72        2.01793  -0.00434   0.00000  -0.04860  -0.04895   1.96898
   A73        2.01223   0.00023   0.00000  -0.00878  -0.00949   2.00274
   A74        1.77298  -0.00036   0.00000   0.00764   0.00764   1.78062
   A75        1.92787   0.00096   0.00000  -0.00192  -0.00383   1.92405
   A76        1.84319   0.00171   0.00000   0.03155   0.03191   1.87510
   A77        1.86782   0.00252   0.00000   0.03418   0.03409   1.90192
   A78        1.94255   0.00156   0.00000   0.01079   0.01085   1.95340
   A79        1.95161  -0.00266   0.00000  -0.01459  -0.01483   1.93677
   A80        1.94502  -0.00780   0.00000  -0.04520  -0.04544   1.89957
   A81        1.87906   0.00126   0.00000   0.01107   0.01112   1.89018
   A82        1.87493   0.00331   0.00000   0.01816   0.01823   1.89316
   A83        1.86668   0.00494   0.00000   0.02311   0.02256   1.88924
   A84        1.93798   0.00050   0.00000   0.00278   0.00278   1.94076
   A85        1.94278  -0.00448   0.00000  -0.02549  -0.02564   1.91714
   A86        1.95671  -0.00385   0.00000  -0.02044  -0.02057   1.93615
   A87        1.88110   0.00186   0.00000   0.00878   0.00875   1.88985
   A88        1.88147   0.00204   0.00000   0.01274   0.01276   1.89423
   A89        1.85995   0.00445   0.00000   0.02448   0.02422   1.88417
   A90        1.87211  -0.00117   0.00000   0.00101   0.00045   1.87255
   A91        2.10041   0.00196   0.00000   0.00921   0.00920   2.10962
   A92        2.09333  -0.00158   0.00000  -0.00789  -0.00788   2.08545
   A93        2.08944  -0.00039   0.00000  -0.00132  -0.00132   2.08812
   A94        2.10451  -0.00116   0.00000  -0.00642  -0.00644   2.09808
   A95        2.10097  -0.00421   0.00000  -0.02315  -0.02315   2.07783
   A96        2.07770   0.00536   0.00000   0.02958   0.02958   2.10728
    D1        0.05562  -0.00066   0.00000  -0.01524  -0.01517   0.04045
    D2       -3.05401  -0.00014   0.00000  -0.00508  -0.00482  -3.05884
    D3       -3.12109   0.00044   0.00000   0.01178   0.01152  -3.10957
    D4        0.05246   0.00096   0.00000   0.02194   0.02187   0.07433
    D5       -2.65283   0.00027   0.00000   0.00566   0.00580  -2.64703
    D6        0.47176  -0.00011   0.00000  -0.00512  -0.00493   0.46683
    D7        0.52207  -0.00055   0.00000  -0.01912  -0.01931   0.50276
    D8       -2.63653  -0.00093   0.00000  -0.02990  -0.03004  -2.66657
    D9       -3.09392  -0.00020   0.00000  -0.00540  -0.00553  -3.09944
   D10        0.05491  -0.00036   0.00000  -0.00852  -0.00859   0.04632
   D11        0.01613  -0.00053   0.00000  -0.01443  -0.01436   0.00177
   D12       -3.11823  -0.00069   0.00000  -0.01755  -0.01742  -3.13565
   D13       -3.13947   0.00005   0.00000   0.00038   0.00035  -3.13912
   D14       -0.00485   0.00011   0.00000   0.00304   0.00309  -0.00176
   D15        3.13826   0.00004   0.00000   0.00089   0.00085   3.13911
   D16       -0.00116  -0.00019   0.00000  -0.00436  -0.00429  -0.00545
   D17        0.00451  -0.00008   0.00000  -0.00228  -0.00233   0.00217
   D18       -3.13491  -0.00030   0.00000  -0.00753  -0.00748   3.14080
   D19        0.00229  -0.00010   0.00000  -0.00213  -0.00212   0.00017
   D20       -3.13898  -0.00011   0.00000  -0.00230  -0.00228  -3.14126
   D21        0.00057   0.00001   0.00000   0.00032   0.00033   0.00091
   D22       -3.14132   0.00004   0.00000   0.00090   0.00092  -3.14040
   D23       -3.14135   0.00002   0.00000   0.00050   0.00050  -3.14085
   D24       -0.00006   0.00005   0.00000   0.00107   0.00109   0.00102
   D25        3.14060   0.00006   0.00000   0.00140   0.00142  -3.14117
   D26       -0.00092   0.00003   0.00000   0.00045   0.00047  -0.00046
   D27       -0.00069   0.00003   0.00000   0.00082   0.00083   0.00014
   D28        3.14097  -0.00000   0.00000  -0.00013  -0.00012   3.14085
   D29        2.50857   0.00232   0.00000   0.01319   0.01305   2.52162
   D30       -2.50579  -0.00237   0.00000  -0.01471  -0.01457  -2.52037
   D31        0.00175  -0.00003   0.00000  -0.00087  -0.00087   0.00088
   D32       -0.63309   0.00235   0.00000   0.01416   0.01403  -0.61906
   D33        0.63573  -0.00233   0.00000  -0.01373  -0.01359   0.62213
   D34       -3.13991   0.00001   0.00000   0.00011   0.00011  -3.13980
   D35       -0.00150   0.00003   0.00000   0.00058   0.00054  -0.00096
   D36        3.13798   0.00024   0.00000   0.00561   0.00567  -3.13954
   D37        3.14017  -0.00000   0.00000  -0.00039  -0.00042   3.13975
   D38       -0.00355   0.00020   0.00000   0.00465   0.00471   0.00116
   D39        0.03870  -0.00008   0.00000  -0.00214  -0.00209   0.03662
   D40       -2.42583  -0.00179   0.00000  -0.01689  -0.01680  -2.44263
   D41        2.53234   0.00153   0.00000   0.01020   0.01015   2.54248
   D42        0.06780  -0.00019   0.00000  -0.00455  -0.00456   0.06324
   D43        2.42685   0.00179   0.00000   0.01679   0.01670   2.44355
   D44       -0.03867   0.00011   0.00000   0.00264   0.00259  -0.03608
   D45       -0.06750   0.00018   0.00000   0.00455   0.00457  -0.06293
   D46       -2.53302  -0.00150   0.00000  -0.00960  -0.00955  -2.54257
   D47       -2.51485  -0.00153   0.00000  -0.01183  -0.01179  -2.52665
   D48       -0.00070  -0.00000   0.00000   0.00007   0.00007  -0.00063
   D49        0.00017  -0.00001   0.00000  -0.00024  -0.00025  -0.00007
   D50        2.51433   0.00152   0.00000   0.01165   0.01162   2.52594
   D51        3.14046  -0.00049   0.00000  -0.01102  -0.01115   3.12931
   D52        0.01916   0.00007   0.00000   0.00234   0.00215   0.02130
   D53        0.01576   0.00000   0.00000   0.00006   0.00011   0.01587
   D54       -3.10554   0.00056   0.00000   0.01342   0.01340  -3.09214
   D55        3.14158   0.00005   0.00000   0.00310   0.00296  -3.13864
   D56       -0.00000   0.00015   0.00000   0.00533   0.00519   0.00519
   D57       -0.01652  -0.00029   0.00000  -0.00725  -0.00726  -0.02377
   D58        3.12508  -0.00019   0.00000  -0.00502  -0.00503   3.12005
   D59       -0.00490   0.00030   0.00000   0.00655   0.00656   0.00166
   D60       -3.13917   0.00032   0.00000   0.00686   0.00689  -3.13228
   D61        3.11708  -0.00030   0.00000  -0.00665  -0.00678   3.11031
   D62       -0.01719  -0.00028   0.00000  -0.00635  -0.00644  -0.02363
   D63        3.14142  -0.00017   0.00000  -0.00386  -0.00386   3.13756
   D64       -0.00546  -0.00022   0.00000  -0.00572  -0.00572  -0.01117
   D65       -0.00747  -0.00019   0.00000  -0.00414  -0.00418  -0.01165
   D66        3.12883  -0.00024   0.00000  -0.00601  -0.00603   3.12280
   D67        3.13837  -0.00029   0.00000  -0.01152  -0.01153   3.12684
   D68       -0.00337  -0.00027   0.00000  -0.01100  -0.01101  -0.01438
   D69        0.00211  -0.00022   0.00000  -0.00958  -0.00957  -0.00746
   D70       -3.13962  -0.00020   0.00000  -0.00906  -0.00905   3.13451
   D71        0.00473  -0.00008   0.00000  -0.00151  -0.00151   0.00322
   D72       -3.13338  -0.00009   0.00000  -0.00133  -0.00136  -3.13474
   D73        3.14103  -0.00013   0.00000  -0.00338  -0.00338   3.13766
   D74        0.00292  -0.00014   0.00000  -0.00320  -0.00322  -0.00030
   D75        2.94580   0.00191   0.00000   0.01816   0.01803   2.96383
   D76       -0.19567   0.00190   0.00000   0.01771   0.01757  -0.17810
   D77        2.94072   0.00195   0.00000   0.01890   0.01876   2.95948
   D78       -0.20100   0.00197   0.00000   0.01935   0.01923  -0.18178
   D79        2.57669   0.00058   0.00000  -0.02442  -0.02502   2.55168
   D80       -1.65225   0.00371   0.00000   0.00507   0.00489  -1.64735
   D81        0.46028  -0.00057   0.00000  -0.03265  -0.03313   0.42716
   D82       -0.94662   0.00086   0.00000   0.00649   0.00670  -0.93992
   D83       -3.05270   0.00055   0.00000   0.00235   0.00265  -3.05005
   D84        1.13425   0.00088   0.00000   0.00665   0.00699   1.14125
   D85       -2.94441  -0.00302   0.00000  -0.04860  -0.04895  -2.99336
   D86        1.23269  -0.00333   0.00000  -0.05273  -0.05300   1.17970
   D87       -0.86354  -0.00301   0.00000  -0.04844  -0.04865  -0.91219
   D88        1.01074   0.00214   0.00000   0.03289   0.03281   1.04355
   D89       -1.09534   0.00183   0.00000   0.02875   0.02876  -1.06658
   D90        3.09161   0.00216   0.00000   0.03305   0.03310   3.12471
   D91       -3.10011  -0.00150   0.00000  -0.00652  -0.00699  -3.10710
   D92        1.08002  -0.00234   0.00000  -0.01781  -0.01812   1.06190
   D93       -1.00791  -0.00150   0.00000  -0.00653  -0.00717  -1.01509
   D94       -1.08680   0.00285   0.00000   0.04972   0.04949  -1.03730
   D95        3.09333   0.00200   0.00000   0.03843   0.03837   3.13169
   D96        1.00540   0.00285   0.00000   0.04971   0.04931   1.05471
   D97        1.23836  -0.00003   0.00000  -0.01194  -0.01123   1.22713
   D98       -0.86470  -0.00087   0.00000  -0.02323  -0.02236  -0.88706
   D99       -2.95263  -0.00003   0.00000  -0.01195  -0.01141  -2.96404
   D100       1.42211   0.00365   0.00000   0.06843   0.06800   1.49011
   D101      -2.57564   0.00083   0.00000   0.00571   0.00588  -2.56976
   D102      -0.56333   0.00372   0.00000   0.04730   0.04708  -0.51626
   D103      -0.59008   0.00077   0.00000   0.02696   0.02692  -0.56316
   D104       1.69535  -0.00205   0.00000  -0.03576  -0.03520   1.66015
   D105      -2.57553   0.00084   0.00000   0.00583   0.00600  -2.56953
   D106      -2.87574   0.00359   0.00000   0.08977   0.08912  -2.78662
   D107      -0.59031   0.00077   0.00000   0.02704   0.02700  -0.56331
   D108       1.42199   0.00367   0.00000   0.06863   0.06820   1.49019
   D109       1.23793  -0.00001   0.00000  -0.01184  -0.01114   1.22679
   D110      -0.86442  -0.00088   0.00000  -0.02344  -0.02257  -0.88699
   D111      -2.95267  -0.00003   0.00000  -0.01203  -0.01150  -2.96417
   D112      -1.08695   0.00286   0.00000   0.04975   0.04953  -1.03742
   D113       3.09389   0.00199   0.00000   0.03816   0.03809   3.13199
   D114       1.00564   0.00284   0.00000   0.04956   0.04917   1.05481
   D115      -3.10064  -0.00150   0.00000  -0.00660  -0.00707  -3.10771
   D116       1.08021  -0.00237   0.00000  -0.01820  -0.01851   1.06170
   D117      -1.00805  -0.00151   0.00000  -0.00679  -0.00744  -1.01548
   D118      -1.09533   0.00184   0.00000   0.02894   0.02895  -1.06638
   D119       3.09204   0.00215   0.00000   0.03305   0.03310   3.12514
   D120       1.01042   0.00215   0.00000   0.03313   0.03305   1.04347
   D121       1.23243  -0.00333   0.00000  -0.05257  -0.05284   1.17959
   D122      -0.86339  -0.00302   0.00000  -0.04847  -0.04868  -0.91207
   D123      -2.94501  -0.00302   0.00000  -0.04838  -0.04874  -2.99374
   D124      -3.05258   0.00056   0.00000   0.00249   0.00279  -3.04979
   D125       1.13478   0.00087   0.00000   0.00660   0.00695   1.14173
[...]
 Alpha virt. eigenvalues --    0.25716   0.26001   0.26470   0.26885   0.27531
 Alpha virt. eigenvalues --    0.27948   0.28395   0.28496   0.28827   0.29023
 Alpha virt. eigenvalues --    0.29335   0.29927   0.30487   0.30855   0.31078
 Alpha virt. eigenvalues --    0.32160   0.32449   0.32942   0.33142   0.33723
 Alpha virt. eigenvalues --    0.34017   0.34338   0.34465   0.34841   0.34910
 Alpha virt. eigenvalues --    0.35514   0.35771   0.36167   0.36598   0.37071
 Alpha virt. eigenvalues --    0.37375   0.38078   0.38362   0.38545   0.39204
 Alpha virt. eigenvalues --    0.39257   0.39567   0.39834   0.40387   0.40733
 Alpha virt. eigenvalues --    0.41066   0.41090   0.41754   0.42165   0.42466
 Alpha virt. eigenvalues --    0.42726   0.43213   0.43557   0.43648   0.43842
 Alpha virt. eigenvalues --    0.44089   0.44264   0.44402   0.45139   0.45304
 Alpha virt. eigenvalues --    0.45485   0.45675   0.45965   0.46264   0.46549
 Alpha virt. eigenvalues --    0.46877   0.47086   0.47836   0.48072   0.48603
 Alpha virt. eigenvalues --    0.48694   0.49358   0.49498   0.49771   0.50099
 Alpha virt. eigenvalues --    0.50412   0.50528   0.50863   0.51078   0.51226
 Alpha virt. eigenvalues --    0.51292   0.51612   0.52129   0.52242   0.52420
 Alpha virt. eigenvalues --    0.53155   0.53372   0.53514   0.54233   0.54651
 Alpha virt. eigenvalues --    0.54855   0.55200   0.55595   0.56600   0.56786
 Alpha virt. eigenvalues --    0.57620   0.57759   0.58144   0.58404   0.58619
 Alpha virt. eigenvalues --    0.59027   0.59322   0.59587   0.60703   0.61670
 Alpha virt. eigenvalues --    0.61874   0.62088   0.62653   0.63083   0.64215
 Alpha virt. eigenvalues --    0.64708   0.65459   0.66222   0.66821   0.67064
 Alpha virt. eigenvalues --    0.67720   0.68285   0.68375   0.68680   0.68856
 Alpha virt. eigenvalues --    0.69220   0.69704   0.70571   0.71189   0.72190
 Alpha virt. eigenvalues --    0.72506   0.72905   0.73131   0.73397   0.74329
 Alpha virt. eigenvalues --    0.74465   0.74800   0.75466   0.76422   0.77149
 Alpha virt. eigenvalues --    0.77424   0.78301   0.78395   0.78979   0.78998
 Alpha virt. eigenvalues --    0.79807   0.80518   0.81601   0.82441   0.82872
 Alpha virt. eigenvalues --    0.83749   0.84005   0.84730   0.85227   0.85410
 Alpha virt. eigenvalues --    0.86203   0.86383   0.87998   0.88152   0.88673
 Alpha virt. eigenvalues --    0.89451   0.89590   0.90485   0.90664   0.90807
 Alpha virt. eigenvalues --    0.91338   0.92214   0.92503   0.92707   0.93373
 Alpha virt. eigenvalues --    0.93804   0.94066   0.94858   0.95091   0.95761
 Alpha virt. eigenvalues --    0.96010   0.96333   0.97654   0.97906   0.99224
 Alpha virt. eigenvalues --    0.99602   1.00753   1.00786   1.01650   1.01721
 Alpha virt. eigenvalues --    1.02014   1.02535   1.02756   1.03241   1.03795
 Alpha virt. eigenvalues --    1.05109   1.05517   1.06548   1.07185   1.07580
 Alpha virt. eigenvalues --    1.08580   1.08990   1.09776   1.10218   1.10677
 Alpha virt. eigenvalues --    1.11262   1.11797   1.12703   1.13088   1.14175
 Alpha virt. eigenvalues --    1.15090   1.16251   1.16284   1.16743   1.17193
 Alpha virt. eigenvalues --    1.17791   1.17976   1.18088   1.18664   1.19593
 Alpha virt. eigenvalues --    1.20174   1.21046   1.21258   1.22046   1.23314
 Alpha virt. eigenvalues --    1.23996   1.24339   1.25226   1.25588   1.25867
 Alpha virt. eigenvalues --    1.26369   1.27355   1.27511   1.27737   1.28379
 Alpha virt. eigenvalues --    1.29002   1.30168   1.30798   1.31363   1.31618
 Alpha virt. eigenvalues --    1.31886   1.33187   1.33839   1.34137   1.34483
 Alpha virt. eigenvalues --    1.35560   1.36443   1.37224   1.38367   1.39973
 Alpha virt. eigenvalues --    1.40370   1.40937   1.42150   1.42358   1.43447
 Alpha virt. eigenvalues --    1.43757   1.45577   1.45727   1.46228   1.46926
 Alpha virt. eigenvalues --    1.49623   1.49880   1.50840   1.51296   1.52069
 Alpha virt. eigenvalues --    1.52327   1.52559   1.52694   1.53624   1.53926
 Alpha virt. eigenvalues --    1.54419   1.54532   1.54846   1.56180   1.56698
 Alpha virt. eigenvalues --    1.56948   1.57378   1.58169   1.58496   1.59008
 Alpha virt. eigenvalues --    1.59212   1.59979   1.60589   1.60790   1.61000
 Alpha virt. eigenvalues --    1.61714   1.62134   1.62605   1.62988   1.63520
 Alpha virt. eigenvalues --    1.63896   1.63927   1.64687   1.64870   1.65705
 Alpha virt. eigenvalues --    1.66147   1.66482   1.66528   1.66731   1.67298
 Alpha virt. eigenvalues --    1.67990   1.68632   1.69064   1.70326   1.70925
 Alpha virt. eigenvalues --    1.71463   1.72259   1.72706   1.73121   1.73324
 Alpha virt. eigenvalues --    1.73648   1.74024   1.74577   1.75853   1.76366
 Alpha virt. eigenvalues --    1.77416   1.78433   1.79166   1.79760   1.79845
 Alpha virt. eigenvalues --    1.80785   1.81117   1.81266   1.82315   1.82500
 Alpha virt. eigenvalues --    1.83078   1.83180   1.84160   1.84350   1.85816
 Alpha virt. eigenvalues --    1.86158   1.87172   1.88095   1.88436   1.89340
 Alpha virt. eigenvalues --    1.90593   1.91061   1.91557   1.92122   1.92421
 Alpha virt. eigenvalues --    1.93635   1.93737   1.94033   1.95800   1.96091
 Alpha virt. eigenvalues --    1.96344   1.96991   1.97226   1.97434   1.97639
 Alpha virt. eigenvalues --    1.99158   1.99766   2.01690   2.02870   2.03597
 Alpha virt. eigenvalues --    2.04051   2.04561   2.05646   2.05893   2.07009
 Alpha virt. eigenvalues --    2.07648   2.08671   2.08804   2.09705   2.10997
 Alpha virt. eigenvalues --    2.11604   2.12042   2.12128   2.13087   2.13354
 Alpha virt. eigenvalues --    2.14029   2.15280   2.16071   2.16489   2.17391
 Alpha virt. eigenvalues --    2.17588   2.17879   2.18534   2.19129   2.19400
 Alpha virt. eigenvalues --    2.19975   2.20780   2.22073   2.22494   2.23121
 Alpha virt. eigenvalues --    2.24199   2.25501   2.25731   2.28058   2.28230
 Alpha virt. eigenvalues --    2.29069   2.29586   2.30488   2.31334   2.31740
 Alpha virt. eigenvalues --    2.32602   2.32908   2.33537   2.34499   2.34928
 Alpha virt. eigenvalues --    2.35621   2.36067   2.36477   2.36697   2.37514
 Alpha virt. eigenvalues --    2.38089   2.38436   2.38565   2.39020   2.39784
 Alpha virt. eigenvalues --    2.40328   2.40755   2.41394   2.42130   2.42757
 Alpha virt. eigenvalues --    2.43381   2.43935   2.44439   2.45956   2.46307
 Alpha virt. eigenvalues --    2.47463   2.48331   2.48398   2.48671   2.49495
 Alpha virt. eigenvalues --    2.49975   2.50979   2.51270   2.51831   2.52929
 Alpha virt. eigenvalues --    2.53391   2.53751   2.54338   2.55147   2.55542
 Alpha virt. eigenvalues --    2.56440   2.56797   2.57789   2.58298   2.58621
 Alpha virt. eigenvalues --    2.59150   2.59493   2.60577   2.60863   2.61125
 Alpha virt. eigenvalues --    2.61749   2.62493   2.62714   2.63167   2.63504
 Alpha virt. eigenvalues --    2.64287   2.64368   2.64891   2.65348   2.66785
 Alpha virt. eigenvalues --    2.67072   2.67895   2.69094   2.69140   2.69525
 Alpha virt. eigenvalues --    2.69677   2.69875   2.70336   2.71295   2.71612
 Alpha virt. eigenvalues --    2.71821   2.72009   2.72881   2.73153   2.73464
 Alpha virt. eigenvalues --    2.74124   2.74825   2.75601   2.76840   2.76903
 Alpha virt. eigenvalues --    2.77606   2.78071   2.78203   2.79189   2.79452
 Alpha virt. eigenvalues --    2.79946   2.80445   2.80965   2.81342   2.81656
 Alpha virt. eigenvalues --    2.82640   2.83140   2.84092   2.84676   2.84977
 Alpha virt. eigenvalues --    2.85652   2.86494   2.86693   2.87184   2.88353
 Alpha virt. eigenvalues --    2.89307   2.89832   2.90004   2.90406   2.91894
 Alpha virt. eigenvalues --    2.92422   2.93357   2.93600   2.94507   2.95162
 Alpha virt. eigenvalues --    2.95932   2.96631   2.97231   2.97563   2.98926
 Alpha virt. eigenvalues --    2.99461   3.00336   3.00743   3.01355   3.02023
 Alpha virt. eigenvalues --    3.02338   3.03177   3.03891   3.04475   3.04908
 Alpha virt. eigenvalues --    3.05574   3.06151   3.06754   3.07048   3.07718
 Alpha virt. eigenvalues --    3.07759   3.07837   3.08593   3.09210   3.09855
 Alpha virt. eigenvalues --    3.10705   3.11126   3.11456   3.12233   3.12691
 Alpha virt. eigenvalues --    3.13189   3.13746   3.14434   3.14917   3.15200
 Alpha virt. eigenvalues --    3.15641   3.16026   3.16722   3.16936   3.17413
 Alpha virt. eigenvalues --    3.17883   3.18271   3.19296   3.20035   3.20439
 Alpha virt. eigenvalues --    3.21019   3.21306   3.21655   3.22344   3.23255
 Alpha virt. eigenvalues --    3.23695   3.23754   3.23968   3.24567   3.25227
 Alpha virt. eigenvalues --    3.25989   3.26456   3.26985   3.27412   3.27628
 Alpha virt. eigenvalues --    3.28317   3.28581   3.29550   3.29961   3.30458
 Alpha virt. eigenvalues --    3.30914   3.31623   3.32287   3.33125   3.33370
 Alpha virt. eigenvalues --    3.34424   3.34745   3.34949   3.35824   3.36827
 Alpha virt. eigenvalues --    3.37236   3.37547   3.37931   3.38256   3.38330
 Alpha virt. eigenvalues --    3.39059   3.39275   3.39338   3.39645   3.40284
 Alpha virt. eigenvalues --    3.41461   3.41947   3.42321   3.42896   3.43389
 Alpha virt. eigenvalues --    3.43851   3.44928   3.45815   3.46655   3.46791
 Alpha virt. eigenvalues --    3.47500   3.47570   3.47977   3.48722   3.49117
 Alpha virt. eigenvalues --    3.50077   3.51021   3.51242   3.51599   3.52026
 Alpha virt. eigenvalues --    3.53747   3.53783   3.54932   3.55329   3.55502
 Alpha virt. eigenvalues --    3.55782   3.56126   3.57134   3.58203   3.59125
 Alpha virt. eigenvalues --    3.59305   3.60344   3.60485   3.60968   3.62529
 Alpha virt. eigenvalues --    3.63181   3.64041   3.64894   3.66251   3.67547
 Alpha virt. eigenvalues --    3.68159   3.68921   3.69627   3.71222   3.71666
 Alpha virt. eigenvalues --    3.72905   3.74071   3.75752   3.75787   3.77507
 Alpha virt. eigenvalues --    3.78582   3.78879   3.79962   3.80686   3.80853
 Alpha virt. eigenvalues --    3.81535   3.82781   3.83675   3.84331   3.86543
 Alpha virt. eigenvalues --    3.86887   3.87797   3.89731   3.90520   3.92689
 Alpha virt. eigenvalues --    3.93908   3.95188   3.96303   3.96539   3.96934
 Alpha virt. eigenvalues --    3.97536   3.99290   3.99702   4.00527   4.01059
 Alpha virt. eigenvalues --    4.01311   4.01740   4.02300   4.03841   4.04838
 Alpha virt. eigenvalues --    4.05614   4.05839   4.07545   4.07926   4.08009
 Alpha virt. eigenvalues --    4.09088   4.09851   4.10316   4.10672   4.11164
 Alpha virt. eigenvalues --    4.12175   4.12480   4.15001   4.15138   4.15635
 Alpha virt. eigenvalues --    4.15904   4.16117   4.16311   4.17206   4.17255
 Alpha virt. eigenvalues --    4.18645   4.19436   4.20891   4.21791   4.22589
 Alpha virt. eigenvalues --    4.24164   4.24267   4.25497   4.26307   4.27034
 Alpha virt. eigenvalues --    4.28680   4.29267   4.29859   4.31359   4.33178
 Alpha virt. eigenvalues --    4.34480   4.35745   4.36972   4.38185   4.39089
 Alpha virt. eigenvalues --    4.40194   4.41704   4.41811   4.42657   4.43118
 Alpha virt. eigenvalues --    4.43409   4.44954   4.46291   4.46872   4.47317
 Alpha virt. eigenvalues --    4.48797   4.49541   4.51178   4.51830   4.53097
 Alpha virt. eigenvalues --    4.54384   4.55014   4.55776   4.57076   4.58394
 Alpha virt. eigenvalues --    4.58571   4.59146   4.61362   4.62063   4.66227
 Alpha virt. eigenvalues --    4.68216   4.70292   4.71399   4.74673   4.76860
 Alpha virt. eigenvalues --    4.77471   4.80205   4.80376   4.80867   4.84736
 Alpha virt. eigenvalues --    4.85860   4.86348   4.87092   4.87486   4.88384
 Alpha virt. eigenvalues --    4.88969   4.89535   4.91114   4.94522   4.95316
 Alpha virt. eigenvalues --    4.96485   4.96923   5.01520   5.02028   5.04984
 Alpha virt. eigenvalues --    5.05806   5.06123   5.07605   5.10395   5.11508
 Alpha virt. eigenvalues --    5.15513   5.18212   5.19051   5.21034   5.21398
 Alpha virt. eigenvalues --    5.26992   5.28405   5.28875   5.29844   5.30966
 Alpha virt. eigenvalues --    5.32410   5.34473   5.40278   5.41372   5.42482
 Alpha virt. eigenvalues --    5.43693   5.46384   5.48118   5.52394   5.54931
 Alpha virt. eigenvalues --    5.58099   5.59739   5.60916   5.64082   5.64967
 Alpha virt. eigenvalues --    5.67312   5.68662   5.73650   5.74143   5.80292
 Alpha virt. eigenvalues --    5.81403   5.85376   5.86855   5.93303   5.95657
 Alpha virt. eigenvalues --    6.05080   6.11424   6.15313   6.16517   6.20024
 Alpha virt. eigenvalues --    6.36479   6.41585   6.52830   6.63105   6.75637
 Alpha virt. eigenvalues --    6.77953   6.79015   6.80830   6.83257   6.88396
 Alpha virt. eigenvalues --    6.94942   6.96154   7.10470   7.15618   7.19316
 Alpha virt. eigenvalues --    7.23643   7.37094   7.46121  16.36928  22.35923
 Alpha virt. eigenvalues --   22.49725  22.49840  22.52979  22.53646  22.56341
 Alpha virt. eigenvalues --   22.57168  22.57723  22.76744  22.77743  22.81774
 Alpha virt. eigenvalues --   22.82821  22.83202  22.84253  22.86053  22.90042
 Alpha virt. eigenvalues --   23.04292  23.17052  23.32614  23.37932  23.55637
 Alpha virt. eigenvalues --   32.59593  32.85671  44.12894  44.39570  44.43393
          Condensed to atoms (all electrons):
 Mulliken charges:
               1
     1  O   -0.416074
     2  C    0.357009
     3  N   -0.329541
     4  C    0.275044
     5  N   -0.310773
     6  C   -0.081901
     7  C   -0.197663
     8  C    0.216991
     9  C   -0.220286
    10  C   -0.242609
    11  C   -0.241434
    12  C   -0.330976
    13  C    0.078891
    14  C   -0.188661
    15  C   -0.210383
    16  C   -0.042912
    17  B    0.428965
    18  O   -0.334467
    19  C    0.130028
    20  C   -0.432630
    21  C   -0.499310
    22  C    0.130057
    23  C   -0.499422
    24  C   -0.432617
    25  O   -0.336234
    26  C   -0.172756
    27  C   -0.162819
    28  H    0.247249
    29  H    0.140510
    30  H    0.137063
    31  H    0.118063
    32  H    0.159259
    33  H    0.138901
    34  H    0.138936
    35  H    0.157831
    36  H    0.238092
    37  H    0.157452
    38  H    0.159042
    39  H    0.158927
    40  H    0.155764
    41  H    0.159410
    42  H    0.164117
    43  H    0.166231
    44  H    0.165890
    45  H    0.164209
    46  H    0.166998
    47  H    0.165173
    48  H    0.155950
    49  H    0.158984
    50  H    0.158679
    51  H    0.159121
    52  H    0.174632
 Sum of Mulliken charges =  -0.00000
 Mulliken charges with hydrogens summed into heavy atoms:
               1
     1  O   -0.416074
     2  C    0.357009
     3  N   -0.082292
     4  C    0.275044
     5  N   -0.310773
     6  C    0.058609
     7  C   -0.060599
     8  C    0.216991
     9  C   -0.102223
    10  C    0.055550
    11  C    0.055334
    12  C   -0.092884
    13  C    0.078891
    14  C   -0.031209
    15  C   -0.051342
    16  C   -0.042912
    17  B    0.428965
    18  O   -0.334467
    19  C    0.130028
    20  C    0.041471
    21  C   -0.003072
    22  C    0.130057
    23  C   -0.003042
    24  C    0.040996
    25  O   -0.336234
    26  C   -0.013635
    27  C    0.011813
 Electronic spatial extent (au):  <R**2>=          20188.5556
 Charge=              0.0000 electrons
 Dipole moment (field-independent basis, Debye):
    X=              2.4875    Y=              0.8308    Z=             -0.0047  Tot=              2.6225
 Quadrupole moment (field-independent basis, Debye-Ang):
   XX=           -107.0863   YY=           -161.0188   ZZ=           -162.0920
   XY=              0.7963   XZ=             -0.6040   YZ=              1.7749
 Traceless Quadrupole moment (field-independent basis, Debye-Ang):
   XX=             36.3128   YY=            -17.6198   ZZ=            -18.6930
   XY=              0.7963   XZ=             -0.6040   YZ=              1.7749
 Octapole moment (field-independent basis, Debye-Ang**2):
  XXX=             12.1566  YYY=              3.9766  ZZZ=              2.7653  XYY=              3.2142
  XXY=            -12.3940  XXZ=              4.3520  XZZ=             30.0925  YZZ=             -5.8686
  YYZ=             -3.7559  XYZ=              6.9340
 Hexadecapole moment (field-independent basis, Debye-Ang**3):
 XXXX=         -21095.0093 YYYY=          -1900.8180 ZZZZ=           -691.8419 XXXY=            147.2813
 XXXZ=            -33.5292 YYYX=            -54.8094 YYYZ=             22.6300 ZZZX=            -17.8071
 ZZZY=             -0.6321 XXYY=          -4396.4707 XXZZ=          -4364.1172 YYZZ=           -429.3742
 XXYZ=            -24.5528 YYXZ=             21.7904 ZZXY=             36.4171
 N-N= 2.239852288869D+03 E-N=-7.215296737341D+03  KE= 1.169134908065D+03
 Unable to Open any file for archive entry.
 1\1\GINC-COMPUTE-0-32\SP\RM062X\def2TZVP\C21H25B1N2O3\ZTAN64\14-Aug-20
 24\0\\# M062X/def2tzvp int=(grid=ultrafine) nmr=giao guess=read geom=c
 heck\\pyrd4.xyz\\0,1\O,0,2.7930108772,0.8609687017,2.0687957962\C,0,1.
 9249635578,0.9874132165,2.9278362378\N,0,2.194771363,1.284034916,4.243
 3063764\C,0,3.4304385053,1.5292502891,4.8581109419\N,0,3.31379934,1.72
 78081706,6.1801909467\C,0,4.4399214293,1.9762073075,6.8546215961\C,0,5
 .6986741207,2.0383875978,6.2661525385\C,0,5.8125676527,1.8290724481,4.
 8850314289\C,0,7.1412642042,1.8852420528,4.2268952037\C,0,7.4683238075
 ,0.9704428082,3.0590976264\C,0,7.2885222723,2.4366995248,2.8191836764\
 C,0,4.643158332,1.5672302774,4.1640703001\C,0,0.4708100324,0.806584184
 ,2.6054929751\C,0,-0.5670303806,1.3549854518,3.3724890338\C,0,-1.89257
 52343,1.148873167,3.002390733\C,0,-2.2175872924,0.3912545484,1.8660726
 842\B,0,-3.6982579339,0.1588797062,1.4642441029\O,0,-4.0745665976,-0.5
 115242841,0.3277250193\C,0,-5.5117039031,-0.7272390331,0.4163358236\C,
 0,-6.1059790076,-0.6289920908,-0.982603327\C,0,-5.7081622778,-2.136070
 1602,0.9826493694\C,0,-5.9582686024,0.4072209457,1.4095278736\C,0,-6.2
 420278173,1.7408087152,0.7130198861\C,0,-7.1089747495,0.0358896624,2.3
 35768339\O,0,-4.7595842866,0.6039109469,2.2121799378\C,0,-1.1676072868
 ,-0.1421151242,1.0995458643\C,0,0.1589153914,0.0682218416,1.4566786003
 \H,0,1.4367647982,1.2656606958,4.9110789282\H,0,4.326124092,2.13393109
 88,7.9251808135\H,0,6.5762984666,2.2442279952,6.8700526737\H,0,7.96090
 5896,2.0972317229,4.9073461825\H,0,6.6848880444,0.2957277467,2.7290863
 823\H,0,8.4697422931,0.5543847397,3.0164861525\H,0,8.1646380411,3.0418
 557292,2.6094948371\H,0,6.3817052267,2.7690876301,2.3241313888\H,0,4.6
 417386273,1.3877860882,3.0990863338\H,0,-0.3498925974,1.9760823605,4.2
 366161613\H,0,-2.69184389,1.5842255037,3.5941727832\H,0,-5.8429376375,
 0.3134524695,-1.4644330221\H,0,-7.1967154818,-0.7120967264,-0.94456260
 14\H,0,-5.7243518737,-1.4449590874,-1.6018430497\H,0,-6.7659023486,-2.
 4107737399,1.0194221262\H,0,-5.2913782363,-2.2174309742,1.9899405748\H
 ,0,-5.1867845889,-2.850250309,0.3406563045\H,0,-7.1711386562,1.7040559
 976,0.1376861231\H,0,-5.4256360886,2.0154068429,0.0399468709\H,0,-6.33
 47070705,2.5223016498,1.4711576488\H,0,-8.0103603851,-0.1922155833,1.7
 582448989\H,0,-7.333345419,0.8762909649,2.9978412429\H,0,-6.8621996158
 ,-0.8271001301,2.9553883515\H,0,-1.4037323543,-0.7255574909,0.21488910
 05\H,0,0.9759052425,-0.3283709814,0.8646232101\\Version=ES64L-G16RevC.
 01\State=1-A\HF=-1175.4037349\RMSD=2.854e-09\Dipole=-1.0297167,-0.0652
 687,0.0016883\Quadrupole=22.7693174,-12.0433249,-10.7259925,5.825688,1
 0.7794439,3.1156026\PG=C01 [X(C21H25B1N2O3)]\\@
 The archive entry for this job was punched.


 PATIENCE IS THE ABILITY TO IDLE YOUR MOTOR WHEN
 YOU FEEL LIKE STRIPPING YOUR GEARS.
 Job cpu time:       0 days  4 hours 16 minutes 45.3 seconds.
 Elapsed time:       0 days  0 hours 17 minutes 17.8 seconds.
 File lengths (MBytes):  RWF=    543 Int=      0 D2E=      0 Chk=     88 Scr=      1
 Normal termination of Gaussian 16 at Wed Aug 14 20:19:28 2024.
 
 
-----Kestrel cluster job statistics-----
Time info:

real	84m41.022s
user	1332m8.980s
sys	0m42.222s
 
Disk space usage:
88M	/scratch/362964.kestrel.chem.wisc.edu
