 Entering Gaussian System, Link 0=/share/apps/gaussian/g16/g16
 Initial command:
 /share/apps/gaussian/g16/l1.exe "/scratch/362958.kestrel.chem.wisc.edu/Gau-260817.inp" -scrdir="/scratch/362958.kestrel.chem.wisc.edu/"
 Entering Link 1 = /share/apps/gaussian/g16/l1.exe PID=    260818.
  
 Copyright (c) 1988-2019, Gaussian, Inc.  All Rights Reserved.
  
 This is part of the Gaussian(R) 16 program.  It is based on
 the Gaussian(R) 09 system (copyright 2009, Gaussian, Inc.),
 the Gaussian(R) 03 system (copyright 2003, Gaussian, Inc.),
 the Gaussian(R) 98 system (copyright 1998, Gaussian, Inc.),
 the Gaussian(R) 94 system (copyright 1995, Gaussian, Inc.),
 the Gaussian 92(TM) system (copyright 1992, Gaussian, Inc.),
 the Gaussian 90(TM) system (copyright 1990, Gaussian, Inc.),
 the Gaussian 88(TM) system (copyright 1988, Gaussian, Inc.),
 the Gaussian 86(TM) system (copyright 1986, Carnegie Mellon
 University), and the Gaussian 82(TM) system (copyright 1983,
 Carnegie Mellon University). Gaussian is a federally registered
 trademark of Gaussian, Inc.
  
 This software contains proprietary and confidential information,
 including trade secrets, belonging to Gaussian, Inc.
  
 This software is provided under written license and may be
 used, copied, transmitted, or stored only in accord with that
 written license.
  
 The following legend is applicable only to US Government
 contracts under FAR:
  
                    RESTRICTED RIGHTS LEGEND
  
 Use, reproduction and disclosure by the US Government is
 subject to restrictions as set forth in subparagraphs (a)
 and (c) of the Commercial Computer Software - Restricted
 Rights clause in FAR 52.227-19.
  
 Gaussian, Inc.
 340 Quinnipiac St., Bldg. 40, Wallingford CT 06492
  
  
 ---------------------------------------------------------------
 Warning -- This program may not be used in any manner that
 competes with the business of Gaussian, Inc. or will provide
 assistance to any competitor of Gaussian, Inc.  The licensee
 of this program is prohibited from giving any competitor of
 Gaussian, Inc. access to this program.  By using this program,
 the user acknowledges that Gaussian, Inc. is engaged in the
 business of creating and licensing software in the field of
 computational chemistry and represents and warrants to the
 licensee that it is not a competitor of Gaussian, Inc. and that
 it will not use this program in any manner prohibited above.
 ---------------------------------------------------------------
  

 Cite this work as:
 Gaussian 16, Revision C.01,
 M. J. Frisch, G. W. Trucks, H. B. Schlegel, G. E. Scuseria, 
 M. A. Robb, J. R. Cheeseman, G. Scalmani, V. Barone, 
 G. A. Petersson, H. Nakatsuji, X. Li, M. Caricato, A. V. Marenich, 
 J. Bloino, B. G. Janesko, R. Gomperts, B. Mennucci, H. P. Hratchian, 
 J. V. Ortiz, A. F. Izmaylov, J. L. Sonnenberg, D. Williams-Young, 
 F. Ding, F. Lipparini, F. Egidi, J. Goings, B. Peng, A. Petrone, 
 T. Henderson, D. Ranasinghe, V. G. Zakrzewski, J. Gao, N. Rega, 
 G. Zheng, W. Liang, M. Hada, M. Ehara, K. Toyota, R. Fukuda, 
 J. Hasegawa, M. Ishida, T. Nakajima, Y. Honda, O. Kitao, H. Nakai, 
 T. Vreven, K. Throssell, J. A. Montgomery, Jr., J. E. Peralta, 
 F. Ogliaro, M. J. Bearpark, J. J. Heyd, E. N. Brothers, K. N. Kudin, 
 V. N. Staroverov, T. A. Keith, R. Kobayashi, J. Normand, 
 K. Raghavachari, A. P. Rendell, J. C. Burant, S. S. Iyengar, 
 J. Tomasi, M. Cossi, J. M. Millam, M. Klene, C. Adamo, R. Cammi, 
 J. W. Ochterski, R. L. Martin, K. Morokuma, O. Farkas, 
 J. B. Foresman, and D. J. Fox, Gaussian, Inc., Wallingford CT, 2019.
 
 ******************************************
 Gaussian 16:  ES64L-G16RevC.01  3-Jul-2019
                14-Aug-2024 
 ******************************************
 %nprocs=16
 Will use up to   16 processors via shared memory.
 %mem=16GB
 %chk=pyrd11_conf-2.chk
 ----------------------------------------------------------------------
 # B3LYP/6-31G(d,p) symmetry=loose empiricaldispersion=GD3BJ int=(grid=
 ultrafine) opt freq=noraman
 ----------------------------------------------------------------------
 1/18=20,19=15,26=4,38=1/1,3;
 2/9=110,12=2,17=4,18=3,40=1/2;
 3/5=1,6=6,7=101,11=2,25=1,30=1,71=1,74=-5,75=-5,124=41/1,2,3;
 4//1;
 5/5=2,38=5/2;
 6/7=2,8=2,9=2,10=2,28=1/1;
 7//1,2,3,16;
 1/18=20,19=15,26=4/3(2);
 2/9=110/2;
 99//99;
 2/9=110/2;
 3/5=1,6=6,7=101,11=2,25=1,30=1,71=1,74=-5,75=-5,124=41/1,2,3;
 4/5=5,16=3,69=1/1;
 5/5=2,38=5/2;
 7//1,2,3,16;
 1/18=20,19=15,26=4/3(-5);
 2/9=110/2;
 6/7=2,8=2,9=2,10=2,19=2,28=1/1;
 99/9=1/99;
 ----------
 pyrd11.xyz
 ----------
 Symbolic Z-matrix:
 Charge =  0 Multiplicity = 1
 Cl                   -3.5701    0.6398    1.3639 
 C                    -2.2129    0.8409    0.3089 
 C                    -1.089    -0.0064    0.3638 
 C                    -1.0678   -1.1895    1.3368 
 C                    -0.0212    0.2557   -0.5309 
 C                     1.2584   -0.5237   -0.5563 
 O                     1.7776   -0.7078    0.6815 
 C                     3.0108   -1.3943    0.8457 
 O                     1.8074   -0.9131   -1.5909 
 N                    -0.0734    1.2769   -1.4318 
 C                    -1.1701    2.0685   -1.4672 
 C                    -2.2528    1.8862   -0.6127 
 H                    -0.5779   -0.9088    2.2694 
 H                    -0.5426   -2.0449    0.9116 
 H                    -2.0687   -1.5565    1.5622 
 H                     2.9476   -2.4124    0.458 
 H                     3.818    -0.8782    0.3233 
 H                     3.2702   -1.448     1.903 
 H                    -1.1617    2.8636   -2.1998 
 H                    -3.1124    2.5384   -0.6609 
 

 GradGradGradGradGradGradGradGradGradGradGradGradGradGradGradGradGradGrad
 Berny optimization.
 Initialization pass.
                           ----------------------------
                           !    Initial Parameters    !
                           ! (Angstroms and Degrees)  !
 --------------------------                            --------------------------
 ! Name  Definition              Value          Derivative Info.                !
 --------------------------------------------------------------------------------
 ! R1    R(1,2)                  1.7307         estimate D2E/DX2                !
 ! R2    R(2,3)                  1.4086         estimate D2E/DX2                !
 ! R3    R(2,12)                 1.3941         estimate D2E/DX2                !
 ! R4    R(3,4)                  1.532          estimate D2E/DX2                !
 ! R5    R(3,5)                  1.4175         estimate D2E/DX2                !
 ! R6    R(4,13)                 1.0902         estimate D2E/DX2                !
 ! R7    R(4,14)                 1.0901         estimate D2E/DX2                !
 ! R8    R(4,15)                 1.0896         estimate D2E/DX2                !
 ! R9    R(5,6)                  1.4985         estimate D2E/DX2                !
 ! R10   R(5,10)                 1.3628         estimate D2E/DX2                !
 ! R11   R(6,7)                  1.3548         estimate D2E/DX2                !
 ! R12   R(6,9)                  1.2343         estimate D2E/DX2                !
 ! R13   R(7,8)                  1.4209         estimate D2E/DX2                !
 ! R14   R(8,16)                 1.0913         estimate D2E/DX2                !
 ! R15   R(8,17)                 1.0913         estimate D2E/DX2                !
 ! R16   R(8,18)                 1.09           estimate D2E/DX2                !
 ! R17   R(10,11)                1.353          estimate D2E/DX2                !
 ! R18   R(11,12)                1.3913         estimate D2E/DX2                !
 ! R19   R(11,19)                1.0812         estimate D2E/DX2                !
 ! R20   R(12,20)                1.0801         estimate D2E/DX2                !
 ! A1    A(1,2,3)              122.1433         estimate D2E/DX2                !
 ! A2    A(1,2,12)             117.881          estimate D2E/DX2                !
 ! A3    A(3,2,12)             119.9749         estimate D2E/DX2                !
 ! A4    A(2,3,4)              120.0228         estimate D2E/DX2                !
 ! A5    A(2,3,5)              117.7246         estimate D2E/DX2                !
 ! A6    A(4,3,5)              122.2251         estimate D2E/DX2                !
 ! A7    A(3,4,13)             110.5298         estimate D2E/DX2                !
 ! A8    A(3,4,14)             111.4034         estimate D2E/DX2                !
 ! A9    A(3,4,15)             112.2584         estimate D2E/DX2                !
 ! A10   A(13,4,14)            108.6149         estimate D2E/DX2                !
 ! A11   A(13,4,15)            108.8166         estimate D2E/DX2                !
 ! A12   A(14,4,15)            105.0076         estimate D2E/DX2                !
 ! A13   A(3,5,6)              123.9021         estimate D2E/DX2                !
 ! A14   A(3,5,10)             121.7995         estimate D2E/DX2                !
 ! A15   A(6,5,10)             114.2836         estimate D2E/DX2                !
 ! A16   A(5,6,7)              112.4841         estimate D2E/DX2                !
 ! A17   A(5,6,9)              123.9261         estimate D2E/DX2                !
 ! A18   A(7,6,9)              123.5379         estimate D2E/DX2                !
 ! A19   A(6,7,8)              120.2526         estimate D2E/DX2                !
 ! A20   A(7,8,16)             111.0652         estimate D2E/DX2                !
 ! A21   A(7,8,17)             110.9872         estimate D2E/DX2                !
 ! A22   A(7,8,18)             110.0257         estimate D2E/DX2                !
 ! A23   A(16,8,17)            108.3005         estimate D2E/DX2                !
 ! A24   A(16,8,18)            108.2067         estimate D2E/DX2                !
 ! A25   A(17,8,18)            108.1572         estimate D2E/DX2                !
 ! A26   A(5,10,11)            119.1279         estimate D2E/DX2                !
 ! A27   A(10,11,12)           122.5514         estimate D2E/DX2                !
 ! A28   A(10,11,19)           116.2116         estimate D2E/DX2                !
 ! A29   A(12,11,19)           121.2365         estimate D2E/DX2                !
 ! A30   A(2,12,11)            118.8152         estimate D2E/DX2                !
 ! A31   A(2,12,20)            120.3332         estimate D2E/DX2                !
 ! A32   A(11,12,20)           120.8514         estimate D2E/DX2                !
 ! D1    D(1,2,3,4)              2.7934         estimate D2E/DX2                !
 ! D2    D(1,2,3,5)           -179.0722         estimate D2E/DX2                !
 ! D3    D(12,2,3,4)          -177.5282         estimate D2E/DX2                !
 ! D4    D(12,2,3,5)             0.6063         estimate D2E/DX2                !
 ! D5    D(1,2,12,11)          179.7817         estimate D2E/DX2                !
 ! D6    D(1,2,12,20)           -0.4089         estimate D2E/DX2                !
 ! D7    D(3,2,12,11)            0.0897         estimate D2E/DX2                !
 ! D8    D(3,2,12,20)          179.8991         estimate D2E/DX2                !
 ! D9    D(2,3,4,13)           -94.353          estimate D2E/DX2                !
 ! D10   D(2,3,4,14)           144.7909         estimate D2E/DX2                !
 ! D11   D(2,3,4,15)            27.3428         estimate D2E/DX2                !
 ! D12   D(5,3,4,13)            87.5991         estimate D2E/DX2                !
 ! D13   D(5,3,4,14)           -33.257          estimate D2E/DX2                !
 ! D14   D(5,3,4,15)          -150.705          estimate D2E/DX2                !
 ! D15   D(2,3,5,6)            177.6081         estimate D2E/DX2                !
 ! D16   D(2,3,5,10)            -0.9111         estimate D2E/DX2                !
 ! D17   D(4,3,5,6)             -4.3013         estimate D2E/DX2                !
 ! D18   D(4,3,5,10)           177.1795         estimate D2E/DX2                !
 ! D19   D(3,5,6,7)            -46.6538         estimate D2E/DX2                !
 ! D20   D(3,5,6,9)            135.8894         estimate D2E/DX2                !
 ! D21   D(10,5,6,7)           131.9655         estimate D2E/DX2                !
 ! D22   D(10,5,6,9)           -45.4913         estimate D2E/DX2                !
 ! D23   D(3,5,10,11)            0.4821         estimate D2E/DX2                !
 ! D24   D(6,5,10,11)         -178.1695         estimate D2E/DX2                !
 ! D25   D(5,6,7,8)           -178.2248         estimate D2E/DX2                !
 ! D26   D(9,6,7,8)             -0.7565         estimate D2E/DX2                !
 ! D27   D(6,7,8,16)           -60.16           estimate D2E/DX2                !
 ! D28   D(6,7,8,17)            60.3807         estimate D2E/DX2                !
 ! D29   D(6,7,8,18)          -179.9454         estimate D2E/DX2                !
 ! D30   D(5,10,11,12)           0.2706         estimate D2E/DX2                !
 ! D31   D(5,10,11,19)        -179.9848         estimate D2E/DX2                !
 ! D32   D(10,11,12,2)          -0.5554         estimate D2E/DX2                !
 ! D33   D(10,11,12,20)        179.6362         estimate D2E/DX2                !
 ! D34   D(19,11,12,2)         179.7125         estimate D2E/DX2                !
 ! D35   D(19,11,12,20)         -0.0958         estimate D2E/DX2                !
 --------------------------------------------------------------------------------
 Trust Radius=3.00D-01 FncErr=1.00D-07 GrdErr=1.00D-06 EigMax=2.50D+02 EigMin=1.00D-04
 Number of steps in this run=     97 maximum allowed number of steps=    120.
 GradGradGradGradGradGradGradGradGradGradGradGradGradGradGradGradGradGrad

                          Input orientation:                          
 ---------------------------------------------------------------------
 Center     Atomic      Atomic             Coordinates (Angstroms)
 Number     Number       Type             X           Y           Z
 ---------------------------------------------------------------------
      1         17           0       -3.570100    0.639800    1.363900
      2          6           0       -2.212900    0.840900    0.308900
      3          6           0       -1.089000   -0.006400    0.363800
      4          6           0       -1.067800   -1.189500    1.336800
      5          6           0       -0.021200    0.255700   -0.530900
      6          6           0        1.258400   -0.523700   -0.556300
      7          8           0        1.777600   -0.707800    0.681500
      8          6           0        3.010800   -1.394300    0.845700
      9          8           0        1.807400   -0.913100   -1.590900
     10          7           0       -0.073400    1.276900   -1.431800
     11          6           0       -1.170100    2.068500   -1.467200
     12          6           0       -2.252800    1.886200   -0.612700
     13          1           0       -0.577900   -0.908800    2.269400
     14          1           0       -0.542600   -2.044900    0.911600
     15          1           0       -2.068700   -1.556500    1.562200
     16          1           0        2.947600   -2.412400    0.458000
     17          1           0        3.818000   -0.878200    0.323300
     18          1           0        3.270200   -1.448000    1.903000
     19          1           0       -1.161700    2.863600   -2.199800
     20          1           0       -3.112400    2.538400   -0.660900
 ---------------------------------------------------------------------
                    Distance matrix (angstroms):
                    1          2          3          4          5
     1  Cl   0.000000
     2  C    1.730739   0.000000
     3  C    2.752023   1.408575   0.000000
     4  C    3.099771   2.547618   1.531961   0.000000
     5  C    4.041348   2.418940   1.417526   2.583075   0.000000
     6  C    5.324971   3.828920   2.573805   3.072185   1.498494
     7  O    5.556941   4.296672   2.968213   2.959350   2.373590
     8  C    6.907557   5.707128   4.355095   4.113162   3.716255
     9  O    6.329285   4.780018   3.609999   4.112736   2.415258
    10  N    4.522029   2.792417   2.429502   3.838894   1.362789
    11  C    3.976973   2.397700   2.768456   4.299703   2.341553
    12  C    2.682488   1.394127   2.426915   3.829452   2.765006
    13  H    3.488747   3.094872   2.169530   1.090201   3.083449
    14  H    4.071602   3.388361   2.180394   1.090110   2.765036
    15  H    2.667819   2.709074   2.190613   1.089631   3.443457
    16  H    7.253757   6.102209   4.700197   4.288498   4.112232
    17  H    7.613882   6.271146   4.984007   4.999513   4.093268
    18  H    7.172116   6.151797   4.842517   4.382425   4.433935
    19  H    4.842069   3.389677   3.848926   5.379961   3.299562
    20  H    2.813181   2.152003   3.408836   4.697705   3.844884
                    6          7          8          9         10
     6  C    0.000000
     7  O    1.354847   0.000000
     8  C    2.407167   1.420924   0.000000
     9  O    1.234273   2.281850   2.759845   0.000000
    10  N    2.404652   3.439662   4.672751   2.891163   0.000000
    11  C    3.666995   4.584069   5.900883   4.215536   1.353009
    12  C    4.259029   4.964667   6.371350   5.027741   2.406648
    13  H    3.391884   2.847843   3.891195   4.537796   4.327896
    14  H    2.777117   2.687771   3.613070   3.614689   4.092191
    15  H    4.077292   4.036081   5.132349   5.037872   4.579674
    16  H    2.729357   2.079546   1.091253   2.783154   5.129203
    17  H    2.729637   2.078599   1.091253   2.776309   4.782032
    18  H    3.309052   2.065869   1.089980   3.825342   5.452122
    19  H    4.475687   5.449429   6.694366   4.842497   2.071675
    20  H    5.337723   6.020959   7.431659   6.081298   3.379525
                   11         12         13         14         15
    11  C    0.000000
    12  C    1.391274   0.000000
    13  H    4.814270   4.350151   0.000000
    14  H    4.792964   4.549925   1.770760   0.000000
    15  H    4.808885   4.076305   1.772606   1.729392   0.000000
    16  H    6.382814   6.831436   4.239237   3.538687   5.207215
    17  H    6.063833   6.735920   4.807513   4.552155   6.053776
    18  H    6.590924   6.924534   3.902930   3.984546   5.350866
    19  H    1.081183   2.159791   5.877548   5.844439   5.874741
    20  H    2.154868   1.080093   5.185898   5.484822   4.774902
                   16         17         18         19         20
    16  H    0.000000
    17  H    1.769042   0.000000
    18  H    1.766964   1.766411   0.000000
    19  H    7.196278   6.720455   7.420553   0.000000
    20  H    7.904806   7.789239   7.950003   2.505833   0.000000
 Stoichiometry    C8H8ClNO2
 Framework group  C1[X(C8H8ClNO2)]
 Deg. of freedom    54
 Full point group                 C1      NOp   1
 Largest Abelian subgroup         C1      NOp   1
 Largest concise Abelian subgroup C1      NOp   1
                         Standard orientation:                         
 ---------------------------------------------------------------------
 Center     Atomic      Atomic             Coordinates (Angstroms)
 Number     Number       Type             X           Y           Z
 ---------------------------------------------------------------------
      1         17           0        3.139163   -1.108071   -0.020099
      2          6           0        1.827814    0.021369   -0.033789
      3          6           0        0.490763   -0.380365    0.153260
      4          6           0        0.164945   -1.849213    0.441758
      5          6           0       -0.511614    0.620750    0.104374
      6          6           0       -1.978294    0.342001    0.233352
      7          8           0       -2.378175   -0.696747   -0.539117
      8          6           0       -3.746241   -1.079282   -0.572111
      9          8           0       -2.748661    1.012744    0.926223
     10          7           0       -0.206209    1.933527   -0.096968
     11          6           0        1.088097    2.290422   -0.264398
     12          6           0        2.127952    1.366318   -0.245021
     13          1           0       -0.078353   -2.375350   -0.481564
     14          1           0       -0.677119   -1.942606    1.127722
     15          1           0        0.988500   -2.365677    0.934015
     16          1           0       -4.096530   -1.369037    0.419944
     17          1           0       -4.372393   -0.260792   -0.931058
     18          1           0       -3.880297   -1.928517   -1.242100
     19          1           0        1.276733    3.343529   -0.420410
     20          1           0        3.151321    1.680990   -0.387492
 ---------------------------------------------------------------------
 Rotational constants (GHZ):           1.5126853           0.5133371           0.4032613
 Standard basis: 6-31G(d,p) (6D, 7F)
 There are   224 symmetry adapted cartesian basis functions of A   symmetry.
 There are   224 symmetry adapted basis functions of A   symmetry.
   224 basis functions,   416 primitive gaussians,   224 cartesian basis functions
    48 alpha electrons       48 beta electrons
       nuclear repulsion energy       762.8434814356 Hartrees.
 NAtoms=   20 NActive=   20 NUniq=   20 SFac= 1.00D+00 NAtFMM=   60 NAOKFM=F Big=F
 Integral buffers will be    131072 words long.
 Raffenetti 2 integral format.
 Two-electron integral symmetry is turned on.
 Nuclear repulsion after empirical dispersion term =      762.8042935511 Hartrees.
 One-electron integrals computed using PRISM.
 NBasis=   224 RedAO= T EigKep=  6.99D-04  NBF=   224
 NBsUse=   224 1.00D-06 EigRej= -1.00D+00 NBFU=   224
 ExpMin= 1.43D-01 ExpMax= 2.52D+04 ExpMxC= 3.78D+03 IAcc=3 IRadAn=         5 AccDes= 0.00D+00
 Harris functional with IExCor=  402 and IRadAn=       5 diagonalized for initial guess.
 HarFok:  IExCor=  402 AccDes= 0.00D+00 IRadAn=         5 IDoV= 1 UseB2=F ITyADJ=14
 ICtDFT=  3500011 ScaDFX=  1.000000  1.000000  1.000000  1.000000
 FoFCou: FMM=F IPFlag=           0 FMFlag=      100000 FMFlg1=           0
         NFxFlg=           0 DoJE=T BraDBF=F KetDBF=T FulRan=T
         wScrn=  0.000000 ICntrl=       500 IOpCl=  0 I1Cent=   200000004 NGrid=           0
         NMat0=    1 NMatS0=      1 NMatT0=    0 NMatD0=    1 NMtDS0=    0 NMtDT0=    0
 Petite list used in FoFCou.
 Requested convergence on RMS density matrix=1.00D-08 within 128 cycles.
 Requested convergence on MAX density matrix=1.00D-06.
 Requested convergence on             energy=1.00D-06.
 No special actions if energy rises.
 Integral accuracy reduced to 1.0D-05 until final iterations.
 Initial convergence to 1.0D-05 achieved.  Increase integral accuracy.
 SCF Done:  E(RB3LYP) =  -975.109945580     A.U. after   15 cycles
            NFock= 15  Conv=0.64D-08     -V/T= 2.0066

 **********************************************************************

            Population analysis using the SCF Density.

 **********************************************************************

 Orbital symmetries:
       Occupied  (A) (A) (A) (A) (A) (A) (A) (A) (A) (A) (A) (A)
                 (A) (A) (A) (A) (A) (A) (A) (A) (A) (A) (A) (A)
                 (A) (A) (A) (A) (A) (A) (A) (A) (A) (A) (A) (A)
                 (A) (A) (A) (A) (A) (A) (A) (A) (A) (A) (A) (A)
       Virtual   (A) (A) (A) (A) (A) (A) (A) (A) (A) (A) (A) (A)
                 (A) (A) (A) (A) (A) (A) (A) (A) (A) (A) (A) (A)
                 (A) (A) (A) (A) (A) (A) (A) (A) (A) (A) (A) (A)
                 (A) (A) (A) (A) (A) (A) (A) (A) (A) (A) (A) (A)
                 (A) (A) (A) (A) (A) (A) (A) (A) (A) (A) (A) (A)
                 (A) (A) (A) (A) (A) (A) (A) (A) (A) (A) (A) (A)
                 (A) (A) (A) (A) (A) (A) (A) (A) (A) (A) (A) (A)
                 (A) (A) (A) (A) (A) (A) (A) (A) (A) (A) (A) (A)
                 (A) (A) (A) (A) (A) (A) (A) (A) (A) (A) (A) (A)
                 (A) (A) (A) (A) (A) (A) (A) (A) (A) (A) (A) (A)
                 (A) (A) (A) (A) (A) (A) (A) (A) (A) (A) (A) (A)
                 (A) (A) (A) (A) (A) (A) (A) (A) (A) (A) (A) (A)
                 (A) (A) (A) (A) (A) (A) (A) (A) (A) (A) (A) (A)
                 (A) (A) (A) (A) (A) (A) (A) (A) (A) (A) (A) (A)
                 (A) (A) (A) (A) (A) (A) (A) (A)
 The electronic state is 1-A.
 Alpha  occ. eigenvalues -- -101.56782 -19.20298 -19.14054 -14.34691 -10.32679
 Alpha  occ. eigenvalues --  -10.27592 -10.25380 -10.24860 -10.23935 -10.23626
 Alpha  occ. eigenvalues --  -10.21953 -10.19780  -9.48439  -7.24834  -7.23877
 Alpha  occ. eigenvalues --   -7.23816  -1.10490  -1.01080  -0.95138  -0.89753
 Alpha  occ. eigenvalues --   -0.80917  -0.78980  -0.74583  -0.71171  -0.65645
 Alpha  occ. eigenvalues --   -0.62042  -0.57999  -0.53734  -0.51938  -0.49632
 Alpha  occ. eigenvalues --   -0.48422  -0.47282  -0.45182  -0.44428  -0.43336
 Alpha  occ. eigenvalues --   -0.42531  -0.40547  -0.40495  -0.39472  -0.38078
 Alpha  occ. eigenvalues --   -0.36304  -0.35492  -0.32987  -0.30404  -0.28631
 Alpha  occ. eigenvalues --   -0.27347  -0.26902  -0.26337
 Alpha virt. eigenvalues --   -0.05731  -0.03576   0.01639   0.02679   0.09771
 Alpha virt. eigenvalues --    0.10865   0.12390   0.12747   0.13213   0.14586
 Alpha virt. eigenvalues --    0.15788   0.16546   0.16842   0.18493   0.20421
 Alpha virt. eigenvalues --    0.22763   0.24324   0.27502   0.28723   0.32523
 Alpha virt. eigenvalues --    0.34112   0.36043   0.39163   0.39562   0.42940
 Alpha virt. eigenvalues --    0.43828   0.45119   0.48980   0.49816   0.50612
 Alpha virt. eigenvalues --    0.51042   0.52346   0.53140   0.55368   0.55996
 Alpha virt. eigenvalues --    0.57207   0.58336   0.59847   0.62024   0.62222
 Alpha virt. eigenvalues --    0.63495   0.64593   0.66455   0.67995   0.68488
 Alpha virt. eigenvalues --    0.71129   0.72803   0.74589   0.76148   0.79445
 Alpha virt. eigenvalues --    0.81195   0.82490   0.82512   0.83177   0.84141
 Alpha virt. eigenvalues --    0.85384   0.86025   0.86904   0.89035   0.89687
 Alpha virt. eigenvalues --    0.90610   0.90835   0.94128   0.95293   0.95948
 Alpha virt. eigenvalues --    0.96795   0.98045   0.99126   1.05787   1.07114
 Alpha virt. eigenvalues --    1.08157   1.09213   1.11973   1.13925   1.18526
 Alpha virt. eigenvalues --    1.21550   1.22763   1.23948   1.27127   1.30513
 Alpha virt. eigenvalues --    1.34433   1.34850   1.38244   1.39472   1.39943
 Alpha virt. eigenvalues --    1.45557   1.45746   1.47596   1.51113   1.54878
 Alpha virt. eigenvalues --    1.60878   1.63972   1.66549   1.68306   1.69336
 Alpha virt. eigenvalues --    1.72358   1.77182   1.77396   1.80097   1.83411
 Alpha virt. eigenvalues --    1.84084   1.85144   1.86963   1.88008   1.90473
 Alpha virt. eigenvalues --    1.92402   1.95661   1.97110   1.98227   2.00871
 Alpha virt. eigenvalues --    2.02314   2.02634   2.04931   2.05406   2.07315
 Alpha virt. eigenvalues --    2.09297   2.11437   2.11881   2.12740   2.14894
 Alpha virt. eigenvalues --    2.17582   2.21323   2.28074   2.28904   2.29448
 Alpha virt. eigenvalues --    2.34885   2.36440   2.38056   2.42138   2.44944
 Alpha virt. eigenvalues --    2.45740   2.47179   2.49804   2.52081   2.53492
 Alpha virt. eigenvalues --    2.55903   2.61740   2.63031   2.64600   2.65303
 Alpha virt. eigenvalues --    2.66611   2.68876   2.70531   2.72709   2.76658
 Alpha virt. eigenvalues --    2.82802   2.84624   2.86928   2.88139   2.92729
 Alpha virt. eigenvalues --    2.94502   2.97346   3.06804   3.15265   3.17323
 Alpha virt. eigenvalues --    3.19220   3.21363   3.26967   3.28946   3.40784
 Alpha virt. eigenvalues --    3.42512   3.43890   3.46640   3.66462   4.01408
 Alpha virt. eigenvalues --    4.02920   4.07615   4.13280   4.21839   4.25236
 Alpha virt. eigenvalues --    4.31220   4.33250   4.42061   4.50800   4.52726
 Alpha virt. eigenvalues --    4.70654
          Condensed to atoms (all electrons):
               1          2          3          4          5          6
     1  Cl  16.877068   0.256673  -0.076029  -0.008889   0.004111  -0.000057
     2  C    0.256673   5.104494   0.470116  -0.069458  -0.019988   0.004228
     3  C   -0.076029   0.470116   4.883085   0.368300   0.450222  -0.060834
     4  C   -0.008889  -0.069458   0.368300   5.001260  -0.049921  -0.006524
     5  C    0.004111  -0.019988   0.450222  -0.049921   4.929422   0.314100
     6  C   -0.000057   0.004228  -0.060834  -0.006524   0.314100   4.478587
     7  O    0.000000   0.000025   0.001415   0.000167  -0.086557   0.242652
     8  C   -0.000000   0.000007  -0.000335  -0.000032   0.006672  -0.017258
     9  O    0.000000  -0.000045   0.001703  -0.000019  -0.065012   0.540208
    10  N   -0.000241  -0.055416  -0.025193   0.005494   0.420363  -0.068941
    11  C    0.004769  -0.031657  -0.037130   0.000068  -0.054542   0.005746
    12  C   -0.080791   0.498878  -0.029790   0.006948  -0.042006  -0.000104
    13  H    0.001131  -0.001175  -0.022731   0.373804  -0.001759   0.001046
    14  H    0.000456   0.004709  -0.023915   0.374841  -0.008915   0.005310
    15  H    0.005222  -0.010232  -0.021782   0.374610   0.003124  -0.000098
    16  H    0.000000  -0.000000   0.000027   0.000004   0.000089  -0.003621
    17  H   -0.000000   0.000000  -0.000024   0.000024  -0.000214  -0.004896
    18  H    0.000000  -0.000000  -0.000015  -0.000012  -0.000084   0.004011
    19  H   -0.000184   0.003052   0.001061   0.000016   0.004383  -0.000214
    20  H   -0.001826  -0.040511   0.004466  -0.000117   0.000628   0.000015
               7          8          9         10         11         12
     1  Cl   0.000000  -0.000000   0.000000  -0.000241   0.004769  -0.080791
     2  C    0.000025   0.000007  -0.000045  -0.055416  -0.031657   0.498878
     3  C    0.001415  -0.000335   0.001703  -0.025193  -0.037130  -0.029790
     4  C    0.000167  -0.000032  -0.000019   0.005494   0.000068   0.006948
     5  C   -0.086557   0.006672  -0.065012   0.420363  -0.054542  -0.042006
     6  C    0.242652  -0.017258   0.540208  -0.068941   0.005746  -0.000104
     7  O    8.248961   0.216505  -0.079034  -0.000460  -0.000057  -0.000002
     8  C    0.216505   4.715110   0.006256  -0.000081   0.000002   0.000000
     9  O   -0.079034   0.006256   8.046831  -0.000101   0.000279  -0.000019
    10  N   -0.000460  -0.000081  -0.000101   6.801854   0.450500  -0.019632
    11  C   -0.000057   0.000002   0.000279   0.450500   4.727759   0.472745
    12  C   -0.000002   0.000000  -0.000019  -0.019632   0.472745   4.968173
    13  H    0.001451  -0.000053   0.000006  -0.000085   0.000028  -0.000199
    14  H    0.000518   0.000372  -0.000071   0.000026  -0.000006  -0.000124
    15  H    0.000370  -0.000010   0.000001  -0.000091  -0.000002   0.000130
    16  H   -0.032213   0.383319   0.004879  -0.000010  -0.000000   0.000000
    17  H   -0.030944   0.385716   0.004970   0.000027   0.000000   0.000000
    18  H   -0.029507   0.388659   0.000385   0.000001  -0.000000   0.000000
    19  H    0.000001  -0.000000   0.000007  -0.048493   0.389981  -0.061984
    20  H   -0.000000   0.000000  -0.000000   0.004643  -0.030032   0.362905
              13         14         15         16         17         18
     1  Cl   0.001131   0.000456   0.005222   0.000000  -0.000000   0.000000
     2  C   -0.001175   0.004709  -0.010232  -0.000000   0.000000  -0.000000
     3  C   -0.022731  -0.023915  -0.021782   0.000027  -0.000024  -0.000015
     4  C    0.373804   0.374841   0.374610   0.000004   0.000024  -0.000012
     5  C   -0.001759  -0.008915   0.003124   0.000089  -0.000214  -0.000084
     6  C    0.001046   0.005310  -0.000098  -0.003621  -0.004896   0.004011
     7  O    0.001451   0.000518   0.000370  -0.032213  -0.030944  -0.029507
     8  C   -0.000053   0.000372  -0.000010   0.383319   0.385716   0.388659
     9  O    0.000006  -0.000071   0.000001   0.004879   0.004970   0.000385
    10  N   -0.000085   0.000026  -0.000091  -0.000010   0.000027   0.000001
    11  C    0.000028  -0.000006  -0.000002  -0.000000   0.000000  -0.000000
    12  C   -0.000199  -0.000124   0.000130   0.000000   0.000000   0.000000
    13  H    0.560006  -0.027447  -0.028958   0.000036   0.000002   0.000031
    14  H   -0.027447   0.582769  -0.032422  -0.000019   0.000008  -0.000017
    15  H   -0.028958  -0.032422   0.578576  -0.000002   0.000000  -0.000002
    16  H    0.000036  -0.000019  -0.000002   0.591664  -0.036969  -0.036657
    17  H    0.000002   0.000008   0.000000  -0.036969   0.582809  -0.036022
    18  H    0.000031  -0.000017  -0.000002  -0.036657  -0.036022   0.584638
    19  H   -0.000000   0.000000  -0.000000  -0.000000   0.000000   0.000000
    20  H    0.000002   0.000002  -0.000007   0.000000   0.000000  -0.000000
              19         20
     1  Cl  -0.000184  -0.001826
     2  C    0.003052  -0.040511
     3  C    0.001061   0.004466
     4  C    0.000016  -0.000117
     5  C    0.004383   0.000628
     6  C   -0.000214   0.000015
     7  O    0.000001  -0.000000
     8  C   -0.000000   0.000000
     9  O    0.000007  -0.000000
    10  N   -0.048493   0.004643
    11  C    0.389981  -0.030032
    12  C   -0.061984   0.362905
    13  H   -0.000000   0.000002
    14  H    0.000000   0.000002
    15  H   -0.000000  -0.000007
    16  H   -0.000000   0.000000
    17  H    0.000000   0.000000
    18  H    0.000000  -0.000000
    19  H    0.598459  -0.002409
    20  H   -0.002409   0.585636
 Mulliken charges:
               1
     1  Cl   0.018585
     2  C   -0.113701
     3  C    0.117383
     4  C   -0.370563
     5  C    0.195888
     6  C    0.566644
     7  O   -0.453289
     8  C   -0.084849
     9  O   -0.461224
    10  N   -0.464164
    11  C    0.101548
    12  C   -0.075128
    13  H    0.144863
    14  H    0.123925
    15  H    0.131572
    16  H    0.129474
    17  H    0.135514
    18  H    0.124590
    19  H    0.116325
    20  H    0.116606
 Sum of Mulliken charges =  -0.00000
 Mulliken charges with hydrogens summed into heavy atoms:
               1
     1  Cl   0.018585
     2  C   -0.113701
     3  C    0.117383
     4  C    0.029797
     5  C    0.195888
     6  C    0.566644
     7  O   -0.453289
     8  C    0.304729
     9  O   -0.461224
    10  N   -0.464164
    11  C    0.217873
    12  C    0.041478
 Electronic spatial extent (au):  <R**2>=           2626.6342
 Charge=             -0.0000 electrons
 Dipole moment (field-independent basis, Debye):
    X=              0.8799    Y=             -2.2886    Z=             -1.1991  Tot=              2.7295
 Quadrupole moment (field-independent basis, Debye-Ang):
   XX=            -70.3706   YY=            -73.5675   ZZ=            -76.9981
   XY=             13.0100   XZ=              4.3618   YZ=             -2.9348
 Traceless Quadrupole moment (field-independent basis, Debye-Ang):
   XX=              3.2748   YY=              0.0779   ZZ=             -3.3527
   XY=             13.0100   XZ=              4.3618   YZ=             -2.9348
 Octapole moment (field-independent basis, Debye-Ang**2):
  XXX=            -34.7721  YYY=             -6.4001  ZZZ=             -0.1376  XYY=             10.7783
  XXY=            -19.5420  XXZ=            -20.6484  XZZ=             -3.6092  YZZ=             -5.9906
  YYZ=             -4.6651  XYZ=              1.2835
 Hexadecapole moment (field-independent basis, Debye-Ang**3):
 XXXX=          -2165.5447 YYYY=           -820.4943 ZZZZ=           -157.9764 XXXY=             99.7503
 XXXZ=             61.4825 YYYX=             33.7072 YYYZ=             -3.5477 ZZZX=              3.0055
 ZZZY=              4.2923 XXYY=           -500.1978 XXZZ=           -422.2627 YYZZ=           -169.1096
 XXYZ=            -11.3020 YYXZ=              5.5006 ZZXY=              3.7070
 N-N= 7.628042935511D+02 E-N=-3.818135566312D+03  KE= 9.686897309206D+02
 Calling FoFJK, ICntrl=      2127 FMM=F ISym2X=0 I1Cent= 0 IOpClX= 0 NMat=1 NMatS=1 NMatT=0.
 ***** Axes restored to original set *****
 -------------------------------------------------------------------
 Center     Atomic                   Forces (Hartrees/Bohr)
 Number     Number              X              Y              Z
 -------------------------------------------------------------------
      1       17          -0.005829144   -0.002507975    0.005966836
      2        6           0.016276042    0.003545066   -0.013373128
      3        6          -0.001274372   -0.017455550    0.011265890
      4        6           0.000764473    0.003479784   -0.009916295
      5        6          -0.022270421    0.028201803   -0.005599153
      6        6           0.030211099   -0.017461161   -0.030717601
      7        8          -0.015573834    0.008422030    0.008355359
      8        6           0.010345390   -0.007145161   -0.010330771
      9        8          -0.017288949    0.011410362    0.032986864
     10        7          -0.003984750   -0.005464486    0.006316512
     11        6           0.016319036   -0.020884512    0.008889327
     12        6          -0.000009980    0.000446100   -0.000161828
     13        1           0.001067238   -0.000551754    0.001951322
     14        1           0.005444736    0.001936051   -0.000543262
     15        1          -0.002492425    0.005100394    0.000716066
     16        1          -0.001176843   -0.001102957   -0.002758083
     17        1          -0.000239263    0.001247495   -0.002966328
     18        1          -0.008045984    0.004695247    0.002183345
     19        1           0.000019975    0.002430651   -0.002191867
     20        1          -0.002262024    0.001658573   -0.000073204
 -------------------------------------------------------------------
 Cartesian Forces:  Max     0.032986864 RMS     0.011398403

 GradGradGradGradGradGradGradGradGradGradGradGradGradGradGradGradGradGrad
 Berny optimization.
 FormGI is forming the generalized inverse of G from B-inverse, IUseBI=4.
 Internal  Forces:  Max     0.038940321 RMS     0.007303382
 Search for a local minimum.
 Step number   1 out of a maximum of   97
 All quantities printed in internal units (Hartrees-Bohrs-Radians)
 Mixed Optimization -- RFO/linear search
 Second derivative matrix not updated -- first step.
 ITU=  0
     Eigenvalues ---    0.00343   0.00786   0.01271   0.01293   0.01415
     Eigenvalues ---    0.01555   0.01932   0.02063   0.02131   0.02185
     Eigenvalues ---    0.02228   0.02247   0.02289   0.06852   0.06969
     Eigenvalues ---    0.10107   0.10228   0.16000   0.16000   0.16000
     Eigenvalues ---    0.16000   0.16000   0.16000   0.16000   0.16000
     Eigenvalues ---    0.22417   0.24416   0.24984   0.24986   0.24992
     Eigenvalues ---    0.24996   0.25000   0.25000   0.25000   0.29243
     Eigenvalues ---    0.32431   0.32536   0.34668   0.34668   0.34789
     Eigenvalues ---    0.34800   0.34815   0.34855   0.35852   0.35983
     Eigenvalues ---    0.40735   0.42321   0.42816   0.45107   0.46440
     Eigenvalues ---    0.51142   0.53252   0.54003   0.89329
 RFO step:  Lambda=-1.22747401D-02 EMin= 3.43166736D-03
 Linear search not attempted -- first point.
 Iteration  1 RMS(Cart)=  0.09060840 RMS(Int)=  0.00203564
 Iteration  2 RMS(Cart)=  0.00391909 RMS(Int)=  0.00026635
 Iteration  3 RMS(Cart)=  0.00000737 RMS(Int)=  0.00026633
 Iteration  4 RMS(Cart)=  0.00000000 RMS(Int)=  0.00026633
 Variable       Old X    -DE/DX   Delta X   Delta X   Delta X     New X
                                 (Linear)    (Quad)   (Total)
    R1        3.27062   0.00850   0.00000   0.02525   0.02525   3.29588
    R2        2.66182  -0.00813   0.00000  -0.01645  -0.01641   2.64541
    R3        2.63452  -0.00262   0.00000  -0.00346  -0.00357   2.63095
    R4        2.89499  -0.01258   0.00000  -0.04128  -0.04128   2.85371
    R5        2.67874  -0.00982   0.00000  -0.02307  -0.02292   2.65582
    R6        2.06018   0.00201   0.00000   0.00557   0.00557   2.06575
    R7        2.06001   0.00132   0.00000   0.00365   0.00365   2.06366
    R8        2.05910   0.00072   0.00000   0.00199   0.00199   2.06110
    R9        2.83174  -0.00149   0.00000  -0.00441  -0.00441   2.82733
   R10        2.57530  -0.02257   0.00000  -0.04390  -0.04377   2.53152
   R11        2.56029  -0.01150   0.00000  -0.02082  -0.02082   2.53947
   R12        2.33244  -0.03894   0.00000  -0.04300  -0.04300   2.28944
   R13        2.68516   0.00028   0.00000   0.00064   0.00064   2.68579
   R14        2.06217   0.00208   0.00000   0.00579   0.00579   2.06795
   R15        2.06217   0.00183   0.00000   0.00511   0.00511   2.06728
   R16        2.05976  -0.00003   0.00000  -0.00008  -0.00008   2.05968
   R17        2.55682  -0.02049   0.00000  -0.03799  -0.03803   2.51879
   R18        2.62913  -0.00052   0.00000  -0.00048  -0.00063   2.62850
   R19        2.04314   0.00327   0.00000   0.00883   0.00883   2.05197
   R20        2.04108   0.00281   0.00000   0.00754   0.00754   2.04862
    A1        2.13180  -0.00285   0.00000  -0.01419  -0.01416   2.11764
    A2        2.05741   0.00337   0.00000   0.00956   0.00958   2.06700
    A3        2.09396  -0.00052   0.00000   0.00460   0.00455   2.09850
    A4        2.09479   0.00962   0.00000   0.03603   0.03589   2.13068
    A5        2.05468  -0.00907   0.00000  -0.03284  -0.03266   2.02202
    A6        2.13323  -0.00054   0.00000  -0.00273  -0.00288   2.13035
    A7        1.92911   0.00177   0.00000   0.00323   0.00314   1.93225
    A8        1.94436  -0.00222   0.00000  -0.00933  -0.00932   1.93504
    A9        1.95928  -0.00492   0.00000  -0.02510  -0.02513   1.93415
   A10        1.89569  -0.00112   0.00000  -0.01308  -0.01313   1.88256
   A11        1.89921   0.00041   0.00000  -0.00398  -0.00411   1.89510
   A12        1.83273   0.00635   0.00000   0.05022   0.05029   1.88301
   A13        2.16250  -0.00922   0.00000  -0.03262  -0.03293   2.12957
   A14        2.12580   0.01553   0.00000   0.05477   0.05488   2.18068
   A15        1.99463  -0.00629   0.00000  -0.02142  -0.02173   1.97289
   A16        1.96322  -0.00511   0.00000  -0.01853  -0.01948   1.94374
   A17        2.16292   0.00325   0.00000   0.01330   0.01235   2.17527
   A18        2.15614   0.00195   0.00000   0.00844   0.00749   2.16363
   A19        2.09880  -0.02408   0.00000  -0.09183  -0.09183   2.00698
   A20        1.93845   0.00031   0.00000   0.00254   0.00231   1.94076
   A21        1.93709  -0.00018   0.00000  -0.00036  -0.00062   1.93647
   A22        1.92031  -0.01318   0.00000  -0.07791  -0.07831   1.84200
   A23        1.89020   0.00107   0.00000   0.00891   0.00878   1.89898
   A24        1.88856   0.00618   0.00000   0.03457   0.03420   1.92277
   A25        1.88770   0.00634   0.00000   0.03538   0.03494   1.92264
   A26        2.07917  -0.00650   0.00000  -0.03370  -0.03354   2.04563
   A27        2.13892   0.00441   0.00000   0.01782   0.01766   2.15659
   A28        2.02827  -0.00219   0.00000  -0.00879  -0.00871   2.01957
   A29        2.11598  -0.00223   0.00000  -0.00902  -0.00895   2.10703
   A30        2.07372  -0.00386   0.00000  -0.01069  -0.01094   2.06278
   A31        2.10021   0.00186   0.00000   0.00493   0.00505   2.10527
   A32        2.10925   0.00200   0.00000   0.00576   0.00588   2.11514
    D1        0.04875  -0.00036   0.00000  -0.01190  -0.01194   0.03681
    D2       -3.12540  -0.00000   0.00000   0.00358   0.00354  -3.12186
    D3       -3.09845  -0.00052   0.00000  -0.01661  -0.01672  -3.11517
    D4        0.01058  -0.00016   0.00000  -0.00114  -0.00124   0.00935
    D5        3.13778  -0.00015   0.00000  -0.00223  -0.00230   3.13549
    D6       -0.00714  -0.00011   0.00000  -0.00233  -0.00235  -0.00949
    D7        0.00157   0.00001   0.00000   0.00236   0.00242   0.00398
    D8        3.13983   0.00006   0.00000   0.00227   0.00236  -3.14099
    D9       -1.64677   0.00036   0.00000   0.02472   0.02483  -1.62194
   D10        2.52708   0.00206   0.00000   0.04534   0.04543   2.57251
   D11        0.47722  -0.00127   0.00000   0.00452   0.00473   0.48196
   D12        1.52889   0.00013   0.00000   0.00906   0.00889   1.53779
   D13       -0.58044   0.00183   0.00000   0.02968   0.02949  -0.55095
   D14       -2.63030  -0.00150   0.00000  -0.01114  -0.01120  -2.64150
   D15        3.09985   0.00086   0.00000   0.03171   0.03202   3.13187
   D16       -0.01590  -0.00009   0.00000  -0.00478  -0.00502  -0.02092
   D17       -0.07507   0.00142   0.00000   0.04830   0.04828  -0.02680
   D18        3.09236   0.00048   0.00000   0.01180   0.01123   3.10360
   D19       -0.81426   0.00101   0.00000   0.05240   0.05294  -0.76132
   D20        2.37172  -0.00096   0.00000  -0.02621  -0.02574   2.34598
   D21        2.30323   0.00219   0.00000   0.08748   0.08701   2.39024
   D22       -0.79397   0.00022   0.00000   0.00886   0.00833  -0.78564
   D23        0.00841   0.00021   0.00000   0.00855   0.00882   0.01723
   D24       -3.10965  -0.00057   0.00000  -0.02439  -0.02503  -3.13468
   D25       -3.11061  -0.00137   0.00000  -0.04967  -0.04957   3.12300
   D26       -0.01320   0.00063   0.00000   0.02873   0.02863   0.01543
   D27       -1.04999  -0.00070   0.00000  -0.00593  -0.00573  -1.05572
   D28        1.05384   0.00074   0.00000   0.00681   0.00655   1.06039
   D29       -3.14064  -0.00002   0.00000   0.00011   0.00016  -3.14048
   D30        0.00472  -0.00011   0.00000  -0.00646  -0.00650  -0.00178
   D31       -3.14133  -0.00008   0.00000  -0.00403  -0.00400   3.13786
   D32       -0.00969   0.00004   0.00000   0.00118   0.00129  -0.00841
   D33        3.13524  -0.00001   0.00000   0.00128   0.00135   3.13659
   D34        3.13658   0.00001   0.00000  -0.00137  -0.00134   3.13524
   D35       -0.00167  -0.00004   0.00000  -0.00128  -0.00128  -0.00295
         Item               Value     Threshold  Converged?
 Maximum Force            0.038940     0.000450     NO 
 RMS     Force            0.007303     0.000300     NO 
 Maximum Displacement     0.331294     0.001800     NO 
 RMS     Displacement     0.091563     0.001200     NO 
 Predicted change in Energy=-6.518592D-03
 GradGradGradGradGradGradGradGradGradGradGradGradGradGradGradGradGradGrad

                          Input orientation:                          
 ---------------------------------------------------------------------
 Center     Atomic      Atomic             Coordinates (Angstroms)
 Number     Number       Type             X           Y           Z
 ---------------------------------------------------------------------
      1         17           0       -3.573184    0.566704    1.340232
      2          6           0       -2.200783    0.811580    0.292166
      3          6           0       -1.062546    0.001618    0.382027
      4          6           0       -0.974134   -1.152705    1.351653
      5          6           0       -0.015378    0.316021   -0.501000
      6          6           0        1.268554   -0.451987   -0.514258
      7          8           0        1.709125   -0.690830    0.732627
      8          6           0        2.915344   -1.438480    0.810350
      9          8           0        1.825655   -0.844703   -1.515851
     10          7           0       -0.048134    1.298289   -1.411313
     11          6           0       -1.152961    2.041901   -1.465940
     12          6           0       -2.253189    1.846452   -0.637681
     13          1           0       -0.514659   -0.834179    2.291014
     14          1           0       -0.367287   -1.961558    0.939280
     15          1           0       -1.964966   -1.554033    1.567949
     16          1           0        2.799561   -2.425169    0.351477
     17          1           0        3.734730   -0.911923    0.312271
     18          1           0        3.126958   -1.541502    1.874573
     19          1           0       -1.152055    2.833043   -2.209695
     20          1           0       -3.131250    2.477861   -0.712284
 ---------------------------------------------------------------------
                    Distance matrix (angstroms):
                    1          2          3          4          5
     1  Cl   0.000000
     2  C    1.744103   0.000000
     3  C    2.746049   1.399891   0.000000
     4  C    3.116338   2.546684   1.510118   0.000000
     5  C    4.013847   2.377117   1.405399   2.551214   0.000000
     6  C    5.283872   3.779315   2.538329   3.000380   1.496160
     7  O    5.463824   4.211725   2.878293   2.792204   2.347232
     8  C    6.811941   5.613024   4.252170   3.937348   3.658831
     9  O    6.268712   4.714276   3.558076   4.019486   2.401376
    10  N    4.531247   2.787943   2.434432   3.807734   1.339625
    11  C    3.988519   2.388002   2.754253   4.263369   2.281198
    12  C    2.700423   1.392236   2.420919   3.819474   2.714535
    13  H    3.495861   3.089811   2.154756   1.093149   3.060651
    14  H    4.102518   3.386851   2.155917   1.092043   2.717649
    15  H    2.671282   2.698028   2.154257   1.090686   3.402726
    16  H    7.109207   5.956802   4.561370   4.106128   4.020537
    17  H    7.526530   6.180710   4.883982   4.828218   4.028966
    18  H    7.044285   6.035381   4.707532   4.152537   4.355228
    19  H    4.857998   3.383112   3.839531   5.347995   3.247626
    20  H    2.839128   2.156660   3.407173   4.700425   3.798269
                    6          7          8          9         10
     6  C    0.000000
     7  O    1.343827   0.000000
     8  C    2.332310   1.421261   0.000000
     9  O    1.211518   2.256747   2.636514   0.000000
    10  N    2.366821   3.411897   4.605203   2.848584   0.000000
    11  C    3.604013   4.526925   5.817701   4.148148   1.332886
    12  C    4.207224   4.900559   6.292957   4.964924   2.400262
    13  H    3.345964   2.719253   3.784503   4.468714   4.297941
    14  H    2.658487   2.443142   3.326544   3.476209   4.031594
    15  H    4.000718   3.865466   4.940114   4.937791   4.548185
    16  H    2.643279   2.083808   1.094315   2.633112   5.008087
    17  H    2.641347   2.080542   1.093956   2.644072   4.708061
    18  H    3.216710   2.009460   1.089938   3.697823   5.379839
    19  H    4.418741   5.409371   6.626486   4.782676   2.052199
    20  H    5.289754   5.963020   7.363249   6.021301   3.374261
                   11         12         13         14         15
    11  C    0.000000
    12  C    1.390940   0.000000
    13  H    4.774303   4.334228   0.000000
    14  H    4.736037   4.532590   1.766320   0.000000
    15  H    4.774366   4.063394   1.773247   1.764619   0.000000
    16  H    6.235394   6.689952   4.156573   3.254131   4.993936
    17  H    5.981357   6.660797   4.688152   4.280352   5.871590
    18  H    6.505191   6.836346   3.732974   3.641560   5.101163
    19  H    1.085854   2.158028   5.840477   5.789655   5.846182
    20  H    2.161408   1.084082   5.180344   5.484122   4.776593
                   16         17         18         19         20
    16  H    0.000000
    17  H    1.779324   0.000000
    18  H    1.791055   1.790683   0.000000
    19  H    7.058587   6.653251   7.357162   0.000000
    20  H    7.768256   7.725414   7.874787   2.507111   0.000000
 Stoichiometry    C8H8ClNO2
 Framework group  C1[X(C8H8ClNO2)]
 Deg. of freedom    54
 Full point group                 C1      NOp   1
 Largest Abelian subgroup         C1      NOp   1
 Largest concise Abelian subgroup C1      NOp   1
                         Standard orientation:                         
 ---------------------------------------------------------------------
 Center     Atomic      Atomic             Coordinates (Angstroms)
 Number     Number       Type             X           Y           Z
 ---------------------------------------------------------------------
      1         17           0        3.114888   -1.123096    0.011081
      2          6           0        1.804974    0.027997   -0.020600
      3          6           0        0.473575   -0.380217    0.122351
      4          6           0        0.098208   -1.823895    0.357609
      5          6           0       -0.490819    0.639839    0.054698
      6          6           0       -1.954782    0.356747    0.177847
      7          8           0       -2.306496   -0.724047   -0.539127
      8          6           0       -3.680740   -1.077356   -0.457831
      9          8           0       -2.723776    0.993160    0.864435
     10          7           0       -0.220581    1.941584   -0.109699
     11          6           0        1.060567    2.286688   -0.236774
     12          6           0        2.109645    1.373925   -0.204924
     13          1           0       -0.111318   -2.328104   -0.589411
     14          1           0       -0.795535   -1.896884    0.980870
     15          1           0        0.904184   -2.356419    0.863985
     16          1           0       -3.969733   -1.308018    0.572122
     17          1           0       -4.315488   -0.267466   -0.829198
     18          1           0       -3.792786   -1.960747   -1.086345
     19          1           0        1.251642    3.346964   -0.372355
     20          1           0        3.138416    1.696931   -0.316863
 ---------------------------------------------------------------------
 Rotational constants (GHZ):           1.5363816           0.5299808           0.4114266
 Standard basis: 6-31G(d,p) (6D, 7F)
 There are   224 symmetry adapted cartesian basis functions of A   symmetry.
 There are   224 symmetry adapted basis functions of A   symmetry.
   224 basis functions,   416 primitive gaussians,   224 cartesian basis functions
    48 alpha electrons       48 beta electrons
       nuclear repulsion energy       770.6759363809 Hartrees.
 NAtoms=   20 NActive=   20 NUniq=   20 SFac= 1.00D+00 NAtFMM=   60 NAOKFM=F Big=F
 Integral buffers will be    131072 words long.
 Raffenetti 2 integral format.
 Two-electron integral symmetry is turned on.
 Nuclear repulsion after empirical dispersion term =      770.6361310404 Hartrees.
 One-electron integrals computed using PRISM.
 NBasis=   224 RedAO= T EigKep=  6.86D-04  NBF=   224
 NBsUse=   224 1.00D-06 EigRej= -1.00D+00 NBFU=   224
 Initial guess from the checkpoint file:  "pyrd11_conf-2.chk"
 B after Tr=    -0.000000   -0.000000   -0.000000
         Rot=    0.999999    0.000795    0.001256    0.000072 Ang=   0.17 deg.
 ExpMin= 1.43D-01 ExpMax= 2.52D+04 ExpMxC= 3.78D+03 IAcc=3 IRadAn=         5 AccDes= 0.00D+00
 Harris functional with IExCor=  402 and IRadAn=       5 diagonalized for initial guess.
 HarFok:  IExCor=  402 AccDes= 0.00D+00 IRadAn=         5 IDoV= 1 UseB2=F ITyADJ=14
 ICtDFT=  3500011 ScaDFX=  1.000000  1.000000  1.000000  1.000000
 FoFCou: FMM=F IPFlag=           0 FMFlag=      100000 FMFlg1=           0
         NFxFlg=           0 DoJE=T BraDBF=F KetDBF=T FulRan=T
         wScrn=  0.000000 ICntrl=       500 IOpCl=  0 I1Cent=   200000004 NGrid=           0
         NMat0=    1 NMatS0=      1 NMatT0=    0 NMatD0=    1 NMtDS0=    0 NMtDT0=    0
 Petite list used in FoFCou.
 Requested convergence on RMS density matrix=1.00D-08 within 128 cycles.
 Requested convergence on MAX density matrix=1.00D-06.
 Requested convergence on             energy=1.00D-06.
 No special actions if energy rises.
 Integral accuracy reduced to 1.0D-05 until final iterations.
 Initial convergence to 1.0D-05 achieved.  Increase integral accuracy.
 SCF Done:  E(RB3LYP) =  -975.115528137     A.U. after   13 cycles
            NFock= 13  Conv=0.90D-08     -V/T= 2.0063
 Calling FoFJK, ICntrl=      2127 FMM=F ISym2X=0 I1Cent= 0 IOpClX= 0 NMat=1 NMatS=1 NMatT=0.
 ***** Axes restored to original set *****
 -------------------------------------------------------------------
 Center     Atomic                   Forces (Hartrees/Bohr)
 Number     Number              X              Y              Z
 -------------------------------------------------------------------
      1       17          -0.002603338   -0.000952187    0.002170914
      2        6           0.004565463    0.003820120   -0.005534531
      3        6          -0.000870080   -0.006884512    0.006220871
      4        6          -0.002134761   -0.001436950   -0.002853237
      5        6          -0.000863077    0.007365188   -0.004041622
      6        6          -0.000566344   -0.008802764   -0.007888714
      7        8          -0.000924116    0.005084510    0.002871664
      8        6           0.009208139   -0.005353098    0.003224058
      9        8           0.000017388    0.003547427    0.003099402
     10        7          -0.002073484   -0.001212535    0.001508190
     11        6           0.002183998    0.000565438   -0.001562967
     12        6          -0.002998170    0.000799983    0.000835043
     13        1          -0.000011851   -0.000650700    0.000575759
     14        1          -0.000305536    0.001360761    0.001673852
     15        1          -0.000479873    0.001202017    0.000681875
     16        1          -0.000358459    0.001172040   -0.000443881
     17        1          -0.001025904   -0.000456386   -0.000272926
     18        1           0.000463406   -0.000233723   -0.000025320
     19        1          -0.001570011    0.001282218   -0.000130200
     20        1           0.000346609   -0.000216847   -0.000108232
 -------------------------------------------------------------------
 Cartesian Forces:  Max     0.009208139 RMS     0.003197877

 GradGradGradGradGradGradGradGradGradGradGradGradGradGradGradGradGradGrad
 Berny optimization.
 Using GEDIIS/GDIIS optimizer.
 FormGI is forming the generalized inverse of G from B-inverse, IUseBI=4.
 Internal  Forces:  Max     0.009731711 RMS     0.002538367
 Search for a local minimum.
 Step number   2 out of a maximum of   97
 All quantities printed in internal units (Hartrees-Bohrs-Radians)
 Mixed Optimization -- RFO/linear search
 Update second derivatives using D2CorX and points    1    2
 DE= -5.58D-03 DEPred=-6.52D-03 R= 8.56D-01
 TightC=F SS=  1.41D+00  RLast= 2.49D-01 DXNew= 5.0454D-01 7.4770D-01
 Trust test= 8.56D-01 RLast= 2.49D-01 DXMaxT set to 5.05D-01
 ITU=  1  0
 Use linear search instead of GDIIS.
     Eigenvalues ---    0.00344   0.00800   0.01252   0.01400   0.01415
     Eigenvalues ---    0.01593   0.01956   0.02065   0.02129   0.02185
     Eigenvalues ---    0.02228   0.02246   0.02290   0.06943   0.07050
     Eigenvalues ---    0.10173   0.10679   0.15218   0.16000   0.16000
     Eigenvalues ---    0.16000   0.16000   0.16000   0.16000   0.16277
     Eigenvalues ---    0.22024   0.22657   0.24617   0.24992   0.24997
     Eigenvalues ---    0.24999   0.24999   0.25000   0.28042   0.29048
     Eigenvalues ---    0.32142   0.33481   0.34668   0.34710   0.34778
     Eigenvalues ---    0.34815   0.34854   0.34941   0.35810   0.36004
     Eigenvalues ---    0.41284   0.42778   0.43397   0.45096   0.46577
     Eigenvalues ---    0.51299   0.53110   0.57844   0.86151
 RFO step:  Lambda=-3.10496923D-03 EMin= 3.44474378D-03
 Quartic linear search produced a step of -0.10516.
 Iteration  1 RMS(Cart)=  0.13281915 RMS(Int)=  0.00512678
 Iteration  2 RMS(Cart)=  0.00879069 RMS(Int)=  0.00168014
 Iteration  3 RMS(Cart)=  0.00002616 RMS(Int)=  0.00168009
 Iteration  4 RMS(Cart)=  0.00000009 RMS(Int)=  0.00168009
 Variable       Old X    -DE/DX   Delta X   Delta X   Delta X     New X
                                 (Linear)    (Quad)   (Total)
    R1        3.29588   0.00349  -0.00266   0.01983   0.01718   3.31305
    R2        2.64541   0.00250   0.00173  -0.00141   0.00033   2.64574
    R3        2.63095  -0.00047   0.00038  -0.00257  -0.00218   2.62877
    R4        2.85371  -0.00048   0.00434  -0.01827  -0.01392   2.83978
    R5        2.65582   0.00664   0.00241   0.00498   0.00739   2.66321
    R6        2.06575   0.00030  -0.00059   0.00303   0.00244   2.06820
    R7        2.06366  -0.00181  -0.00038  -0.00315  -0.00354   2.06013
    R8        2.06110   0.00013  -0.00021   0.00114   0.00093   2.06203
    R9        2.82733   0.00843   0.00046   0.02128   0.02175   2.84908
   R10        2.53152   0.00115   0.00460  -0.01551  -0.01092   2.52060
   R11        2.53947   0.00734   0.00219   0.00375   0.00594   2.54540
   R12        2.28944  -0.00370   0.00452  -0.02099  -0.01647   2.27297
   R13        2.68579   0.00973  -0.00007   0.02078   0.02071   2.70651
   R14        2.06795  -0.00083  -0.00061   0.00021  -0.00040   2.06755
   R15        2.06728  -0.00086  -0.00054  -0.00015  -0.00068   2.06659
   R16        2.05968   0.00009   0.00001   0.00019   0.00020   2.05988
   R17        2.51879   0.00080   0.00400  -0.01417  -0.01019   2.50860
   R18        2.62850  -0.00028   0.00007  -0.00117  -0.00111   2.62739
   R19        2.05197   0.00102  -0.00093   0.00612   0.00519   2.05716
   R20        2.04862  -0.00040  -0.00079   0.00207   0.00127   2.04989
    A1        2.11764  -0.00299   0.00149  -0.01640  -0.01494   2.10270
    A2        2.06700  -0.00149  -0.00101  -0.00137  -0.00241   2.06459
    A3        2.09850   0.00448  -0.00048   0.01786   0.01739   2.11589
    A4        2.13068  -0.00339  -0.00377   0.00191  -0.00187   2.12881
    A5        2.02202  -0.00377   0.00343  -0.02556  -0.02211   1.99991
    A6        2.13035   0.00716   0.00030   0.02358   0.02387   2.15422
    A7        1.93225   0.00080  -0.00033   0.00331   0.00296   1.93521
    A8        1.93504   0.00128   0.00098   0.00552   0.00650   1.94154
    A9        1.93415  -0.00116   0.00264  -0.01673  -0.01410   1.92005
   A10        1.88256  -0.00107   0.00138  -0.01148  -0.01010   1.87246
   A11        1.89510  -0.00061   0.00043  -0.00947  -0.00908   1.88601
   A12        1.88301   0.00072  -0.00529   0.02932   0.02404   1.90706
   A13        2.12957   0.00460   0.00346   0.00213   0.00553   2.13509
   A14        2.18068  -0.00222  -0.00577   0.01567   0.00981   2.19048
   A15        1.97289  -0.00238   0.00229  -0.01807  -0.01584   1.95705
   A16        1.94374   0.00466   0.00205   0.01087   0.00397   1.94770
   A17        2.17527  -0.00193  -0.00130   0.00032  -0.00999   2.16528
   A18        2.16363  -0.00257  -0.00079  -0.00372  -0.01355   2.15009
   A19        2.00698   0.00222   0.00966  -0.02960  -0.01995   1.98703
   A20        1.94076  -0.00132  -0.00024  -0.00738  -0.00765   1.93311
   A21        1.93647  -0.00071   0.00007  -0.00515  -0.00510   1.93137
   A22        1.84200   0.00147   0.00823  -0.02270  -0.01446   1.82754
   A23        1.89898  -0.00022  -0.00092  -0.00075  -0.00171   1.89727
   A24        1.92277   0.00050  -0.00360   0.01831   0.01471   1.93748
   A25        1.92264   0.00034  -0.00367   0.01794   0.01428   1.93693
   A26        2.04563   0.00375   0.00353   0.00003   0.00349   2.04912
   A27        2.15659  -0.00130  -0.00186   0.00108  -0.00080   2.15579
   A28        2.01957   0.00245   0.00092   0.00943   0.01035   2.02992
   A29        2.10703  -0.00115   0.00094  -0.01050  -0.00955   2.09748
   A30        2.06278  -0.00094   0.00115  -0.00938  -0.00823   2.05455
   A31        2.10527   0.00059  -0.00053   0.00518   0.00463   2.10990
   A32        2.11514   0.00035  -0.00062   0.00419   0.00356   2.11870
    D1        0.03681   0.00005   0.00126   0.00065   0.00187   0.03868
    D2       -3.12186  -0.00011  -0.00037  -0.00400  -0.00434  -3.12620
    D3       -3.11517   0.00038   0.00176   0.01071   0.01243  -3.10274
    D4        0.00935   0.00022   0.00013   0.00606   0.00623   0.01557
    D5        3.13549   0.00031   0.00024   0.01210   0.01233  -3.13537
    D6       -0.00949   0.00018   0.00025   0.00643   0.00669  -0.00280
    D7        0.00398  -0.00000  -0.00025   0.00242   0.00207   0.00606
    D8       -3.14099  -0.00014  -0.00025  -0.00325  -0.00357   3.13862
    D9       -1.62194   0.00011  -0.00261   0.00174  -0.00096  -1.62290
   D10        2.57251   0.00009  -0.00478   0.01036   0.00552   2.57803
   D11        0.48196  -0.00090  -0.00050  -0.01908  -0.01962   0.46234
   D12        1.53779   0.00039  -0.00094   0.00716   0.00627   1.54406
   D13       -0.55095   0.00038  -0.00310   0.01579   0.01275  -0.53820
   D14       -2.64150  -0.00061   0.00118  -0.01365  -0.01239  -2.65389
   D15        3.13187  -0.00013  -0.00337   0.01274   0.00950   3.14137
   D16       -0.02092  -0.00040   0.00053  -0.01862  -0.01810  -0.03901
   D17       -0.02680  -0.00040  -0.00508   0.00786   0.00292  -0.02388
   D18        3.10360  -0.00067  -0.00118  -0.02350  -0.02468   3.07892
   D19       -0.76132  -0.00353  -0.00557  -0.19001  -0.19507  -0.95639
   D20        2.34598   0.00141   0.00271   0.04574   0.04798   2.39396
   D21        2.39024  -0.00328  -0.00915  -0.16226  -0.17095   2.21929
   D22       -0.78564   0.00166  -0.00088   0.07349   0.07210  -0.71354
   D23        0.01723   0.00042  -0.00093   0.02091   0.02007   0.03730
   D24       -3.13468   0.00021   0.00263  -0.00789  -0.00500  -3.13968
   D25        3.12300   0.00243   0.00521   0.11104   0.11548  -3.04470
   D26        0.01543  -0.00248  -0.00301  -0.12294  -0.12517  -0.10974
   D27       -1.05572   0.00082   0.00060   0.00481   0.00538  -1.05034
   D28        1.06039  -0.00086  -0.00069  -0.00473  -0.00538   1.05502
   D29       -3.14048   0.00004  -0.00002   0.00048   0.00045  -3.14003
   D30       -0.00178  -0.00017   0.00068  -0.01043  -0.00964  -0.01141
   D31        3.13786  -0.00016   0.00042  -0.00795  -0.00748   3.13038
   D32       -0.00841  -0.00004  -0.00014  -0.00054  -0.00072  -0.00913
   D33        3.13659   0.00009  -0.00014   0.00517   0.00495   3.14154
   D34        3.13524  -0.00005   0.00014  -0.00316  -0.00298   3.13225
   D35       -0.00295   0.00008   0.00013   0.00255   0.00269  -0.00026
         Item               Value     Threshold  Converged?
 Maximum Force            0.009732     0.000450     NO 
 RMS     Force            0.002538     0.000300     NO 
 Maximum Displacement     0.413548     0.001800     NO 
 RMS     Displacement     0.133596     0.001200     NO 
 Predicted change in Energy=-1.840031D-03
 GradGradGradGradGradGradGradGradGradGradGradGradGradGradGradGradGradGrad

                          Input orientation:                          
 ---------------------------------------------------------------------
 Center     Atomic      Atomic             Coordinates (Angstroms)
 Number     Number       Type             X           Y           Z
 ---------------------------------------------------------------------
      1         17           0       -3.620803    0.622013    1.311188
      2          6           0       -2.208131    0.827582    0.293455
      3          6           0       -1.118864   -0.044784    0.405990
      4          6           0       -1.127690   -1.210511    1.354281
      5          6           0       -0.043260    0.245871   -0.456999
      6          6           0        1.217342   -0.580790   -0.481029
      7          8           0        1.772438   -0.674025    0.742696
      8          6           0        3.038870   -1.342806    0.754669
      9          8           0        1.782065   -0.918992   -1.487728
     10          7           0       -0.018440    1.226436   -1.360889
     11          6           0       -1.078804    2.022244   -1.428380
     12          6           0       -2.201882    1.874865   -0.622119
     13          1           0       -0.682683   -0.934850    2.315418
     14          1           0       -0.550770   -2.046365    0.958067
     15          1           0       -2.153215   -1.535400    1.537072
     16          1           0        2.940270   -2.366673    0.381797
     17          1           0        3.762231   -0.810463    0.130723
     18          1           0        3.345798   -1.335652    1.800583
     19          1           0       -1.035021    2.822876   -2.164671
     20          1           0       -3.050049    2.545823   -0.706525
 ---------------------------------------------------------------------
                    Distance matrix (angstroms):
                    1          2          3          4          5
     1  Cl   0.000000
     2  C    1.753192   0.000000
     3  C    2.742936   1.400067   0.000000
     4  C    3.094449   2.539001   1.502749   0.000000
     5  C    4.008338   2.363944   1.409310   2.564717   0.000000
     6  C    5.297775   3.783808   2.555771   3.043696   1.507668
     7  O    5.575836   4.278033   2.978077   3.012075   2.362676
     8  C    6.965735   5.696869   4.369575   4.211562   3.673085
     9  O    6.276911   4.705826   3.572926   4.077828   2.398150
    10  N    4.525742   2.773208   2.439016   3.813306   1.333845
    11  C    3.990944   2.380612   2.763897   4.265712   2.274079
    12  C    2.705669   1.391084   2.432074   3.818322   2.709342
    13  H    3.473449   3.085692   2.151369   1.094443   3.080464
    14  H    4.082896   3.383508   2.152637   1.090172   2.741226
    15  H    2.619021   2.670821   2.138029   1.091177   3.406047
    16  H    7.269367   6.059464   4.676358   4.339440   4.053445
    17  H    7.612797   6.193133   4.948447   5.056527   3.992871
    18  H    7.252964   6.147938   4.852261   4.497437   4.368479
    19  H    4.859183   3.376354   3.852116   5.353487   3.246643
    20  H    2.845693   2.158966   3.417368   4.696001   3.793787
                    6          7          8          9         10
     6  C    0.000000
     7  O    1.346970   0.000000
     8  C    2.329288   1.432222   0.000000
     9  O    1.202803   2.243858   2.605287   0.000000
    10  N    2.359529   3.353218   4.519263   2.803707   0.000000
    11  C    3.597992   4.484755   5.748435   4.103531   1.327493
    12  C    4.212035   4.914751   6.301938   4.942342   2.394506
    13  H    3.399349   2.927303   4.056146   4.532015   4.315972
    14  H    2.710189   2.706842   3.663588   3.563005   4.046253
    15  H    4.042854   4.096798   5.254236   5.001580   4.536870
    16  H    2.627228   2.087855   1.094102   2.632935   4.970046
    17  H    2.627442   2.086241   1.093594   2.559731   4.546135
    18  H    3.210280   2.008068   1.090043   3.664950   5.279896
    19  H    4.415057   5.344429   6.517057   4.732420   2.056239
    20  H    5.295014   5.976959   7.370987   5.997044   3.370404
                   11         12         13         14         15
    11  C    0.000000
    12  C    1.390353   0.000000
    13  H    4.787207   4.339537   0.000000
    14  H    4.746318   4.538634   1.759338   0.000000
    15  H    4.754482   4.036630   1.768884   1.778809   0.000000
    16  H    6.220313   6.740936   4.349115   3.552752   5.288598
    17  H    5.821568   6.583950   4.954354   4.562228   6.123386
    18  H    6.424856   6.852273   4.080975   4.049468   5.508946
    19  H    1.088601   2.154010   5.857973   5.804782   5.826477
    20  H    2.163565   1.084756   5.181857   5.486843   4.742828
                   16         17         18         19         20
    16  H    0.000000
    17  H    1.777765   0.000000
    18  H    1.800114   1.799353   0.000000
    19  H    7.015615   6.440777   7.225522   0.000000
    20  H    7.823105   7.640209   7.890392   2.502655   0.000000
 Stoichiometry    C8H8ClNO2
 Framework group  C1[X(C8H8ClNO2)]
 Deg. of freedom    54
 Full point group                 C1      NOp   1
 Largest Abelian subgroup         C1      NOp   1
 Largest concise Abelian subgroup C1      NOp   1
                         Standard orientation:                         
 ---------------------------------------------------------------------
 Center     Atomic      Atomic             Coordinates (Angstroms)
 Number     Number       Type             X           Y           Z
 ---------------------------------------------------------------------
      1         17           0        3.180967   -1.031267   -0.027534
      2          6           0        1.812697    0.064800   -0.039921
      3          6           0        0.512733   -0.420083    0.147617
      4          6           0        0.236068   -1.872977    0.413717
      5          6           0       -0.493774    0.564979    0.095169
      6          6           0       -1.954161    0.235939    0.274234
      7          8           0       -2.357480   -0.715621   -0.589593
      8          6           0       -3.765096   -0.976641   -0.547805
      9          8           0       -2.716260    0.891212    0.934960
     10          7           0       -0.289947    1.872743   -0.070214
     11          6           0        0.962304    2.279335   -0.239880
     12          6           0        2.055224    1.419911   -0.239845
     13          1           0        0.030014   -2.407937   -0.518573
     14          1           0       -0.634483   -1.997746    1.057960
     15          1           0        1.103028   -2.337788    0.885944
     16          1           0       -4.067281   -1.315507    0.447641
     17          1           0       -4.332158   -0.075863   -0.798782
     18          1           0       -3.923990   -1.757636   -1.291439
     19          1           0        1.107010    3.348608   -0.383983
     20          1           0        3.064996    1.789900   -0.381847
 ---------------------------------------------------------------------
 Rotational constants (GHZ):           1.5757207           0.5144134           0.4084336
 Standard basis: 6-31G(d,p) (6D, 7F)
 There are   224 symmetry adapted cartesian basis functions of A   symmetry.
 There are   224 symmetry adapted basis functions of A   symmetry.
   224 basis functions,   416 primitive gaussians,   224 cartesian basis functions
    48 alpha electrons       48 beta electrons
       nuclear repulsion energy       768.5146627008 Hartrees.
 NAtoms=   20 NActive=   20 NUniq=   20 SFac= 1.00D+00 NAtFMM=   60 NAOKFM=F Big=F
 Integral buffers will be    131072 words long.
 Raffenetti 2 integral format.
 Two-electron integral symmetry is turned on.
 Nuclear repulsion after empirical dispersion term =      768.4752033780 Hartrees.
 One-electron integrals computed using PRISM.
 NBasis=   224 RedAO= T EigKep=  6.94D-04  NBF=   224
 NBsUse=   224 1.00D-06 EigRej= -1.00D+00 NBFU=   224
 Initial guess from the checkpoint file:  "pyrd11_conf-2.chk"
 B after Tr=    -0.000000    0.000000    0.000000
         Rot=    0.999897   -0.010593   -0.003119   -0.009182 Ang=  -1.65 deg.
 ExpMin= 1.43D-01 ExpMax= 2.52D+04 ExpMxC= 3.78D+03 IAcc=3 IRadAn=         5 AccDes= 0.00D+00
 Harris functional with IExCor=  402 and IRadAn=       5 diagonalized for initial guess.
 HarFok:  IExCor=  402 AccDes= 0.00D+00 IRadAn=         5 IDoV= 1 UseB2=F ITyADJ=14
 ICtDFT=  3500011 ScaDFX=  1.000000  1.000000  1.000000  1.000000
 FoFCou: FMM=F IPFlag=           0 FMFlag=      100000 FMFlg1=           0
         NFxFlg=           0 DoJE=T BraDBF=F KetDBF=T FulRan=T
         wScrn=  0.000000 ICntrl=       500 IOpCl=  0 I1Cent=   200000004 NGrid=           0
         NMat0=    1 NMatS0=      1 NMatT0=    0 NMatD0=    1 NMtDS0=    0 NMtDT0=    0
 Petite list used in FoFCou.
 Requested convergence on RMS density matrix=1.00D-08 within 128 cycles.
 Requested convergence on MAX density matrix=1.00D-06.
 Requested convergence on             energy=1.00D-06.
 No special actions if energy rises.
 Integral accuracy reduced to 1.0D-05 until final iterations.
 Initial convergence to 1.0D-05 achieved.  Increase integral accuracy.
 SCF Done:  E(RB3LYP) =  -975.114131999     A.U. after   13 cycles
            NFock= 13  Conv=0.87D-08     -V/T= 2.0063
 Calling FoFJK, ICntrl=      2127 FMM=F ISym2X=0 I1Cent= 0 IOpClX= 0 NMat=1 NMatS=1 NMatT=0.
 ***** Axes restored to original set *****
 -------------------------------------------------------------------
 Center     Atomic                   Forces (Hartrees/Bohr)
 Number     Number              X              Y              Z
 -------------------------------------------------------------------
      1       17          -0.001410002    0.000662173    0.000418497
      2        6          -0.000462889    0.001365678   -0.000458863
      3        6          -0.000000800    0.002200684   -0.001348822
      4        6           0.001438699    0.000455085    0.000411562
      5        6          -0.002636319   -0.010106616    0.000585456
      6        6           0.006647444    0.021793854    0.002064021
      7        8          -0.006249382   -0.006167656    0.004103587
      8        6           0.003720085   -0.001277983    0.003773894
      9        8          -0.000530107   -0.011315542   -0.009614531
     10        7           0.002023301   -0.000526626    0.000261017
     11        6          -0.002930640    0.006252699   -0.002834971
     12        6          -0.002419395    0.000343292    0.001055263
     13        1          -0.000156337    0.000137416    0.000399859
     14        1           0.000231503   -0.000694496   -0.000131913
     15        1           0.001430219   -0.001507494    0.000171442
     16        1           0.000277877    0.000868448    0.000667506
     17        1          -0.000854137   -0.000191788    0.000607698
     18        1           0.001627934   -0.001221711   -0.000794694
     19        1          -0.000539960   -0.000307278    0.000546032
     20        1           0.000792906   -0.000762140    0.000117960
 -------------------------------------------------------------------
 Cartesian Forces:  Max     0.021793854 RMS     0.004228303

 GradGradGradGradGradGradGradGradGradGradGradGradGradGradGradGradGradGrad
 Berny optimization.
 Using GEDIIS/GDIIS optimizer.
 FormGI is forming the generalized inverse of G from B-inverse, IUseBI=4.
 Internal  Forces:  Max     0.010979805 RMS     0.003034439
 Search for a local minimum.
 Step number   3 out of a maximum of   97
 All quantities printed in internal units (Hartrees-Bohrs-Radians)
 Mixed Optimization -- RFO/linear search
 Update second derivatives using D2CorX and points    1    3    2
 DE=  1.40D-03 DEPred=-1.84D-03 R=-7.59D-01
 Trust test=-7.59D-01 RLast= 3.37D-01 DXMaxT set to 2.52D-01
 ITU= -1  1  0
 Use linear search instead of GDIIS.
     Eigenvalues ---    0.00344   0.00795   0.01243   0.01415   0.01594
     Eigenvalues ---    0.01934   0.02062   0.02127   0.02185   0.02227
     Eigenvalues ---    0.02245   0.02290   0.05288   0.06870   0.07118
     Eigenvalues ---    0.10156   0.10766   0.15149   0.15999   0.16000
     Eigenvalues ---    0.16000   0.16000   0.16000   0.16058   0.16269
     Eigenvalues ---    0.21866   0.22497   0.24696   0.24818   0.24989
     Eigenvalues ---    0.24998   0.25000   0.25717   0.28483   0.29907
     Eigenvalues ---    0.30973   0.32697   0.34668   0.34678   0.34772
     Eigenvalues ---    0.34814   0.34845   0.34913   0.35812   0.35995
     Eigenvalues ---    0.40289   0.41917   0.42856   0.45145   0.46465
     Eigenvalues ---    0.51094   0.53179   0.54372   0.87851
 RFO step:  Lambda=-1.16817622D-03 EMin= 3.44204920D-03
 Quartic linear search produced a step of -0.65885.
 Iteration  1 RMS(Cart)=  0.07319967 RMS(Int)=  0.00179401
 Iteration  2 RMS(Cart)=  0.00387702 RMS(Int)=  0.00017740
 Iteration  3 RMS(Cart)=  0.00000418 RMS(Int)=  0.00017738
 Iteration  4 RMS(Cart)=  0.00000000 RMS(Int)=  0.00017738
 Variable       Old X    -DE/DX   Delta X   Delta X   Delta X     New X
                                 (Linear)    (Quad)   (Total)
    R1        3.31305   0.00130  -0.01132   0.01322   0.00191   3.31496
    R2        2.64574   0.00331  -0.00022   0.00648   0.00625   2.65200
    R3        2.62877   0.00038   0.00143  -0.00120   0.00022   2.62899
    R4        2.83978   0.00177   0.00917  -0.00272   0.00645   2.84624
    R5        2.66321  -0.00153  -0.00487   0.01150   0.00663   2.66984
    R6        2.06820   0.00032  -0.00161   0.00155  -0.00006   2.06814
    R7        2.06013   0.00070   0.00233  -0.00378  -0.00145   2.05868
    R8        2.06203  -0.00087  -0.00061  -0.00036  -0.00097   2.06105
    R9        2.84908   0.00250  -0.01433   0.02601   0.01168   2.86076
   R10        2.52060   0.00383   0.00720   0.00138   0.00859   2.52919
   R11        2.54540   0.00754  -0.00391   0.01569   0.01178   2.55719
[...]
   XZ=     1.6128   YZ=     2.7210   ZZ=    26.5607
   Eigenvalues:    24.5344    26.8763    33.2450
     19  H    Isotropic =    22.5901   Anisotropy =     6.9264
   XX=    25.9256   YX=    -2.1097   ZX=    -0.3082
   XY=    -2.7590   YY=    22.5582   ZY=    -0.0541
   XZ=    -0.2511   YZ=    -0.0742   ZZ=    19.2867
   Eigenvalues:    19.2634    21.2993    27.2078
     20  H    Isotropic =    23.8809   Anisotropy =     9.3340
   XX=    21.0348   YX=    -1.9515   ZX=     0.2203
   XY=    -0.7355   YY=    29.7913   ZY=    -1.0471
   XZ=     0.0112   YZ=    -0.9688   ZZ=    20.8165
   Eigenvalues:    20.6969    20.8422    30.1035
 End of Minotr F.D. properties file   721 does not exist.
 End of Minotr F.D. properties file   722 does not exist.
 End of Minotr F.D. properties file   788 does not exist.

 **********************************************************************

            Population analysis using the SCF Density.

 **********************************************************************

 Orbital symmetries:
       Occupied  (A) (A) (A) (A) (A) (A) (A) (A) (A) (A) (A) (A)
                 (A) (A) (A) (A) (A) (A) (A) (A) (A) (A) (A) (A)
                 (A) (A) (A) (A) (A) (A) (A) (A) (A) (A) (A) (A)
                 (A) (A) (A) (A) (A) (A) (A) (A) (A) (A) (A) (A)
       Virtual   (A) (A) (A) (A) (A) (A) (A) (A) (A) (A) (A) (A)
                 (A) (A) (A) (A) (A) (A) (A) (A) (A) (A) (A) (A)
                 (A) (A) (A) (A) (A) (A) (A) (A) (A) (A) (A) (A)
                 (A) (A) (A) (A) (A) (A) (A) (A) (A) (A) (A) (A)
                 (A) (A) (A) (A) (A) (A) (A) (A) (A) (A) (A) (A)
                 (A) (A) (A) (A) (A) (A) (A) (A) (A) (A) (A) (A)
                 (A) (A) (A) (A) (A) (A) (A) (A) (A) (A) (A) (A)
                 (A) (A) (A) (A) (A) (A) (A) (A) (A) (A) (A) (A)
                 (A) (A) (A) (A) (A) (A) (A) (A) (A) (A) (A) (A)
                 (A) (A) (A) (A) (A) (A) (A) (A) (A) (A) (A) (A)
                 (A) (A) (A) (A) (A) (A) (A) (A) (A) (A) (A) (A)
                 (A) (A) (A) (A) (A) (A) (A) (A) (A) (A) (A) (A)
                 (A) (A) (A) (A) (A) (A) (A) (A) (A) (A) (A) (A)
                 (A) (A) (A) (A) (A) (A) (A) (A) (A) (A) (A) (A)
                 (A) (A) (A) (A) (A) (A) (A) (A) (A) (A) (A) (A)
                 (A) (A) (A) (A) (A) (A) (A) (A) (A) (A) (A) (A)
                 (A) (A) (A) (A) (A) (A) (A) (A) (A) (A) (A) (A)
                 (A) (A) (A) (A) (A) (A) (A) (A) (A) (A) (A) (A)
                 (A) (A) (A) (A) (A) (A) (A) (A) (A) (A) (A) (A)
                 (A) (A) (A) (A) (A) (A) (A) (A) (A) (A) (A) (A)
                 (A) (A) (A) (A) (A) (A) (A) (A) (A) (A) (A) (A)
                 (A) (A) (A) (A) (A) (A) (A) (A) (A) (A) (A) (A)
                 (A) (A) (A) (A) (A) (A) (A) (A) (A) (A) (A) (A)
                 (A) (A) (A) (A) (A) (A) (A) (A) (A) (A) (A) (A)
                 (A) (A) (A) (A) (A) (A) (A) (A) (A) (A) (A) (A)
                 (A) (A) (A) (A) (A) (A) (A) (A) (A) (A) (A) (A)
                 (A) (A) (A) (A) (A) (A) (A) (A) (A) (A) (A) (A)
                 (A) (A) (A) (A) (A) (A) (A) (A) (A) (A) (A) (A)
                 (A) (A) (A) (A) (A) (A) (A) (A) (A) (A) (A) (A)
                 (A) (A) (A) (A) (A) (A) (A) (A) (A) (A) (A) (A)
                 (A) (A) (A) (A) (A) (A) (A) (A) (A) (A) (A) (A)
                 (A) (A) (A) (A) (A) (A)
 The electronic state is 1-A.
 Alpha  occ. eigenvalues -- -102.66378 -19.68315 -19.62579 -14.76709 -10.68286
 Alpha  occ. eigenvalues --  -10.63296 -10.60843 -10.59900 -10.59421 -10.58954
 Alpha  occ. eigenvalues --  -10.57359 -10.55094  -9.82620  -7.54815  -7.54312
 Alpha  occ. eigenvalues --   -7.54282  -1.24169  -1.14860  -1.07594  -0.99601
 Alpha  occ. eigenvalues --   -0.91498  -0.89060  -0.83978  -0.80879  -0.74416
 Alpha  occ. eigenvalues --   -0.70796  -0.66210  -0.62161  -0.60336  -0.57491
 Alpha  occ. eigenvalues --   -0.57223  -0.56075  -0.52540  -0.52325  -0.49785
 Alpha  occ. eigenvalues --   -0.49462  -0.48044  -0.47658  -0.46828  -0.45532
 Alpha  occ. eigenvalues --   -0.43836  -0.43493  -0.39809  -0.38511  -0.36993
 Alpha  occ. eigenvalues --   -0.34398  -0.33790  -0.32814
 Alpha virt. eigenvalues --   -0.02533  -0.00940   0.04973   0.06077   0.06477
 Alpha virt. eigenvalues --    0.08710   0.10388   0.11377   0.12585   0.12906
 Alpha virt. eigenvalues --    0.13205   0.13534   0.14971   0.15913   0.17577
 Alpha virt. eigenvalues --    0.17986   0.18714   0.19938   0.21445   0.22043
 Alpha virt. eigenvalues --    0.23446   0.24133   0.25462   0.25966   0.26362
 Alpha virt. eigenvalues --    0.27760   0.28741   0.29005   0.29950   0.30832
 Alpha virt. eigenvalues --    0.31496   0.32377   0.33973   0.34522   0.34740
 Alpha virt. eigenvalues --    0.35190   0.36391   0.37051   0.38606   0.39055
 Alpha virt. eigenvalues --    0.39676   0.40261   0.40401   0.41354   0.42634
 Alpha virt. eigenvalues --    0.43190   0.44155   0.46025   0.46390   0.46926
 Alpha virt. eigenvalues --    0.47641   0.48086   0.48766   0.49116   0.50761
 Alpha virt. eigenvalues --    0.51375   0.51806   0.52350   0.53823   0.54272
 Alpha virt. eigenvalues --    0.54937   0.56139   0.57374   0.57818   0.59817
 Alpha virt. eigenvalues --    0.61319   0.61955   0.63299   0.63594   0.65174
 Alpha virt. eigenvalues --    0.65744   0.67287   0.68071   0.69039   0.69925
 Alpha virt. eigenvalues --    0.71009   0.72525   0.74297   0.75272   0.75583
 Alpha virt. eigenvalues --    0.77966   0.79028   0.79434   0.80518   0.81418
 Alpha virt. eigenvalues --    0.83441   0.86124   0.86638   0.88597   0.89811
 Alpha virt. eigenvalues --    0.90993   0.94196   0.95516   0.95928   0.96883
 Alpha virt. eigenvalues --    0.98100   0.98672   0.99760   1.02331   1.03129
 Alpha virt. eigenvalues --    1.03961   1.07621   1.08150   1.09918   1.11830
 Alpha virt. eigenvalues --    1.12799   1.13598   1.14921   1.18962   1.19885
 Alpha virt. eigenvalues --    1.22540   1.22735   1.26378   1.28384   1.30959
 Alpha virt. eigenvalues --    1.31164   1.33041   1.33470   1.35625   1.38273
 Alpha virt. eigenvalues --    1.39500   1.40474   1.43573   1.46099   1.48028
 Alpha virt. eigenvalues --    1.49948   1.51788   1.52636   1.53053   1.55015
 Alpha virt. eigenvalues --    1.55856   1.56419   1.57485   1.58645   1.59299
 Alpha virt. eigenvalues --    1.59793   1.61885   1.62943   1.63085   1.65520
 Alpha virt. eigenvalues --    1.66710   1.67114   1.69632   1.71185   1.71825
 Alpha virt. eigenvalues --    1.72653   1.75710   1.77530   1.78885   1.79794
 Alpha virt. eigenvalues --    1.81648   1.82936   1.83786   1.84720   1.86571
 Alpha virt. eigenvalues --    1.87320   1.87965   1.90581   1.91437   1.92053
 Alpha virt. eigenvalues --    1.94942   1.96165   1.97527   1.99145   2.02178
 Alpha virt. eigenvalues --    2.02486   2.04025   2.06260   2.07114   2.07813
 Alpha virt. eigenvalues --    2.09281   2.09679   2.10036   2.11320   2.12857
 Alpha virt. eigenvalues --    2.14863   2.15518   2.16925   2.17702   2.19733
 Alpha virt. eigenvalues --    2.22031   2.22817   2.23494   2.26697   2.27170
 Alpha virt. eigenvalues --    2.27800   2.28749   2.29628   2.31077   2.31256
 Alpha virt. eigenvalues --    2.31395   2.33043   2.34914   2.36337   2.37310
 Alpha virt. eigenvalues --    2.38531   2.41621   2.42317   2.46620   2.48133
 Alpha virt. eigenvalues --    2.49206   2.50830   2.52893   2.54365   2.54823
 Alpha virt. eigenvalues --    2.55688   2.57009   2.60656   2.61250   2.61526
 Alpha virt. eigenvalues --    2.63341   2.65223   2.66579   2.70952   2.72353
 Alpha virt. eigenvalues --    2.74388   2.77126   2.77816   2.78495   2.81404
 Alpha virt. eigenvalues --    2.82251   2.84485   2.85047   2.86212   2.88294
 Alpha virt. eigenvalues --    2.89447   2.90935   2.91892   2.94028   2.96245
 Alpha virt. eigenvalues --    2.98097   2.99803   3.01129   3.02877   3.04821
 Alpha virt. eigenvalues --    3.05730   3.05842   3.06759   3.07577   3.09315
 Alpha virt. eigenvalues --    3.10960   3.11983   3.13165   3.15425   3.16238
 Alpha virt. eigenvalues --    3.18430   3.18805   3.19653   3.21034   3.21279
 Alpha virt. eigenvalues --    3.21900   3.24178   3.25112   3.25946   3.27455
 Alpha virt. eigenvalues --    3.28246   3.29080   3.30494   3.31210   3.32921
 Alpha virt. eigenvalues --    3.34678   3.35527   3.36422   3.36641   3.38806
 Alpha virt. eigenvalues --    3.39958   3.41846   3.42810   3.43146   3.44447
 Alpha virt. eigenvalues --    3.47185   3.47396   3.47823   3.50906   3.52463
 Alpha virt. eigenvalues --    3.54421   3.56308   3.57270   3.59822   3.61931
 Alpha virt. eigenvalues --    3.63947   3.65401   3.67991   3.70620   3.71759
 Alpha virt. eigenvalues --    3.75059   3.77205   3.78296   3.82518   3.86049
 Alpha virt. eigenvalues --    3.88893   3.89338   3.94455   3.96990   3.99624
 Alpha virt. eigenvalues --    4.05213   4.06673   4.08018   4.09400   4.10170
 Alpha virt. eigenvalues --    4.15042   4.16450   4.16955   4.19617   4.21468
 Alpha virt. eigenvalues --    4.27610   4.28326   4.33319   4.34675   4.35240
 Alpha virt. eigenvalues --    4.36802   4.42452   4.43203   4.46899   4.48209
 Alpha virt. eigenvalues --    4.49802   4.50497   4.55958   4.61444   4.66744
 Alpha virt. eigenvalues --    4.69150   4.74092   4.81975   4.82839   4.86889
 Alpha virt. eigenvalues --    4.92793   4.96329   5.03111   5.05516   5.12376
 Alpha virt. eigenvalues --    5.14440   5.19383   5.19659   5.21748   5.27527
 Alpha virt. eigenvalues --    5.30584   5.36465   5.38558   5.41720   5.48687
 Alpha virt. eigenvalues --    5.55008   5.62462   5.64851   5.68242   5.77332
 Alpha virt. eigenvalues --    5.82284   5.92020   5.99146   6.06361   6.15438
 Alpha virt. eigenvalues --    6.20879   6.37354   6.37708   6.53171   6.65374
 Alpha virt. eigenvalues --    6.65440   6.75470   6.82594   6.86964   6.99339
 Alpha virt. eigenvalues --    7.10720   7.22187   7.35155  10.80548  10.88774
 Alpha virt. eigenvalues --   11.40927  22.40264  22.41949  22.52643  22.78309
 Alpha virt. eigenvalues --   22.89235  23.06092  23.27144  23.43686  26.00660
 Alpha virt. eigenvalues --   32.62943  44.04643  44.21373
          Condensed to atoms (all electrons):
               1          2          3          4          5          6
     1  Cl  16.836227   0.382136  -0.111253  -0.008518   0.014831   0.000026
     2  C    0.382136   4.982335   0.338438  -0.083027  -0.019292   0.007024
     3  C   -0.111253   0.338438   5.437556   0.209642   0.344146  -0.023223
     4  C   -0.008518  -0.083027   0.209642   5.134268  -0.042205  -0.005740
     5  C    0.014831  -0.019292   0.344146  -0.042205   5.145035   0.249048
     6  C    0.000026   0.007024  -0.023223  -0.005740   0.249048   4.571511
     7  O    0.000004  -0.000546   0.007157  -0.015256  -0.114594   0.337584
     8  C   -0.000002  -0.000213  -0.000613  -0.000144   0.008019  -0.051422
     9  O    0.000003   0.000226   0.002021  -0.000460  -0.075041   0.682087
    10  N   -0.000726  -0.035081  -0.067195   0.007444   0.471689  -0.030474
    11  C    0.006182  -0.021137  -0.049317  -0.000173  -0.106645  -0.000155
    12  C   -0.059773   0.449818   0.012170   0.012011  -0.056931   0.001209
    13  H    0.001979  -0.005951  -0.039229   0.416321  -0.000804  -0.000516
    14  H    0.001653   0.016294  -0.060689   0.423929  -0.013352   0.005138
    15  H    0.003778  -0.017613  -0.038694   0.417090   0.005157  -0.002386
    16  H    0.000000  -0.000044   0.000078   0.001091  -0.001668  -0.003097
    17  H   -0.000000   0.000016  -0.000268  -0.000061  -0.000727  -0.012694
    18  H   -0.000000   0.000026  -0.000094   0.000021   0.001559   0.006314
    19  H   -0.000341   0.004652  -0.001582   0.000153   0.007064  -0.000579
    20  H    0.000352  -0.052485   0.017372   0.000512  -0.003733  -0.000019
               7          8          9         10         11         12
     1  Cl   0.000004  -0.000002   0.000003  -0.000726   0.006182  -0.059773
     2  C   -0.000546  -0.000213   0.000226  -0.035081  -0.021137   0.449818
     3  C    0.007157  -0.000613   0.002021  -0.067195  -0.049317   0.012170
     4  C   -0.015256  -0.000144  -0.000460   0.007444  -0.000173   0.012011
     5  C   -0.114594   0.008019  -0.075041   0.471689  -0.106645  -0.056931
     6  C    0.337584  -0.051422   0.682087  -0.030474  -0.000155   0.001209
     7  O    8.037005   0.203601  -0.082978  -0.002326  -0.001038  -0.000036
     8  C    0.203601   4.862180   0.002388  -0.000045   0.000034   0.000022
     9  O   -0.082978   0.002388   7.782278  -0.010399  -0.000885  -0.000202
    10  N   -0.002326  -0.000045  -0.010399   6.435757   0.536530  -0.064089
    11  C   -0.001038   0.000034  -0.000885   0.536530   4.827999   0.459987
    12  C   -0.000036   0.000022  -0.000202  -0.064089   0.459987   5.076912
    13  H   -0.000205  -0.000124  -0.000026  -0.000173   0.000193  -0.000670
    14  H    0.002539  -0.002117  -0.000904   0.000456   0.000467  -0.001007
    15  H    0.001359   0.000017   0.000027  -0.000166  -0.000108   0.001002
    16  H   -0.037969   0.420688   0.003545  -0.000094  -0.000015   0.000006
    17  H   -0.028099   0.422096   0.003222   0.000132   0.000026  -0.000007
    18  H   -0.030487   0.391844   0.001979   0.000018   0.000006  -0.000000
    19  H   -0.000002  -0.000001   0.000014  -0.035763   0.438972  -0.076369
    20  H   -0.000003   0.000000  -0.000002   0.005604  -0.022532   0.401850
              13         14         15         16         17         18
     1  Cl   0.001979   0.001653   0.003778   0.000000  -0.000000  -0.000000
     2  C   -0.005951   0.016294  -0.017613  -0.000044   0.000016   0.000026
     3  C   -0.039229  -0.060689  -0.038694   0.000078  -0.000268  -0.000094
     4  C    0.416321   0.423929   0.417090   0.001091  -0.000061   0.000021
     5  C   -0.000804  -0.013352   0.005157  -0.001668  -0.000727   0.001559
     6  C   -0.000516   0.005138  -0.002386  -0.003097  -0.012694   0.006314
     7  O   -0.000205   0.002539   0.001359  -0.037969  -0.028099  -0.030487
     8  C   -0.000124  -0.002117   0.000017   0.420688   0.422096   0.391844
     9  O   -0.000026  -0.000904   0.000027   0.003545   0.003222   0.001979
    10  N   -0.000173   0.000456  -0.000166  -0.000094   0.000132   0.000018
    11  C    0.000193   0.000467  -0.000108  -0.000015   0.000026   0.000006
    12  C   -0.000670  -0.001007   0.001002   0.000006  -0.000007  -0.000000
    13  H    0.505564  -0.020399  -0.033842   0.000026  -0.000004   0.000049
    14  H   -0.020399   0.520665  -0.021676  -0.001569   0.000317   0.000117
    15  H   -0.033842  -0.021676   0.521238  -0.000040   0.000007  -0.000023
    16  H    0.000026  -0.001569  -0.000040   0.527681  -0.038307  -0.026642
    17  H   -0.000004   0.000317   0.000007  -0.038307   0.516677  -0.023294
    18  H    0.000049   0.000117  -0.000023  -0.026642  -0.023294   0.531716
    19  H   -0.000001   0.000004  -0.000002  -0.000000   0.000000   0.000000
    20  H   -0.000015  -0.000004  -0.000013   0.000000  -0.000000   0.000000
              19         20
     1  Cl  -0.000341   0.000352
     2  C    0.004652  -0.052485
     3  C   -0.001582   0.017372
     4  C    0.000153   0.000512
     5  C    0.007064  -0.003733
     6  C   -0.000579  -0.000019
     7  O   -0.000002  -0.000003
     8  C   -0.000001   0.000000
     9  O    0.000014  -0.000002
    10  N   -0.035763   0.005604
    11  C    0.438972  -0.022532
    12  C   -0.076369   0.401850
    13  H   -0.000001  -0.000015
    14  H    0.000004  -0.000004
    15  H   -0.000002  -0.000013
    16  H   -0.000000   0.000000
    17  H    0.000000  -0.000000
    18  H    0.000000   0.000000
    19  H    0.513521  -0.000167
    20  H   -0.000167   0.489899
 Mulliken charges:
               1
     1  Cl  -0.066560
     2  C    0.054423
     3  C    0.023577
     4  C   -0.466898
     5  C    0.188444
     6  C    0.270364
     7  O   -0.275710
     8  C   -0.256207
     9  O   -0.306892
    10  N   -0.211097
    11  C   -0.068390
    12  C   -0.155905
    13  H    0.177828
    14  H    0.150139
    15  H    0.164888
    16  H    0.156328
    17  H    0.160968
    18  H    0.146890
    19  H    0.150426
    20  H    0.163383
 Sum of Mulliken charges =  -0.00000
 Mulliken charges with hydrogens summed into heavy atoms:
               1
     1  Cl  -0.066560
     2  C    0.054423
     3  C    0.023577
     4  C    0.025957
     5  C    0.188444
     6  C    0.270364
     7  O   -0.275710
     8  C    0.207979
     9  O   -0.306892
    10  N   -0.211097
    11  C    0.082036
    12  C    0.007478
 Electronic spatial extent (au):  <R**2>=           2598.8471
 Charge=              0.0000 electrons
 Dipole moment (field-independent basis, Debye):
    X=              0.9263    Y=             -2.0618    Z=             -1.2291  Tot=              2.5728
 Quadrupole moment (field-independent basis, Debye-Ang):
   XX=            -71.4058   YY=            -73.7682   ZZ=            -79.1786
   XY=             12.1897   XZ=              4.3033   YZ=             -3.0467
 Traceless Quadrupole moment (field-independent basis, Debye-Ang):
   XX=              3.3784   YY=              1.0160   ZZ=             -4.3944
   XY=             12.1897   XZ=              4.3033   YZ=             -3.0467
 Octapole moment (field-independent basis, Debye-Ang**2):
  XXX=            -33.9975  YYY=             -4.7958  ZZZ=             -0.5606  XYY=             11.8504
  XXY=            -16.3394  XXZ=            -19.9040  XZZ=             -1.1997  YZZ=             -7.0733
  YYZ=             -4.7290  XYZ=              1.8805
 Hexadecapole moment (field-independent basis, Debye-Ang**3):
 XXXX=          -2182.3068 YYYY=           -813.3835 ZZZZ=           -168.6892 XXXY=             87.7969
 XXXZ=             58.5738 YYYX=             32.9194 YYYZ=             -3.5408 ZZZX=              6.1058
 ZZZY=              4.0788 XXYY=           -502.8863 XXZZ=           -431.6288 YYZZ=           -171.1062
 XXYZ=            -13.3969 YYXZ=              3.6182 ZZXY=              2.5548
 N-N= 7.673247752598D+02 E-N=-3.830053498880D+03  KE= 9.719845277764D+02
 Unable to Open any file for archive entry.
 1\1\GINC-COMPUTE-0-1\SP\RM062X\def2TZVP\C8H8Cl1N1O2\ZTAN64\14-Aug-2024
 \0\\# M062X/def2tzvp int=(grid=ultrafine) nmr=giao guess=read geom=che
 ck\\pyrd11.xyz\\0,1\Cl,0,-3.5864851835,0.5933626059,1.3407159269\C,0,-
 2.1957699115,0.8345307581,0.2985506954\C,0,-1.0875888442,-0.0188451753
 ,0.3995798148\C,0,-1.0772389219,-1.1719680215,1.3662814389\C,0,-0.0294
 431677,0.2755808201,-0.4833837428\C,0,1.2432770228,-0.5359088326,-0.51
 75406426\O,0,1.7851479927,-0.6625501388,0.7148025354\C,0,3.019959716,-
 1.4000373102,0.7583136266\O,0,1.7372818419,-0.9894719886,-1.5223478984
 \N,0,-0.0386020359,1.266073881,-1.3839931153\C,0,-1.114044342,2.051103
 1948,-1.4372573607\C,0,-2.225078979,1.8814806668,-0.6143611848\H,0,-1.
 0047775424,-0.8106831092,2.3974213775\H,0,-0.2383542546,-1.8408087809,
 1.1883222422\H,0,-2.0080914764,-1.7398519672,1.2882266665\H,0,2.872151
 6647,-2.4174267939,0.3887235158\H,0,3.7772441677,-0.9087142894,0.14366
 76449\H,0,3.3188771016,-1.4090227498,1.8056229619\H,0,-1.0933683879,2.
 8538995153,-2.1702782005\H,0,-3.0856964604,2.5356577153,-0.6834663018\
 \Version=ES64L-G16RevC.01\State=1-A\HF=-975.0580524\RMSD=2.932e-09\Dip
 ole=-0.2683951,-0.009054,0.9759559\Quadrupole=1.9913459,3.0202766,-5.0
 116225,-3.8100292,6.9386877,-4.951091\PG=C01 [X(C8H8Cl1N1O2)]\\@
 The archive entry for this job was punched.


 SILVERMAN'S PARADOX - IF MURPHY'S LAW CAN GO WRONG, IT WILL.
 Job cpu time:       0 days  0 hours 29 minutes 23.4 seconds.
 Elapsed time:       0 days  0 hours  1 minutes 57.2 seconds.
 File lengths (MBytes):  RWF=    107 Int=      0 D2E=      0 Chk=     17 Scr=      1
 Normal termination of Gaussian 16 at Wed Aug 14 19:04:47 2024.
 
 
-----Kestrel cluster job statistics-----
Time info:

real	10m27.457s
user	163m33.948s
sys	0m19.664s
 
Disk space usage:
17M	/scratch/362958.kestrel.chem.wisc.edu
