 Entering Gaussian System, Link 0=/share/apps/gaussian/g16/g16
 Initial command:
 /share/apps/gaussian/g16/l1.exe "/scratch/362965.kestrel.chem.wisc.edu/Gau-7357.inp" -scrdir="/scratch/362965.kestrel.chem.wisc.edu/"
 Entering Link 1 = /share/apps/gaussian/g16/l1.exe PID=      7358.
  
 Copyright (c) 1988-2019, Gaussian, Inc.  All Rights Reserved.
  
 This is part of the Gaussian(R) 16 program.  It is based on
 the Gaussian(R) 09 system (copyright 2009, Gaussian, Inc.),
 the Gaussian(R) 03 system (copyright 2003, Gaussian, Inc.),
 the Gaussian(R) 98 system (copyright 1998, Gaussian, Inc.),
 the Gaussian(R) 94 system (copyright 1995, Gaussian, Inc.),
 the Gaussian 92(TM) system (copyright 1992, Gaussian, Inc.),
 the Gaussian 90(TM) system (copyright 1990, Gaussian, Inc.),
 the Gaussian 88(TM) system (copyright 1988, Gaussian, Inc.),
 the Gaussian 86(TM) system (copyright 1986, Carnegie Mellon
 University), and the Gaussian 82(TM) system (copyright 1983,
 Carnegie Mellon University). Gaussian is a federally registered
 trademark of Gaussian, Inc.
  
 This software contains proprietary and confidential information,
 including trade secrets, belonging to Gaussian, Inc.
  
 This software is provided under written license and may be
 used, copied, transmitted, or stored only in accord with that
 written license.
  
 The following legend is applicable only to US Government
 contracts under FAR:
  
                    RESTRICTED RIGHTS LEGEND
  
 Use, reproduction and disclosure by the US Government is
 subject to restrictions as set forth in subparagraphs (a)
 and (c) of the Commercial Computer Software - Restricted
 Rights clause in FAR 52.227-19.
  
 Gaussian, Inc.
 340 Quinnipiac St., Bldg. 40, Wallingford CT 06492
  
  
 ---------------------------------------------------------------
 Warning -- This program may not be used in any manner that
 competes with the business of Gaussian, Inc. or will provide
 assistance to any competitor of Gaussian, Inc.  The licensee
 of this program is prohibited from giving any competitor of
 Gaussian, Inc. access to this program.  By using this program,
 the user acknowledges that Gaussian, Inc. is engaged in the
 business of creating and licensing software in the field of
 computational chemistry and represents and warrants to the
 licensee that it is not a competitor of Gaussian, Inc. and that
 it will not use this program in any manner prohibited above.
 ---------------------------------------------------------------
  

 Cite this work as:
 Gaussian 16, Revision C.01,
 M. J. Frisch, G. W. Trucks, H. B. Schlegel, G. E. Scuseria, 
 M. A. Robb, J. R. Cheeseman, G. Scalmani, V. Barone, 
 G. A. Petersson, H. Nakatsuji, X. Li, M. Caricato, A. V. Marenich, 
 J. Bloino, B. G. Janesko, R. Gomperts, B. Mennucci, H. P. Hratchian, 
 J. V. Ortiz, A. F. Izmaylov, J. L. Sonnenberg, D. Williams-Young, 
 F. Ding, F. Lipparini, F. Egidi, J. Goings, B. Peng, A. Petrone, 
 T. Henderson, D. Ranasinghe, V. G. Zakrzewski, J. Gao, N. Rega, 
 G. Zheng, W. Liang, M. Hada, M. Ehara, K. Toyota, R. Fukuda, 
 J. Hasegawa, M. Ishida, T. Nakajima, Y. Honda, O. Kitao, H. Nakai, 
 T. Vreven, K. Throssell, J. A. Montgomery, Jr., J. E. Peralta, 
 F. Ogliaro, M. J. Bearpark, J. J. Heyd, E. N. Brothers, K. N. Kudin, 
 V. N. Staroverov, T. A. Keith, R. Kobayashi, J. Normand, 
 K. Raghavachari, A. P. Rendell, J. C. Burant, S. S. Iyengar, 
 J. Tomasi, M. Cossi, J. M. Millam, M. Klene, C. Adamo, R. Cammi, 
 J. W. Ochterski, R. L. Martin, K. Morokuma, O. Farkas, 
 J. B. Foresman, and D. J. Fox, Gaussian, Inc., Wallingford CT, 2019.
 
 ******************************************
 Gaussian 16:  ES64L-G16RevC.01  3-Jul-2019
                14-Aug-2024 
 ******************************************
 %nprocs=16
 Will use up to   16 processors via shared memory.
 %mem=16GB
 %chk=pyrd4_conf-2.chk
 ----------------------------------------------------------------------
 # B3LYP/6-31G(d,p) symmetry=loose empiricaldispersion=GD3BJ int=(grid=
 ultrafine) opt freq=noraman
 ----------------------------------------------------------------------
 1/18=20,19=15,26=4,38=1/1,3;
 2/9=110,12=2,17=4,18=3,40=1/2;
 3/5=1,6=6,7=101,11=2,25=1,30=1,71=1,74=-5,75=-5,124=41/1,2,3;
 4//1;
 5/5=2,38=5/2;
 6/7=2,8=2,9=2,10=2,28=1/1;
 7//1,2,3,16;
 1/18=20,19=15,26=4/3(2);
 2/9=110/2;
 99//99;
 2/9=110/2;
 3/5=1,6=6,7=101,11=2,25=1,30=1,71=1,74=-5,75=-5,124=41/1,2,3;
 4/5=5,16=3,69=1/1;
 5/5=2,38=5/2;
 7//1,2,3,16;
 1/18=20,19=15,26=4/3(-5);
 2/9=110/2;
 6/7=2,8=2,9=2,10=2,19=2,28=1/1;
 99/9=1/99;
 ---------
 pyrd4.xyz
 ---------
 Symbolic Z-matrix:
 Charge =  0 Multiplicity = 1
 O                     2.7422    1.2432    1.8993 
 C                     1.9247    1.0772    2.804 
 N                     2.2254    1.0379    4.1156 
 C                     3.4441    1.2225    4.7744 
 N                     3.3539    1.0453    6.1161 
 C                     4.4737    1.2006    6.8654 
 C                     5.7104    1.5369    6.3145 
 C                     5.805     1.7235    4.9328 
 C                     7.1463    2.0928    4.3084 
 C                     7.584     1.5722    2.9552 
 C                     7.263     3.0414    3.1336 
 C                     4.6541    1.5648    4.151 
 C                     0.4645    0.8507    2.4757 
 C                    -0.5588    1.221     3.3652 
 C                    -1.8934    1.0008    3.0337 
 C                    -2.2315    0.4155    1.8127 
 B                    -3.7501    0.1671    1.4401 
 O                    -4.176    -0.4       0.2602 
 C                    -5.5763   -0.207     0.1822 
 C                    -5.7731    1.0892   -0.6433 
 C                    -6.1574   -1.4198   -0.5722 
 C                    -5.9667   -0.111     1.7026 
 C                    -7.1556    0.8183    2.02 
 C                    -6.125    -1.4642    2.44 
 O                    -4.8108    0.4912    2.256 
 C                    -1.2202    0.057     0.9203 
 C                     0.1155    0.2757    1.2461 
 H                     1.4623    0.8172    4.7272 
 H                     4.3634    1.049     7.9296 
 H                     6.5769    1.6504    6.9486 
 H                     7.9444    2.1772    5.0484 
 H                     6.8992    0.9373    2.3901 
 H                     8.6223    1.262     2.8302 
 H                     8.0744    3.7704    3.1345 
 H                     6.3507    3.4489    2.6945 
 H                     4.7189    1.7103    3.0855 
 H                    -0.3409    1.6979    4.3104 
 H                    -2.6743    1.291     3.7229 
 H                    -5.31      1.0087   -1.6275 
 H                    -5.3268    1.9547   -0.1519 
 H                    -6.8302    1.3042   -0.7968 
 H                    -7.2463   -1.3834   -0.5923 
 H                    -5.8638   -2.3656   -0.1166 
 H                    -5.8062   -1.4499   -1.6042 
 H                    -6.9804    1.8391    1.6799 
 H                    -7.3387    0.8753    3.0935 
 H                    -8.069     0.4611    1.545 
 H                    -6.2072   -1.3232    3.5184 
 H                    -5.2713   -2.1213    2.269 
 H                    -7.0197   -1.9919    2.1108 
 H                    -1.4735   -0.39     -0.0309 
 H                     0.8826   -0.0051    0.5357 
 

 GradGradGradGradGradGradGradGradGradGradGradGradGradGradGradGradGradGrad
 Berny optimization.
 Initialization pass.
                           ----------------------------
                           !    Initial Parameters    !
                           ! (Angstroms and Degrees)  !
 --------------------------                            --------------------------
 ! Name  Definition              Value          Derivative Info.                !
 --------------------------------------------------------------------------------
 ! R1    R(1,2)                  1.2306         estimate D2E/DX2                !
 ! R2    R(2,3)                  1.3462         estimate D2E/DX2                !
 ! R3    R(2,13)                 1.5137         estimate D2E/DX2                !
 ! R4    R(3,4)                  1.3976         estimate D2E/DX2                !
 ! R5    R(3,28)                 1.0025         estimate D2E/DX2                !
 ! R6    R(4,5)                  1.3564         estimate D2E/DX2                !
 ! R7    R(4,12)                 1.4035         estimate D2E/DX2                !
 ! R8    R(5,6)                  1.3563         estimate D2E/DX2                !
 ! R9    R(6,7)                  1.395          estimate D2E/DX2                !
 ! R10   R(6,29)                 1.0806         estimate D2E/DX2                !
 ! R11   R(7,8)                  1.3974         estimate D2E/DX2                !
 ! R12   R(7,30)                 1.0797         estimate D2E/DX2                !
 ! R13   R(8,9)                  1.5249         estimate D2E/DX2                !
 ! R14   R(8,12)                 1.4003         estimate D2E/DX2                !
 ! R15   R(9,10)                 1.5145         estimate D2E/DX2                !
 ! R16   R(9,11)                 1.5145         estimate D2E/DX2                !
 ! R17   R(9,31)                 1.0916         estimate D2E/DX2                !
 ! R18   R(10,11)                1.5144         estimate D2E/DX2                !
 ! R19   R(10,32)                1.0915         estimate D2E/DX2                !
 ! R20   R(10,33)                1.0908         estimate D2E/DX2                !
 ! R21   R(11,34)                1.0908         estimate D2E/DX2                !
 ! R22   R(11,35)                1.0914         estimate D2E/DX2                !
 ! R23   R(12,36)                1.0773         estimate D2E/DX2                !
 ! R24   R(13,14)                1.4055         estimate D2E/DX2                !
 ! R25   R(13,27)                1.4015         estimate D2E/DX2                !
 ! R26   R(14,15)                1.3927         estimate D2E/DX2                !
 ! R27   R(14,37)                1.0809         estimate D2E/DX2                !
 ! R28   R(15,16)                1.3956         estimate D2E/DX2                !
 ! R29   R(15,38)                1.0812         estimate D2E/DX2                !
 ! R30   R(16,17)                1.5832         estimate D2E/DX2                !
 ! R31   R(16,26)                1.3956         estimate D2E/DX2                !
 ! R32   R(17,18)                1.3766         estimate D2E/DX2                !
 ! R33   R(17,25)                1.3769         estimate D2E/DX2                !
 ! R34   R(18,19)                1.4157         estimate D2E/DX2                !
 ! R35   R(19,20)                1.5493         estimate D2E/DX2                !
 ! R36   R(19,21)                1.542          estimate D2E/DX2                !
 ! R37   R(19,22)                1.5727         estimate D2E/DX2                !
 ! R38   R(20,39)                1.0907         estimate D2E/DX2                !
 ! R39   R(20,40)                1.0908         estimate D2E/DX2                !
 ! R40   R(20,41)                1.0896         estimate D2E/DX2                !
 ! R41   R(21,42)                1.0897         estimate D2E/DX2                !
 ! R42   R(21,43)                1.0901         estimate D2E/DX2                !
 ! R43   R(21,44)                1.0905         estimate D2E/DX2                !
 ! R44   R(22,23)                1.542          estimate D2E/DX2                !
 ! R45   R(22,24)                1.5492         estimate D2E/DX2                !
 ! R46   R(22,25)                1.416          estimate D2E/DX2                !
 ! R47   R(23,45)                1.0901         estimate D2E/DX2                !
 ! R48   R(23,46)                1.0905         estimate D2E/DX2                !
 ! R49   R(23,47)                1.0897         estimate D2E/DX2                !
 ! R50   R(24,48)                1.0907         estimate D2E/DX2                !
 ! R51   R(24,49)                1.0908         estimate D2E/DX2                !
 ! R52   R(24,50)                1.0896         estimate D2E/DX2                !
 ! R53   R(26,27)                1.3921         estimate D2E/DX2                !
 ! R54   R(26,51)                1.0811         estimate D2E/DX2                !
 ! R55   R(27,52)                1.0826         estimate D2E/DX2                !
 ! A1    A(1,2,3)              124.878          estimate D2E/DX2                !
 ! A2    A(1,2,13)             120.1043         estimate D2E/DX2                !
 ! A3    A(3,2,13)             114.9874         estimate D2E/DX2                !
 ! A4    A(2,3,4)              130.555          estimate D2E/DX2                !
 ! A5    A(2,3,28)             115.5168         estimate D2E/DX2                !
 ! A6    A(4,3,28)             113.9063         estimate D2E/DX2                !
 ! A7    A(3,4,5)              113.0191         estimate D2E/DX2                !
 ! A8    A(3,4,12)             125.0712         estimate D2E/DX2                !
 ! A9    A(5,4,12)             121.9083         estimate D2E/DX2                !
 ! A10   A(4,5,6)              118.4655         estimate D2E/DX2                !
 ! A11   A(5,6,7)              122.7774         estimate D2E/DX2                !
 ! A12   A(5,6,29)             116.343          estimate D2E/DX2                !
 ! A13   A(7,6,29)             120.8796         estimate D2E/DX2                !
 ! A14   A(6,7,8)              118.8596         estimate D2E/DX2                !
 ! A15   A(6,7,30)             120.3231         estimate D2E/DX2                !
 ! A16   A(8,7,30)             120.8173         estimate D2E/DX2                !
 ! A17   A(7,8,9)              119.7842         estimate D2E/DX2                !
 ! A18   A(7,8,12)             118.7658         estimate D2E/DX2                !
 ! A19   A(9,8,12)             121.45           estimate D2E/DX2                !
 ! A20   A(8,9,10)             122.467          estimate D2E/DX2                !
 ! A21   A(8,9,11)             122.4865         estimate D2E/DX2                !
 ! A22   A(8,9,31)             112.5957         estimate D2E/DX2                !
 ! A23   A(10,9,31)            114.8952         estimate D2E/DX2                !
 ! A24   A(11,9,31)            114.9027         estimate D2E/DX2                !
 ! A25   A(9,10,32)            118.7643         estimate D2E/DX2                !
 ! A26   A(9,10,33)            118.3737         estimate D2E/DX2                !
 ! A27   A(11,10,32)           119.4929         estimate D2E/DX2                !
 ! A28   A(11,10,33)           119.4154         estimate D2E/DX2                !
 ! A29   A(32,10,33)           111.8661         estimate D2E/DX2                !
 ! A30   A(9,11,34)            118.3783         estimate D2E/DX2                !
 ! A31   A(9,11,35)            118.7864         estimate D2E/DX2                !
 ! A32   A(10,11,34)           119.3932         estimate D2E/DX2                !
 ! A33   A(10,11,35)           119.4731         estimate D2E/DX2                !
 ! A34   A(34,11,35)           111.8757         estimate D2E/DX2                !
 ! A35   A(4,12,8)             119.2229         estimate D2E/DX2                !
 ! A36   A(4,12,36)            121.6061         estimate D2E/DX2                !
 ! A37   A(8,12,36)            119.1709         estimate D2E/DX2                !
 ! A38   A(2,13,14)            121.7119         estimate D2E/DX2                !
 ! A39   A(2,13,27)            119.464          estimate D2E/DX2                !
 ! A40   A(14,13,27)           118.817          estimate D2E/DX2                !
 ! A41   A(13,14,15)           120.3581         estimate D2E/DX2                !
 ! A42   A(13,14,37)           121.5262         estimate D2E/DX2                !
 ! A43   A(15,14,37)           118.1057         estimate D2E/DX2                !
 ! A44   A(14,15,16)           120.4455         estimate D2E/DX2                !
 ! A45   A(14,15,38)           119.8652         estimate D2E/DX2                !
 ! A46   A(16,15,38)           119.6879         estimate D2E/DX2                !
 ! A47   A(15,16,17)           120.269          estimate D2E/DX2                !
 ! A48   A(15,16,26)           119.4475         estimate D2E/DX2                !
 ! A49   A(17,16,26)           120.2827         estimate D2E/DX2                !
 ! A50   A(16,17,18)           124.2689         estimate D2E/DX2                !
 ! A51   A(16,17,25)           124.2302         estimate D2E/DX2                !
 ! A52   A(18,17,25)           111.5009         estimate D2E/DX2                !
 ! A53   A(17,18,19)           107.282          estimate D2E/DX2                !
 ! A54   A(18,19,20)           105.6083         estimate D2E/DX2                !
 ! A55   A(18,19,21)           107.007          estimate D2E/DX2                !
 ! A56   A(18,19,22)           101.5721         estimate D2E/DX2                !
 ! A57   A(20,19,21)           110.4559         estimate D2E/DX2                !
 ! A58   A(20,19,22)           115.6272         estimate D2E/DX2                !
 ! A59   A(21,19,22)           115.3057         estimate D2E/DX2                !
 ! A60   A(19,20,39)           111.4149         estimate D2E/DX2                !
 ! A61   A(19,20,40)           111.8293         estimate D2E/DX2                !
 ! A62   A(19,20,41)           111.308          estimate D2E/DX2                !
 ! A63   A(39,20,40)           106.9396         estimate D2E/DX2                !
 ! A64   A(39,20,41)           107.4197         estimate D2E/DX2                !
 ! A65   A(40,20,41)           107.6893         estimate D2E/DX2                !
 ! A66   A(19,21,42)           111.0592         estimate D2E/DX2                !
 ! A67   A(19,21,43)           112.1131         estimate D2E/DX2                !
 ! A68   A(19,21,44)           111.3047         estimate D2E/DX2                !
 ! A69   A(42,21,43)           107.8081         estimate D2E/DX2                !
 ! A70   A(42,21,44)           107.7747         estimate D2E/DX2                !
 ! A71   A(43,21,44)           106.5484         estimate D2E/DX2                !
 ! A72   A(19,22,23)           115.2886         estimate D2E/DX2                !
 ! A73   A(19,22,24)           115.6087         estimate D2E/DX2                !
 ! A74   A(19,22,25)           101.6044         estimate D2E/DX2                !
 ! A75   A(23,22,24)           110.4661         estimate D2E/DX2                !
 ! A76   A(23,22,25)           107.0162         estimate D2E/DX2                !
 ! A77   A(24,22,25)           105.5971         estimate D2E/DX2                !
 ! A78   A(22,23,45)           112.0981         estimate D2E/DX2                !
 ! A79   A(22,23,46)           111.3204         estimate D2E/DX2                !
 ! A80   A(22,23,47)           111.0377         estimate D2E/DX2                !
 ! A81   A(45,23,46)           106.5682         estimate D2E/DX2                !
 ! A82   A(45,23,47)           107.7978         estimate D2E/DX2                !
 ! A83   A(46,23,47)           107.7877         estimate D2E/DX2                !
 ! A84   A(22,24,48)           111.4329         estimate D2E/DX2                !
 ! A85   A(22,24,49)           111.8147         estimate D2E/DX2                !
 ! A86   A(22,24,50)           111.2917         estimate D2E/DX2                !
 ! A87   A(48,24,49)           106.9696         estimate D2E/DX2                !
 ! A88   A(48,24,50)           107.4239         estimate D2E/DX2                !
 ! A89   A(49,24,50)           107.6693         estimate D2E/DX2                !
 ! A90   A(17,25,22)           107.2875         estimate D2E/DX2                !
 ! A91   A(16,26,27)           120.3488         estimate D2E/DX2                !
 ! A92   A(16,26,51)           119.9373         estimate D2E/DX2                !
 ! A93   A(27,26,51)           119.7137         estimate D2E/DX2                !
 ! A94   A(13,27,26)           120.5759         estimate D2E/DX2                !
 ! A95   A(13,27,52)           120.3762         estimate D2E/DX2                !
 ! A96   A(26,27,52)           119.0479         estimate D2E/DX2                !
 ! D1    D(1,2,3,4)              3.1854         estimate D2E/DX2                !
 ! D2    D(1,2,3,28)          -174.9849         estimate D2E/DX2                !
 ! D3    D(13,2,3,4)          -178.8248         estimate D2E/DX2                !
 ! D4    D(13,2,3,28)            3.0049         estimate D2E/DX2                !
 ! D5    D(1,2,13,14)         -151.9882         estimate D2E/DX2                !
 ! D6    D(1,2,13,27)           27.0329         estimate D2E/DX2                !
 ! D7    D(3,2,13,14)           29.918          estimate D2E/DX2                !
 ! D8    D(3,2,13,27)         -151.0609         estimate D2E/DX2                !
 ! D9    D(2,3,4,5)           -177.2625         estimate D2E/DX2                !
 ! D10   D(2,3,4,12)             3.1622         estimate D2E/DX2                !
 ! D11   D(28,3,4,5)             0.9314         estimate D2E/DX2                !
 ! D12   D(28,3,4,12)         -178.6439         estimate D2E/DX2                !
 ! D13   D(3,4,5,6)           -179.8781         estimate D2E/DX2                !
 ! D14   D(12,4,5,6)            -0.2875         estimate D2E/DX2                !
 ! D15   D(3,4,12,8)           179.8071         estimate D2E/DX2                !
 ! D16   D(3,4,12,36)           -0.079          estimate D2E/DX2                !
 ! D17   D(5,4,12,8)             0.2676         estimate D2E/DX2                !
 ! D18   D(5,4,12,36)         -179.6186         estimate D2E/DX2                !
 ! D19   D(4,5,6,7)              0.1363         estimate D2E/DX2                !
 ! D20   D(4,5,6,29)          -179.849          estimate D2E/DX2                !
 ! D21   D(5,6,7,8)              0.0333         estimate D2E/DX2                !
 ! D22   D(5,6,7,30)          -179.9892         estimate D2E/DX2                !
 ! D23   D(29,6,7,8)          -179.9821         estimate D2E/DX2                !
 ! D24   D(29,6,7,30)           -0.0046         estimate D2E/DX2                !
 ! D25   D(6,7,8,9)            179.9444         estimate D2E/DX2                !
 ! D26   D(6,7,8,12)            -0.054          estimate D2E/DX2                !
 ! D27   D(30,7,8,9)            -0.033          estimate D2E/DX2                !
 ! D28   D(30,7,8,12)          179.9686         estimate D2E/DX2                !
 ! D29   D(7,8,9,10)           143.738          estimate D2E/DX2                !
 ! D30   D(7,8,9,11)          -143.5705         estimate D2E/DX2                !
 ! D31   D(7,8,9,31)             0.1064         estimate D2E/DX2                !
 ! D32   D(12,8,9,10)          -36.2636         estimate D2E/DX2                !
 ! D33   D(12,8,9,11)           36.4278         estimate D2E/DX2                !
 ! D34   D(12,8,9,31)         -179.8953         estimate D2E/DX2                !
 ! D35   D(7,8,12,4)            -0.0893         estimate D2E/DX2                !
 ! D36   D(7,8,12,36)          179.7996         estimate D2E/DX2                !
 ! D37   D(9,8,12,4)           179.9123         estimate D2E/DX2                !
 ! D38   D(9,8,12,36)           -0.1988         estimate D2E/DX2                !
 ! D39   D(8,9,10,32)            2.2105         estimate D2E/DX2                !
 ! D40   D(8,9,10,33)         -138.9916         estimate D2E/DX2                !
 ! D41   D(31,9,10,32)         145.0868         estimate D2E/DX2                !
 ! D42   D(31,9,10,33)           3.8847         estimate D2E/DX2                !
 ! D43   D(8,9,11,34)          139.0507         estimate D2E/DX2                !
 ! D44   D(8,9,11,35)           -2.2112         estimate D2E/DX2                !
 ! D45   D(31,9,11,34)          -3.8695         estimate D2E/DX2                !
 ! D46   D(31,9,11,35)        -145.1314         estimate D2E/DX2                !
 ! D47   D(32,10,11,34)       -144.0909         estimate D2E/DX2                !
 ! D48   D(32,10,11,35)         -0.0367         estimate D2E/DX2                !
 ! D49   D(33,10,11,34)          0.0163         estimate D2E/DX2                !
 ! D50   D(33,10,11,35)        144.0706         estimate D2E/DX2                !
 ! D51   D(2,13,14,15)         179.9279         estimate D2E/DX2                !
 ! D52   D(2,13,14,37)           1.1019         estimate D2E/DX2                !
 ! D53   D(27,13,14,15)          0.9007         estimate D2E/DX2                !
 ! D54   D(27,13,14,37)       -177.9254         estimate D2E/DX2                !
 ! D55   D(2,13,27,26)        -179.999          estimate D2E/DX2                !
 ! D56   D(2,13,27,52)           0.0173         estimate D2E/DX2                !
 ! D57   D(14,13,27,26)         -0.9494         estimate D2E/DX2                !
 ! D58   D(14,13,27,52)        179.0668         estimate D2E/DX2                !
 ! D59   D(13,14,15,16)         -0.279          estimate D2E/DX2                !
 ! D60   D(13,14,15,38)       -179.8503         estimate D2E/DX2                !
 ! D61   D(37,14,15,16)        178.5865         estimate D2E/DX2                !
 ! D62   D(37,14,15,38)         -0.9847         estimate D2E/DX2                !
 ! D63   D(14,15,16,17)       -179.9994         estimate D2E/DX2                !
 ! D64   D(14,15,16,26)         -0.3083         estimate D2E/DX2                !
 ! D65   D(38,15,16,17)         -0.4274         estimate D2E/DX2                !
 ! D66   D(38,15,16,26)        179.2637         estimate D2E/DX2                !
 ! D67   D(15,16,17,18)        179.8455         estimate D2E/DX2                !
 ! D68   D(15,16,17,25)         -0.1628         estimate D2E/DX2                !
 ! D69   D(26,16,17,18)          0.1569         estimate D2E/DX2                !
 ! D70   D(26,16,17,25)       -179.8513         estimate D2E/DX2                !
 ! D71   D(15,16,26,27)          0.2612         estimate D2E/DX2                !
 ! D72   D(15,16,26,51)       -179.5339         estimate D2E/DX2                !
 ! D73   D(17,16,26,27)        179.9523         estimate D2E/DX2                !
 ! D74   D(17,16,26,51)          0.1572         estimate D2E/DX2                !
 ! D75   D(16,17,18,19)       -168.423          estimate D2E/DX2                !
 ! D76   D(25,17,18,19)         11.5844         estimate D2E/DX2                !
 ! D77   D(16,17,25,22)       -168.8487         estimate D2E/DX2                !
 ! D78   D(18,17,25,22)         11.144          estimate D2E/DX2                !
 ! D79   D(17,18,19,20)         94.4525         estimate D2E/DX2                !
 ! D80   D(17,18,19,21)       -147.8432         estimate D2E/DX2                !
 ! D81   D(17,18,19,22)        -26.5848         estimate D2E/DX2                !
 ! D82   D(18,19,20,39)         57.7418         estimate D2E/DX2                !
 ! D83   D(18,19,20,40)        -61.8783         estimate D2E/DX2                !
 ! D84   D(18,19,20,41)        177.6187         estimate D2E/DX2                !
 ! D85   D(21,19,20,39)        -57.6199         estimate D2E/DX2                !
 ! D86   D(21,19,20,40)       -177.2399         estimate D2E/DX2                !
 ! D87   D(21,19,20,41)         62.2571         estimate D2E/DX2                !
 ! D88   D(22,19,20,39)        169.1504         estimate D2E/DX2                !
 ! D89   D(22,19,20,40)         49.5303         estimate D2E/DX2                !
 ! D90   D(22,19,20,41)        -70.9726         estimate D2E/DX2                !
 ! D91   D(18,19,21,42)        174.9094         estimate D2E/DX2                !
 ! D92   D(18,19,21,43)         54.2327         estimate D2E/DX2                !
 ! D93   D(18,19,21,44)        -65.006          estimate D2E/DX2                !
 ! D94   D(20,19,21,42)        -70.6097         estimate D2E/DX2                !
 ! D95   D(20,19,21,43)        168.7137         estimate D2E/DX2                !
 ! D96   D(20,19,21,44)         49.475          estimate D2E/DX2                !
 ! D97   D(22,19,21,42)         62.7825         estimate D2E/DX2                !
 ! D98   D(22,19,21,43)        -57.8941         estimate D2E/DX2                !
 ! D99   D(22,19,21,44)       -177.1328         estimate D2E/DX2                !
 ! D100  D(18,19,22,23)        147.5821         estimate D2E/DX2                !
 ! D101  D(18,19,22,24)        -81.4764         estimate D2E/DX2                !
 ! D102  D(18,19,22,25)         32.2774         estimate D2E/DX2                !
 ! D103  D(20,19,22,23)         33.8267         estimate D2E/DX2                !
 ! D104  D(20,19,22,24)        164.7682         estimate D2E/DX2                !
 ! D105  D(20,19,22,25)        -81.478          estimate D2E/DX2                !
 ! D106  D(21,19,22,23)        -97.1366         estimate D2E/DX2                !
 ! D107  D(21,19,22,24)         33.8049         estimate D2E/DX2                !
 ! D108  D(21,19,22,25)        147.5587         estimate D2E/DX2                !
 ! D109  D(19,22,23,45)        -57.9103         estimate D2E/DX2                !
 ! D110  D(19,22,23,46)       -177.1748         estimate D2E/DX2                !
 ! D111  D(19,22,23,47)         62.7279         estimate D2E/DX2                !
 ! D112  D(24,22,23,45)        168.7309         estimate D2E/DX2                !
 ! D113  D(24,22,23,46)         49.4664         estimate D2E/DX2                !
 ! D114  D(24,22,23,47)        -70.6308         estimate D2E/DX2                !
 ! D115  D(25,22,23,45)         54.253          estimate D2E/DX2                !
 ! D116  D(25,22,23,46)        -65.0115         estimate D2E/DX2                !
 ! D117  D(25,22,23,47)        174.8913         estimate D2E/DX2                !
 ! D118  D(19,22,24,48)        169.2038         estimate D2E/DX2                !
 ! D119  D(19,22,24,49)         49.5432         estimate D2E/DX2                !
 ! D120  D(19,22,24,50)        -70.9127         estimate D2E/DX2                !
 ! D121  D(23,22,24,48)        -57.5992         estimate D2E/DX2                !
 ! D122  D(23,22,24,49)       -177.2597         estimate D2E/DX2                !
 ! D123  D(23,22,24,50)         62.2843         estimate D2E/DX2                !
 ! D124  D(25,22,24,48)         57.7721         estimate D2E/DX2                !
 ! D125  D(25,22,24,49)        -61.8884         estimate D2E/DX2                !
 ! D126  D(25,22,24,50)        177.6556         estimate D2E/DX2                !
 ! D127  D(19,22,25,17)        -26.332          estimate D2E/DX2                !
 ! D128  D(23,22,25,17)       -147.5906         estimate D2E/DX2                !
 ! D129  D(24,22,25,17)         94.6945         estimate D2E/DX2                !
 ! D130  D(16,26,27,13)          0.3754         estimate D2E/DX2                !
 ! D131  D(16,26,27,52)       -179.6407         estimate D2E/DX2                !
 ! D132  D(51,26,27,13)       -179.829          estimate D2E/DX2                !
 ! D133  D(51,26,27,52)          0.1549         estimate D2E/DX2                !
 --------------------------------------------------------------------------------
 Trust Radius=3.00D-01 FncErr=1.00D-07 GrdErr=1.00D-06 EigMax=2.50D+02 EigMin=1.00D-04
 Number of steps in this run=    294 maximum allowed number of steps=    312.
 GradGradGradGradGradGradGradGradGradGradGradGradGradGradGradGradGradGrad

 Stoichiometry    C21H25BN2O3
 Framework group  C1[X(C21H25BN2O3)]
 Deg. of freedom   150
 Full point group                 C1      NOp   1
 Largest Abelian subgroup         C1      NOp   1
 Largest concise Abelian subgroup C1      NOp   1
                         Standard orientation:                         
 ---------------------------------------------------------------------
 Center     Atomic      Atomic             Coordinates (Angstroms)
 Number     Number       Type             X           Y           Z
 ---------------------------------------------------------------------
      1          8           0       -2.522668   -1.604366   -0.001337
      2          6           0       -1.995687   -0.492544   -0.023384
      3          7           0       -2.662726    0.674071   -0.102931
      4          6           0       -4.035341    0.936784   -0.118248
      5          7           0       -4.321595    2.254009   -0.268821
      6          6           0       -5.623384    2.633649   -0.296025
      7          6           0       -6.676999    1.727677   -0.173047
      8          6           0       -6.384465    0.370452   -0.014209
      9          6           0       -7.519908   -0.638089    0.123478
     10          6           0       -7.448587   -2.028912   -0.471737
     11          6           0       -7.428696   -1.846698    1.031532
     12          6           0       -5.043190   -0.030944    0.014571
     13          6           0       -0.487311   -0.366828   -0.007106
     14          6           0        0.154289    0.760709    0.533713
     15          6           0        1.544326    0.846329    0.535375
     16          6           0        2.317195   -0.188050    0.005786
     17          5           0        3.897170   -0.086350    0.009838
     18          8           0        4.737679   -1.056855   -0.486974
     19          6           0        6.049710   -0.733041   -0.065204
     20          6           0        6.278089   -1.535948    1.239978
     21          6           0        7.010737   -1.215973   -1.170140
     22          6           0        5.950433    0.827265    0.104604
     23          6           0        6.830808    1.425803    1.220182
     24          6           0        6.091625    1.652963   -1.198567
     25          8           0        4.603094    0.984416    0.510785
     26          6           0        1.685918   -1.315508   -0.521428
     27          6           0        0.296773   -1.406808   -0.524790
     28          1           0       -2.091306    1.493212   -0.189950
     29          1           0       -5.812202    3.690373   -0.419932
     30          1           0       -7.699421    2.073651   -0.200303
     31          1           0       -8.504842   -0.169404    0.079585
     32          1           0       -6.536406   -2.333024   -0.988291
     33          1           0       -8.340987   -2.434266   -0.950512
     34          1           0       -8.307083   -2.123486    1.616028
     35          1           0       -6.502466   -2.022151    1.581505
     36          1           0       -4.810175   -1.075278    0.139991
     37          1           0       -0.406437    1.572918    0.974417
     38          1           0        2.029661    1.716284    0.955667
     39          1           0        6.147056   -2.606412    1.077101
     40          1           0        5.576458   -1.245385    2.022943
     41          1           0        7.285862   -1.385696    1.626069
     42          1           0        8.036693   -0.919114   -0.953990
     43          1           0        6.746433   -0.814036   -2.148352
     44          1           0        6.991446   -2.302196   -1.265105
     45          1           0        6.607487    0.993020    2.195488
     46          1           0        6.675223    2.501046    1.314113
     47          1           0        7.888162    1.259014    1.015976
     48          1           0        5.826425    2.698729   -1.038481
     49          1           0        5.440953    1.276947   -1.989176
     50          1           0        7.114644    1.629418   -1.573009
     51          1           0        2.277103   -2.124771   -0.926822
     52          1           0       -0.170728   -2.293497   -0.933672
 ---------------------------------------------------------------------
 Rotational constants (GHZ):           0.6260699           0.0533155           0.0506199
 Standard basis: 6-31G(d,p) (6D, 7F)
 There are   530 symmetry adapted cartesian basis functions of A   symmetry.
 There are   530 symmetry adapted basis functions of A   symmetry.
   530 basis functions,   931 primitive gaussians,   530 cartesian basis functions
    97 alpha electrons       97 beta electrons
       nuclear repulsion energy      2231.6790400646 Hartrees.
 NAtoms=   52 NActive=   52 NUniq=   52 SFac= 1.00D+00 NAtFMM=   60 NAOKFM=F Big=F
 Integral buffers will be    131072 words long.
 Raffenetti 2 integral format.
 Two-electron integral symmetry is turned on.
 Nuclear repulsion after empirical dispersion term =     2231.5725885678 Hartrees.
 One-electron integrals computed using PRISM.
 NBasis=   530 RedAO= T EigKep=  4.37D-04  NBF=   530
 NBsUse=   530 1.00D-06 EigRej= -1.00D+00 NBFU=   530
 ExpMin= 1.27D-01 ExpMax= 5.48D+03 ExpMxC= 8.25D+02 IAcc=3 IRadAn=         5 AccDes= 0.00D+00
 Harris functional with IExCor=  402 and IRadAn=       5 diagonalized for initial guess.
 HarFok:  IExCor=  402 AccDes= 0.00D+00 IRadAn=         5 IDoV= 1 UseB2=F ITyADJ=14
 ICtDFT=  3500011 ScaDFX=  1.000000  1.000000  1.000000  1.000000
 FoFCou: FMM=F IPFlag=           0 FMFlag=      100000 FMFlg1=           0
         NFxFlg=           0 DoJE=T BraDBF=F KetDBF=T FulRan=T
         wScrn=  0.000000 ICntrl=       500 IOpCl=  0 I1Cent=   200000004 NGrid=           0
         NMat0=    1 NMatS0=      1 NMatT0=    0 NMatD0=    1 NMtDS0=    0 NMtDT0=    0
 Petite list used in FoFCou.
 Requested convergence on RMS density matrix=1.00D-08 within 128 cycles.
 Requested convergence on MAX density matrix=1.00D-06.
 Requested convergence on             energy=1.00D-06.
 No special actions if energy rises.
 Integral accuracy reduced to 1.0D-05 until final iterations.
 Initial convergence to 1.0D-05 achieved.  Increase integral accuracy.
 SCF Done:  E(RB3LYP) =  -1175.58053532     A.U. after   15 cycles
            NFock= 15  Conv=0.48D-08     -V/T= 2.0096

 **********************************************************************

            Population analysis using the SCF Density.

 **********************************************************************

 Orbital symmetries:
       Occupied  (A) (A) (A) (A) (A) (A) (A) (A) (A) (A) (A) (A)
                 (A) (A) (A) (A) (A) (A) (A) (A) (A) (A) (A) (A)
                 (A) (A) (A) (A) (A) (A) (A) (A) (A) (A) (A) (A)
                 (A) (A) (A) (A) (A) (A) (A) (A) (A) (A) (A) (A)
                 (A) (A) (A) (A) (A) (A) (A) (A) (A) (A) (A) (A)
                 (A) (A) (A) (A) (A) (A) (A) (A) (A) (A) (A) (A)
                 (A) (A) (A) (A) (A) (A) (A) (A) (A) (A) (A) (A)
                 (A) (A) (A) (A) (A) (A) (A) (A) (A) (A) (A) (A)
                 (A)
       Virtual   (A) (A) (A) (A) (A) (A) (A) (A) (A) (A) (A) (A)
                 (A) (A) (A) (A) (A) (A) (A) (A) (A) (A) (A) (A)
                 (A) (A) (A) (A) (A) (A) (A) (A) (A) (A) (A) (A)
                 (A) (A) (A) (A) (A) (A) (A) (A) (A) (A) (A) (A)
                 (A) (A) (A) (A) (A) (A) (A) (A) (A) (A) (A) (A)
                 (A) (A) (A) (A) (A) (A) (A) (A) (A) (A) (A) (A)
                 (A) (A) (A) (A) (A) (A) (A) (A) (A) (A) (A) (A)
                 (A) (A) (A) (A) (A) (A) (A) (A) (A) (A) (A) (A)
                 (A) (A) (A) (A) (A) (A) (A) (A) (A) (A) (A) (A)
                 (A) (A) (A) (A) (A) (A) (A) (A) (A) (A) (A) (A)
                 (A) (A) (A) (A) (A) (A) (A) (A) (A) (A) (A) (A)
                 (A) (A) (A) (A) (A) (A) (A) (A) (A) (A) (A) (A)
                 (A) (A) (A) (A) (A) (A) (A) (A) (A) (A) (A) (A)
                 (A) (A) (A) (A) (A) (A) (A) (A) (A) (A) (A) (A)
                 (A) (A) (A) (A) (A) (A) (A) (A) (A) (A) (A) (A)
                 (A) (A) (A) (A) (A) (A) (A) (A) (A) (A) (A) (A)
                 (A) (A) (A) (A) (A) (A) (A) (A) (A) (A) (A) (A)
                 (A) (A) (A) (A) (A) (A) (A) (A) (A) (A) (A) (A)
                 (A) (A) (A) (A) (A) (A) (A) (A) (A) (A) (A) (A)
                 (A) (A) (A) (A) (A) (A) (A) (A) (A) (A) (A) (A)
                 (A) (A) (A) (A) (A) (A) (A) (A) (A) (A) (A) (A)
                 (A) (A) (A) (A) (A) (A) (A) (A) (A) (A) (A) (A)
                 (A) (A) (A) (A) (A) (A) (A) (A) (A) (A) (A) (A)
                 (A) (A) (A) (A) (A) (A) (A) (A) (A) (A) (A) (A)
                 (A) (A) (A) (A) (A) (A) (A) (A) (A) (A) (A) (A)
                 (A) (A) (A) (A) (A) (A) (A) (A) (A) (A) (A) (A)
                 (A) (A) (A) (A) (A) (A) (A) (A) (A) (A) (A) (A)
                 (A) (A) (A) (A) (A) (A) (A) (A) (A) (A) (A) (A)
                 (A) (A) (A) (A) (A) (A) (A) (A) (A) (A) (A) (A)
                 (A) (A) (A) (A) (A) (A) (A) (A) (A) (A) (A) (A)
                 (A) (A) (A) (A) (A) (A) (A) (A) (A) (A) (A) (A)
                 (A) (A) (A) (A) (A) (A) (A) (A) (A) (A) (A) (A)
                 (A) (A) (A) (A) (A) (A) (A) (A) (A) (A) (A) (A)
                 (A) (A) (A) (A) (A) (A) (A) (A) (A) (A) (A) (A)
                 (A) (A) (A) (A) (A) (A) (A) (A) (A) (A) (A) (A)
                 (A) (A) (A) (A) (A) (A) (A) (A) (A) (A) (A) (A)
                 (A)
 The electronic state is 1-A.
 Alpha  occ. eigenvalues --  -19.15150 -19.15131 -19.11520 -14.37576 -14.32702
 Alpha  occ. eigenvalues --  -10.29253 -10.26648 -10.25453 -10.25433 -10.22286
 Alpha  occ. eigenvalues --  -10.21350 -10.20623 -10.20530 -10.19890 -10.19428
 Alpha  occ. eigenvalues --  -10.19397 -10.19322 -10.19223 -10.19095 -10.18835
 Alpha  occ. eigenvalues --  -10.18789 -10.18170 -10.18160 -10.18149 -10.18128
 Alpha  occ. eigenvalues --  -10.17790  -6.77961  -1.07483  -1.03723  -1.00295
 Alpha  occ. eigenvalues --   -0.96564  -0.90868  -0.86273  -0.85688  -0.80009
 Alpha  occ. eigenvalues --   -0.79305  -0.77016  -0.75137  -0.74760  -0.74354
 Alpha  occ. eigenvalues --   -0.70830  -0.68597  -0.66625  -0.65192  -0.62933
 Alpha  occ. eigenvalues --   -0.61253  -0.60626  -0.60316  -0.58384  -0.57878
 Alpha  occ. eigenvalues --   -0.56125  -0.54760  -0.53735  -0.51569  -0.49655
 Alpha  occ. eigenvalues --   -0.48848  -0.48164  -0.47444  -0.46322  -0.45714
 Alpha  occ. eigenvalues --   -0.45419  -0.44812  -0.44592  -0.44144  -0.43910
 Alpha  occ. eigenvalues --   -0.43412  -0.42560  -0.42172  -0.40720  -0.40668
 Alpha  occ. eigenvalues --   -0.40210  -0.40032  -0.39143  -0.38809  -0.37963
 Alpha  occ. eigenvalues --   -0.37849  -0.37365  -0.37013  -0.36573  -0.36276
 Alpha  occ. eigenvalues --   -0.35942  -0.35898  -0.34658  -0.33373  -0.33249
 Alpha  occ. eigenvalues --   -0.32739  -0.32664  -0.31079  -0.30014  -0.29871
 Alpha  occ. eigenvalues --   -0.27143  -0.26232  -0.25838  -0.25583  -0.25383
 Alpha  occ. eigenvalues --   -0.24532  -0.22852
 Alpha virt. eigenvalues --   -0.04952  -0.01925  -0.00594  -0.00335   0.04885
 Alpha virt. eigenvalues --    0.07286   0.08739   0.09468   0.09722   0.11037
 Alpha virt. eigenvalues --    0.11276   0.12369   0.12492   0.12993   0.13241
 Alpha virt. eigenvalues --    0.13352   0.13399   0.14011   0.15124   0.15244
 Alpha virt. eigenvalues --    0.15334   0.15668   0.15860   0.16018   0.17453
 Alpha virt. eigenvalues --    0.17717   0.17775   0.18176   0.18643   0.19020
 Alpha virt. eigenvalues --    0.19416   0.19632   0.20527   0.20887   0.21749
 Alpha virt. eigenvalues --    0.21841   0.22197   0.22657   0.22868   0.24056
 Alpha virt. eigenvalues --    0.24404   0.24676   0.25890   0.26742   0.27006
 Alpha virt. eigenvalues --    0.28684   0.28853   0.29766   0.30627   0.31244
 Alpha virt. eigenvalues --    0.32352   0.32629   0.34280   0.34726   0.35922
 Alpha virt. eigenvalues --    0.38004   0.38447   0.39683   0.43005   0.43956
 Alpha virt. eigenvalues --    0.45816   0.46140   0.47514   0.48177   0.49199
 Alpha virt. eigenvalues --    0.49787   0.51034   0.51289   0.52153   0.52854
 Alpha virt. eigenvalues --    0.53625   0.54041   0.54253   0.55523   0.55879
 Alpha virt. eigenvalues --    0.55998   0.56506   0.56723   0.57115   0.57784
 Alpha virt. eigenvalues --    0.58198   0.58522   0.58806   0.59401   0.59623
 Alpha virt. eigenvalues --    0.59851   0.60202   0.60620   0.60839   0.61443
 Alpha virt. eigenvalues --    0.61719   0.62874   0.63157   0.63899   0.64012
 Alpha virt. eigenvalues --    0.64133   0.65447   0.65704   0.66685   0.66963
 Alpha virt. eigenvalues --    0.67165   0.68651   0.70288   0.70521   0.70840
 Alpha virt. eigenvalues --    0.71760   0.72867   0.73433   0.73822   0.75016
 Alpha virt. eigenvalues --    0.75636   0.75832   0.76693   0.77939   0.79007
 Alpha virt. eigenvalues --    0.79810   0.80439   0.80648   0.80953   0.81623
 Alpha virt. eigenvalues --    0.82149   0.82702   0.82800   0.83205   0.83986
 Alpha virt. eigenvalues --    0.84525   0.84941   0.85239   0.85745   0.86620
 Alpha virt. eigenvalues --    0.87412   0.87553   0.87752   0.88476   0.88570
 Alpha virt. eigenvalues --    0.88887   0.89200   0.89338   0.91451   0.91883
 Alpha virt. eigenvalues --    0.92509   0.92716   0.93507   0.93764   0.94187
 Alpha virt. eigenvalues --    0.94431   0.95301   0.95920   0.96039   0.98243
 Alpha virt. eigenvalues --    0.98716   0.99286   0.99426   1.01266   1.02242
 Alpha virt. eigenvalues --    1.02588   1.03593   1.04772   1.05488   1.07988
 Alpha virt. eigenvalues --    1.08767   1.10154   1.10622   1.11359   1.13408
 Alpha virt. eigenvalues --    1.14313   1.15971   1.17040   1.17613   1.19247
 Alpha virt. eigenvalues --    1.20255   1.20464   1.22013   1.22525   1.22697
 Alpha virt. eigenvalues --    1.24198   1.25254   1.28014   1.28742   1.29493
 Alpha virt. eigenvalues --    1.30864   1.32025   1.32646   1.33789   1.34712
 Alpha virt. eigenvalues --    1.35275   1.36681   1.37285   1.37947   1.39129
 Alpha virt. eigenvalues --    1.40002   1.40785   1.40851   1.42060   1.42854
 Alpha virt. eigenvalues --    1.44382   1.45019   1.45377   1.46035   1.47329
 Alpha virt. eigenvalues --    1.47979   1.48906   1.49483   1.51925   1.52882
 Alpha virt. eigenvalues --    1.55708   1.56596   1.58301   1.59549   1.60478
 Alpha virt. eigenvalues --    1.60730   1.61801   1.65535   1.66736   1.69240
 Alpha virt. eigenvalues --    1.69382   1.70431   1.71970   1.72399   1.73373
 Alpha virt. eigenvalues --    1.74155   1.74391   1.75328   1.76887   1.77441
 Alpha virt. eigenvalues --    1.77851   1.78744   1.79345   1.80244   1.81497
 Alpha virt. eigenvalues --    1.82665   1.83490   1.84493   1.85323   1.85510
 Alpha virt. eigenvalues --    1.86943   1.87171   1.87571   1.89260   1.89719
 Alpha virt. eigenvalues --    1.91181   1.91414   1.92567   1.92822   1.93702
 Alpha virt. eigenvalues --    1.94834   1.95527   1.95935   1.96337   1.96907
 Alpha virt. eigenvalues --    2.00030   2.00864   2.01482   2.01816   2.03155
 Alpha virt. eigenvalues --    2.03637   2.03860   2.04413   2.05583   2.05915
 Alpha virt. eigenvalues --    2.06217   2.07025   2.07868   2.08153   2.09050
 Alpha virt. eigenvalues --    2.09293   2.09544   2.10807   2.10896   2.11340
 Alpha virt. eigenvalues --    2.11553   2.12173   2.13674   2.13780   2.14650
 Alpha virt. eigenvalues --    2.15099   2.15347   2.16922   2.17624   2.18656
 Alpha virt. eigenvalues --    2.20011   2.20652   2.21496   2.22839   2.23811
 Alpha virt. eigenvalues --    2.24363   2.24765   2.25290   2.25346   2.26577
 Alpha virt. eigenvalues --    2.27884   2.28423   2.29616   2.30739   2.31042
 Alpha virt. eigenvalues --    2.31078   2.31828   2.32883   2.33710   2.35619
 Alpha virt. eigenvalues --    2.36174   2.36373   2.37485   2.38248   2.38573
 Alpha virt. eigenvalues --    2.39871   2.40918   2.41247   2.42098   2.43697
 Alpha virt. eigenvalues --    2.44168   2.44727   2.45589   2.46184   2.47666
 Alpha virt. eigenvalues --    2.48391   2.48491   2.49755   2.50644   2.52371
 Alpha virt. eigenvalues --    2.52961   2.54955   2.55433   2.56741   2.57941
 Alpha virt. eigenvalues --    2.58798   2.59177   2.59469   2.59959   2.61262
 Alpha virt. eigenvalues --    2.62418   2.63486   2.63990   2.65107   2.66508
 Alpha virt. eigenvalues --    2.67396   2.67589   2.68230   2.68604   2.69370
 Alpha virt. eigenvalues --    2.70975   2.72538   2.73299   2.74632   2.74843
 Alpha virt. eigenvalues --    2.75132   2.75857   2.76727   2.78605   2.78796
 Alpha virt. eigenvalues --    2.79170   2.79728   2.81695   2.83036   2.84260
 Alpha virt. eigenvalues --    2.84443   2.84710   2.86300   2.86897   2.87890
 Alpha virt. eigenvalues --    2.88305   2.90496   2.91231   2.93259   2.94486
 Alpha virt. eigenvalues --    2.96242   2.97037   2.97847   2.99855   3.01401
 Alpha virt. eigenvalues --    3.02770   3.03525   3.06537   3.08776   3.10310
 Alpha virt. eigenvalues --    3.14065   3.18285   3.19316   3.20955   3.21570
 Alpha virt. eigenvalues --    3.22419   3.23731   3.25148   3.25473   3.26101
 Alpha virt. eigenvalues --    3.26383   3.31324   3.34152   3.35741   3.37040
 Alpha virt. eigenvalues --    3.39217   3.42539   3.42623   3.44651   3.44747
 Alpha virt. eigenvalues --    3.46243   3.47329   3.48391   3.49470   3.50277
 Alpha virt. eigenvalues --    3.51281   3.52008   3.58074   3.61265   3.71800
 Alpha virt. eigenvalues --    3.77781   3.83573   4.07647   4.10663   4.15422
 Alpha virt. eigenvalues --    4.15755   4.16235   4.17440   4.21419   4.28018
 Alpha virt. eigenvalues --    4.30117   4.31701   4.32904   4.37803   4.39053
 Alpha virt. eigenvalues --    4.43544   4.44149   4.48061   4.51155   4.53621
 Alpha virt. eigenvalues --    4.55573   4.55989   4.62405   4.65553   4.67997
 Alpha virt. eigenvalues --    4.80295   4.84109   4.85731
          Condensed to atoms (all electrons):
 Mulliken charges:
               1
     1  O   -0.517709
     2  C    0.559064
     3  N   -0.592493
     4  C    0.465814
     5  N   -0.529532
     6  C    0.102931
     7  C   -0.154675
     8  C    0.197871
     9  C   -0.156311
    10  C   -0.217632
    11  C   -0.217267
    12  C   -0.151562
    13  C    0.030322
    14  C   -0.126167
    15  C   -0.137913
    16  C    0.026243
    17  B    0.482086
    18  O   -0.472344
    19  C    0.246476
    20  C   -0.319382
    21  C   -0.325956
    22  C    0.246828
    23  C   -0.325880
    24  C   -0.319223
    25  O   -0.473270
    26  C   -0.137054
    27  C   -0.091269
    28  H    0.274350
    29  H    0.100233
    30  H    0.082945
    31  H    0.096244
    32  H    0.129021
    33  H    0.115024
    34  H    0.115055
    35  H    0.127017
    36  H    0.127808
    37  H    0.091829
    38  H    0.101947
    39  H    0.118365
    40  H    0.114161
    41  H    0.102155
    42  H    0.101942
    43  H    0.115474
    44  H    0.114440
    45  H    0.115614
    46  H    0.113795
    47  H    0.102112
    48  H    0.117410
    49  H    0.113979
    50  H    0.102357
    51  H    0.103387
    52  H    0.111343
 Sum of Mulliken charges =  -0.00000
 Mulliken charges with hydrogens summed into heavy atoms:
               1
     1  O   -0.517709
     2  C    0.559064
     3  N   -0.318143
     4  C    0.465814
     5  N   -0.529532
     6  C    0.203164
     7  C   -0.071730
     8  C    0.197871
     9  C   -0.060067
    10  C    0.026413
    11  C    0.024805
    12  C   -0.023754
    13  C    0.030322
    14  C   -0.034338
    15  C   -0.035966
    16  C    0.026243
    17  B    0.482086
    18  O   -0.472344
    19  C    0.246476
    20  C    0.015299
    21  C    0.005899
    22  C    0.246828
    23  C    0.005640
    24  C    0.014523
    25  O   -0.473270
    26  C   -0.033667
    27  C    0.020075
 Electronic spatial extent (au):  <R**2>=          20349.2309
 Charge=             -0.0000 electrons
 Dipole moment (field-independent basis, Debye):
    X=              1.8652    Y=              1.1475    Z=              0.0743  Tot=              2.1912
 Quadrupole moment (field-independent basis, Debye-Ang):
   XX=           -110.4940   YY=           -157.9793   ZZ=           -158.4101
   XY=             -1.0279   XZ=             -0.6322   YZ=              0.5762
 Traceless Quadrupole moment (field-independent basis, Debye-Ang):
   XX=             31.8005   YY=            -15.6848   ZZ=            -16.1157
   XY=             -1.0279   XZ=             -0.6322   YZ=              0.5762
 Octapole moment (field-independent basis, Debye-Ang**2):
  XXX=            -25.3813  YYY=              6.4315  ZZZ=              1.5058  XYY=             12.1777
  XXY=             -0.5403  XXZ=              5.4584  XZZ=             19.9748  YZZ=             -6.3971
  YYZ=             -3.3143  XYZ=             -3.4047
 Hexadecapole moment (field-independent basis, Debye-Ang**3):
 XXXX=         -21418.0626 YYYY=          -1906.8528 ZZZZ=           -614.7580 XXXY=             62.3733
 XXXZ=            -14.1265 YYYX=            -71.3461 YYYZ=             17.6156 ZZZX=            -10.5808
 ZZZY=              2.8798 XXYY=          -4349.6749 XXZZ=          -4317.9064 YYZZ=           -422.3162
 XXYZ=            -50.9394 YYXZ=             14.9075 ZZXY=             37.3669
 N-N= 2.231572588568D+03 E-N=-7.195287755686D+03  KE= 1.164432874828D+03
 Calling FoFJK, ICntrl=      2127 FMM=F ISym2X=0 I1Cent= 0 IOpClX= 0 NMat=1 NMatS=1 NMatT=0.
 ***** Axes restored to original set *****
 -------------------------------------------------------------------
 Center     Atomic                   Forces (Hartrees/Bohr)
 Number     Number              X              Y              Z
 -------------------------------------------------------------------
      1        8           0.001880938    0.000556823    0.004684194
      2        6          -0.004781477   -0.002440305   -0.035695057
      3        7           0.003423696    0.001863420    0.016170673
      4        6           0.014345206    0.001287215    0.018231912
      5        7           0.006887240    0.001191013    0.000954984
      6        6          -0.010483737    0.000699744   -0.024674699
      7        6          -0.005769076   -0.001606530    0.001870620
      8        6           0.013141792    0.004228824   -0.010777985
      9        6          -0.011165640   -0.003989046    0.012721024
     10        6          -0.001024593    0.001536294   -0.004633576
     11        6          -0.000382486   -0.000813436   -0.004964674
     12        6           0.001776504    0.000610220   -0.001168110
     13        6          -0.000391339    0.001799519    0.007140340
     14        6          -0.002483835   -0.003139478   -0.003314476
     15        6           0.006201394    0.001089796    0.001225001
     16        6          -0.027323518   -0.004328432   -0.006297976
     17        5           0.009523644    0.001530238    0.002593122
     18        8           0.029306503   -0.000090644    0.005429165
     19        6          -0.014260837   -0.010768507   -0.016137374
     20        6          -0.008675125   -0.001561018    0.007455026
     21        6          -0.002626102    0.003519130    0.004664758
     22        6          -0.022499522    0.004883015    0.007159547
     23        6           0.000994879   -0.003798351   -0.005158245
     24        6          -0.004387019   -0.000599589   -0.010737936
     25        8           0.026836198    0.009287141    0.008221597
     26        6           0.007837207    0.002286052    0.003283439
     27        6           0.000868960   -0.000334626   -0.002737975
     28        1          -0.001552522   -0.002361728    0.009612331
     29        1          -0.001847690   -0.000770806    0.003859404
     30        1           0.003094272    0.000375224    0.002232158
     31        1          -0.003068143   -0.000466481   -0.001377548
     32        1          -0.001232599    0.004626405    0.003116489
     33        1          -0.002111832    0.003392147    0.002607435
     34        1          -0.000420344   -0.004386594    0.001665455
     35        1           0.000903572   -0.005237302    0.001898279
     36        1          -0.005436700   -0.001308939   -0.003586953
     37        1           0.003017366    0.002283691    0.002688304
     38        1          -0.002341523    0.000671692    0.001668241
     39        1           0.002198165   -0.005540692    0.000477511
     40        1           0.000980753    0.000152334    0.003562553
     41        1          -0.003538260    0.000439230   -0.000130804
     42        1          -0.003664074    0.001083821   -0.000120808
     43        1           0.001358627    0.000684107    0.003595885
     44        1           0.001732925    0.003727508   -0.001264054
     45        1           0.002967431   -0.000002033   -0.002499159
     46        1           0.001958404   -0.003121109    0.002218170
     47        1          -0.002805481   -0.002108276   -0.001446877
     48        1           0.000429259    0.005955173    0.000192843
     49        1           0.002472740    0.000419381   -0.002669314
     50        1          -0.002892886   -0.001457939   -0.001420961
     51        1          -0.001240716   -0.001325056   -0.002321692
     52        1           0.004269399    0.001377758    0.001935796
 -------------------------------------------------------------------
 Cartesian Forces:  Max     0.035695057 RMS     0.007419574

 GradGradGradGradGradGradGradGradGradGradGradGradGradGradGradGradGradGrad
 Berny optimization.
 FormGI is forming the generalized inverse of G from B-inverse, IUseBI=4.
 Internal  Forces:  Max     0.025803462 RMS     0.004591583
 Search for a local minimum.
 Step number   1 out of a maximum of  294
 All quantities printed in internal units (Hartrees-Bohrs-Radians)
 Mixed Optimization -- RFO/linear search
 Second derivative matrix not updated -- first step.
 ITU=  0
     Eigenvalues ---    0.00230   0.00230   0.00230   0.00230   0.00230
     Eigenvalues ---    0.00436   0.00585   0.00822   0.01310   0.01424
     Eigenvalues ---    0.01519   0.01546   0.01629   0.01723   0.01860
     Eigenvalues ---    0.01975   0.02059   0.02062   0.02069   0.02086
     Eigenvalues ---    0.02098   0.02127   0.02134   0.02139   0.02151
     Eigenvalues ---    0.02155   0.02168   0.02172   0.02190   0.02231
     Eigenvalues ---    0.02252   0.02341   0.02403   0.02991   0.02991
     Eigenvalues ---    0.03432   0.03481   0.03723   0.03809   0.05299
     Eigenvalues ---    0.05302   0.05309   0.05312   0.05363   0.05364
     Eigenvalues ---    0.05382   0.05383   0.05758   0.06308   0.07709
     Eigenvalues ---    0.10013   0.10273   0.10902   0.11660   0.12781
     Eigenvalues ---    0.14683   0.15649   0.15997   0.15997   0.16000
     Eigenvalues ---    0.16000   0.16000   0.16000   0.16000   0.16000
     Eigenvalues ---    0.16000   0.16000   0.16000   0.16000   0.16000
     Eigenvalues ---    0.16000   0.16000   0.16000   0.16000   0.16000
     Eigenvalues ---    0.16000   0.16000   0.16000   0.17374   0.17862
     Eigenvalues ---    0.21363   0.21999   0.22001   0.22315   0.22969
     Eigenvalues ---    0.23492   0.23999   0.24553   0.24989   0.24996
     Eigenvalues ---    0.25000   0.25000   0.25000   0.25000   0.25000
     Eigenvalues ---    0.25007   0.25042   0.26307   0.27183   0.27711
     Eigenvalues ---    0.27721   0.28341   0.28345   0.29899   0.30906
     Eigenvalues ---    0.30982   0.34623   0.34639   0.34651   0.34717
     Eigenvalues ---    0.34721   0.34722   0.34725   0.34734   0.34734
     Eigenvalues ---    0.34751   0.34756   0.34797   0.34802   0.34844
     Eigenvalues ---    0.34848   0.34854   0.34858   0.35686   0.35848
     Eigenvalues ---    0.35863   0.35887   0.35923   0.36029   0.36318
     Eigenvalues ---    0.39791   0.40954   0.41755   0.41822   0.42054
     Eigenvalues ---    0.43644   0.45031   0.45382   0.45518   0.45855
     Eigenvalues ---    0.46018   0.46129   0.46488   0.46904   0.47245
     Eigenvalues ---    0.48789   0.51916   0.53036   0.55837   0.90842
 RFO step:  Lambda=-2.14539036D-02 EMin= 2.30000000D-03
 Linear search not attempted -- first point.
 Iteration  1 RMS(Cart)=  0.11164958 RMS(Int)=  0.00161641
 Iteration  2 RMS(Cart)=  0.00427054 RMS(Int)=  0.00026835
 Iteration  3 RMS(Cart)=  0.00000206 RMS(Int)=  0.00026835
 Iteration  4 RMS(Cart)=  0.00000000 RMS(Int)=  0.00026835
 Variable       Old X    -DE/DX   Delta X   Delta X   Delta X     New X
                                 (Linear)    (Quad)   (Total)
    R1        2.32547  -0.00212   0.00000  -0.00228  -0.00228   2.32319
    R2        2.54395   0.02297   0.00000   0.03962   0.03962   2.58357
    R3        2.86047  -0.00571   0.00000  -0.01724  -0.01724   2.84322
    R4        2.64111  -0.00348   0.00000  -0.00722  -0.00722   2.63389
    R5        1.89452   0.00757   0.00000   0.01532   0.01532   1.90984
    R6        2.56314  -0.01490   0.00000  -0.02796  -0.02791   2.53522
    R7        2.65229  -0.00753   0.00000  -0.01590  -0.01585   2.63643
    R8        2.56302  -0.02027   0.00000  -0.03766  -0.03766   2.52535
    R9        2.63616  -0.00292   0.00000  -0.00617  -0.00621   2.62995
   R10        2.04202   0.00410   0.00000   0.01076   0.01076   2.05278
   R11        2.64080  -0.00013   0.00000   0.00120   0.00116   2.64195
   R12        2.04037   0.00383   0.00000   0.01004   0.01004   2.05041
   R13        2.88166  -0.02208   0.00000  -0.06892  -0.06892   2.81274
   R14        2.64627  -0.00588   0.00000  -0.01074  -0.01073   2.63554
   R15        2.86202  -0.00171   0.00000  -0.00209  -0.00201   2.86001
   R16        2.86193  -0.00165   0.00000  -0.00193  -0.00185   2.86008
   R17        2.06291  -0.00321   0.00000  -0.00874  -0.00874   2.05417
   R18        2.86181  -0.00761   0.00000  -0.02914  -0.02931   2.83250
   R19        2.06265  -0.00353   0.00000  -0.00960  -0.00960   2.05305
   R20        2.06138  -0.00327   0.00000  -0.00888  -0.00888   2.05249
   R21        2.06128  -0.00324   0.00000  -0.00880  -0.00880   2.05249
   R22        2.06245  -0.00347   0.00000  -0.00944  -0.00944   2.05301
   R23        2.03588   0.00304   0.00000   0.00791   0.00791   2.04379
   R24        2.65604  -0.00170   0.00000  -0.00428  -0.00428   2.65176
   R25        2.64855  -0.00377   0.00000  -0.00864  -0.00865   2.63990
   R26        2.63177   0.00065   0.00000   0.00139   0.00140   2.63317
   R27        2.04258   0.00397   0.00000   0.01043   0.01043   2.05301
   R28        2.63732   0.00556   0.00000   0.01215   0.01216   2.64948
   R29        2.04319   0.00293   0.00000   0.00772   0.00772   2.05092
   R30        2.99191  -0.01613   0.00000  -0.05941  -0.05941   2.93250
   R31        2.63725   0.00692   0.00000   0.01491   0.01491   2.65216
   R32        2.60149  -0.00141   0.00000  -0.00463  -0.00420   2.59728
   R33        2.60194  -0.00134   0.00000  -0.00449  -0.00406   2.59788
   R34        2.67526   0.02580   0.00000   0.05886   0.05880   2.73406
   R35        2.92774  -0.01035   0.00000  -0.03468  -0.03468   2.89306
   R36        2.91391  -0.00925   0.00000  -0.03033  -0.03033   2.88357
   R37        2.97189  -0.00571   0.00000  -0.01959  -0.02023   2.95166
   R38        2.06109   0.00091   0.00000   0.00247   0.00247   2.06356
   R39        2.06123   0.00213   0.00000   0.00577   0.00577   2.06700
   R40        2.05906   0.00354   0.00000   0.00956   0.00956   2.06862
   R41        2.05922   0.00370   0.00000   0.01000   0.01000   2.06922
   R42        2.05998   0.00128   0.00000   0.00345   0.00345   2.06343
   R43        2.06082   0.00165   0.00000   0.00448   0.00448   2.06529
   R44        2.91399  -0.00926   0.00000  -0.03038  -0.03038   2.88362
   R45        2.92753  -0.01029   0.00000  -0.03445  -0.03445   2.89308
   R46        2.67582   0.02566   0.00000   0.05857   0.05852   2.73434
   R47        2.06006   0.00125   0.00000   0.00340   0.00340   2.06345
   R48        2.06073   0.00169   0.00000   0.00459   0.00459   2.06532
   R49        2.05930   0.00367   0.00000   0.00993   0.00993   2.06923
   R50        2.06109   0.00093   0.00000   0.00252   0.00252   2.06360
   R51        2.06130   0.00210   0.00000   0.00570   0.00570   2.06700
   R52        2.05913   0.00351   0.00000   0.00949   0.00949   2.06862
   R53        2.63077   0.00023   0.00000   0.00041   0.00040   2.63118
   R54        2.04296   0.00288   0.00000   0.00758   0.00758   2.05054
   R55        2.04576   0.00140   0.00000   0.00369   0.00369   2.04946
    A1        2.17953  -0.00547   0.00000  -0.01991  -0.02002   2.15952
    A2        2.09621   0.00519   0.00000   0.01933   0.01922   2.11544
    A3        2.00691   0.00032   0.00000   0.00140   0.00129   2.00820
    A4        2.27861  -0.01029   0.00000  -0.04264  -0.04266   2.23596
    A5        2.01615   0.01127   0.00000   0.05502   0.05500   2.07115
    A6        1.98804  -0.00100   0.00000  -0.01261  -0.01262   1.97542
    A7        1.97256  -0.00177   0.00000  -0.00548  -0.00552   1.96703
    A8        2.18290  -0.00996   0.00000  -0.03565  -0.03569   2.14721
    A9        2.12770   0.01173   0.00000   0.04114   0.04123   2.16893
   A10        2.06761  -0.00640   0.00000  -0.03116  -0.03110   2.03651
   A11        2.14287   0.00557   0.00000   0.02019   0.02014   2.16301
   A12        2.03057  -0.00427   0.00000  -0.01826  -0.01823   2.01234
   A13        2.10975  -0.00130   0.00000  -0.00193  -0.00191   2.10784
   A14        2.07449  -0.00167   0.00000  -0.00359  -0.00368   2.07081
   A15        2.10003   0.00085   0.00000   0.00190   0.00195   2.10199
   A16        2.10866   0.00081   0.00000   0.00168   0.00173   2.11039
   A17        2.09063   0.00320   0.00000   0.00877   0.00879   2.09942
   A18        2.07285  -0.00359   0.00000  -0.00718  -0.00723   2.06563
   A19        2.11970   0.00039   0.00000  -0.00158  -0.00156   2.11814
   A20        2.13745  -0.00174   0.00000  -0.01492  -0.01509   2.12236
   A21        2.13779  -0.00171   0.00000  -0.01470  -0.01488   2.12292
   A22        1.96517   0.00017   0.00000   0.00756   0.00766   1.97283
   A23        2.00530   0.00244   0.00000   0.01276   0.01277   2.01807
   A24        2.00543   0.00240   0.00000   0.01240   0.01242   2.01785
   A25        2.07283  -0.00168   0.00000  -0.01127  -0.01130   2.06153
   A26        2.06601  -0.00149   0.00000  -0.00972  -0.00972   2.05629
   A27        2.08554  -0.00300   0.00000  -0.01841  -0.01837   2.06717
   A28        2.08419  -0.00025   0.00000  -0.00443  -0.00448   2.07971
   A29        1.95243   0.00345   0.00000   0.02460   0.02463   1.97706
   A30        2.06609  -0.00146   0.00000  -0.00975  -0.00975   2.05634
   A31        2.07321  -0.00167   0.00000  -0.01127  -0.01130   2.06191
   A32        2.08381  -0.00018   0.00000  -0.00393  -0.00398   2.07982
   A33        2.08520  -0.00302   0.00000  -0.01832  -0.01829   2.06691
   A34        1.95260   0.00340   0.00000   0.02429   0.02432   1.97692
   A35        2.08083  -0.00564   0.00000  -0.01940  -0.01935   2.06148
   A36        2.12243  -0.00317   0.00000  -0.02329  -0.02332   2.09911
   A37        2.07992   0.00880   0.00000   0.04269   0.04266   2.12259
   A38        2.12427   0.00506   0.00000   0.01988   0.01986   2.14413
   A39        2.08504  -0.00831   0.00000  -0.02939  -0.02940   2.05564
   A40        2.07375   0.00324   0.00000   0.00935   0.00933   2.08307
   A41        2.10064  -0.00014   0.00000  -0.00188  -0.00189   2.09876
   A42        2.12103  -0.00229   0.00000  -0.01211  -0.01213   2.10891
   A43        2.06133   0.00241   0.00000   0.01380   0.01377   2.07511
   A44        2.10217   0.00058   0.00000   0.00386   0.00388   2.10605
   A45        2.09204   0.00004   0.00000  -0.00011  -0.00012   2.09192
   A46        2.08895  -0.00062   0.00000  -0.00375  -0.00376   2.08519
   A47        2.09909   0.00198   0.00000   0.00611   0.00610   2.10519
   A48        2.08475  -0.00448   0.00000  -0.01416  -0.01415   2.07060
   A49        2.09933   0.00250   0.00000   0.00804   0.00804   2.10737
   A50        2.16890  -0.00228   0.00000  -0.00668  -0.00667   2.16223
   A51        2.16823  -0.00214   0.00000  -0.00616  -0.00615   2.16208
   A52        1.94606   0.00441   0.00000   0.01284   0.01282   1.95888
   A53        1.87242  -0.00120   0.00000   0.00087   0.00031   1.87273
   A54        1.84321   0.00169   0.00000   0.03147   0.03184   1.87505
   A55        1.86762   0.00252   0.00000   0.03422   0.03414   1.90177
   A56        1.77277  -0.00033   0.00000   0.00794   0.00794   1.78070
   A57        1.92782   0.00097   0.00000  -0.00196  -0.00387   1.92395
   A58        2.01808  -0.00435   0.00000  -0.04870  -0.04906   1.96901
   A59        2.01246   0.00022   0.00000  -0.00884  -0.00955   2.00291
   A60        1.94456  -0.00777   0.00000  -0.04500  -0.04524   1.89932
   A61        1.95179  -0.00267   0.00000  -0.01469  -0.01493   1.93686
   A62        1.94269   0.00156   0.00000   0.01076   0.01083   1.95352
   A63        1.86645   0.00493   0.00000   0.02314   0.02259   1.88904
   A64        1.87483   0.00331   0.00000   0.01823   0.01831   1.89314
   A65        1.87953   0.00124   0.00000   0.01086   0.01091   1.89045
   A66        1.93835   0.00048   0.00000   0.00266   0.00265   1.94100
   A67        1.95674  -0.00385   0.00000  -0.02042  -0.02054   1.93620
   A68        1.94263  -0.00450   0.00000  -0.02556  -0.02571   1.91692
   A69        1.88161   0.00205   0.00000   0.01273   0.01275   1.89436
   A70        1.88102   0.00188   0.00000   0.00885   0.00883   1.88985
   A71        1.85962   0.00446   0.00000   0.02460   0.02434   1.88396
   A72        2.01217   0.00022   0.00000  -0.00884  -0.00954   2.00263
   A73        2.01775  -0.00429   0.00000  -0.04828  -0.04863   1.96912
   A74        1.77333  -0.00039   0.00000   0.00739   0.00739   1.78072
   A75        1.92800   0.00093   0.00000  -0.00205  -0.00395   1.92405
   A76        1.86779   0.00253   0.00000   0.03409   0.03401   1.90179
   A77        1.84302   0.00173   0.00000   0.03172   0.03208   1.87510
   A78        1.95648  -0.00383   0.00000  -0.02031  -0.02044   1.93605
   A79        1.94291  -0.00448   0.00000  -0.02553  -0.02568   1.91723
   A80        1.93797   0.00050   0.00000   0.00279   0.00278   1.94076
   A81        1.85997   0.00444   0.00000   0.02446   0.02420   1.88417
   A82        1.88143   0.00204   0.00000   0.01275   0.01277   1.89420
   A83        1.88125   0.00185   0.00000   0.00868   0.00865   1.88990
   A84        1.94487  -0.00777   0.00000  -0.04509  -0.04533   1.89954
   A85        1.95153  -0.00264   0.00000  -0.01452  -0.01476   1.93677
   A86        1.94241   0.00158   0.00000   0.01093   0.01100   1.95341
   A87        1.86697   0.00491   0.00000   0.02295   0.02240   1.88937
   A88        1.87490   0.00329   0.00000   0.01805   0.01813   1.89303
   A89        1.87918   0.00124   0.00000   0.01097   0.01102   1.89021
   A90        1.87252  -0.00113   0.00000   0.00099   0.00044   1.87296
   A91        2.10048   0.00194   0.00000   0.00913   0.00913   2.10961
   A92        2.09330  -0.00157   0.00000  -0.00790  -0.00790   2.08540
   A93        2.08940  -0.00037   0.00000  -0.00124  -0.00124   2.08816
   A94        2.10445  -0.00114   0.00000  -0.00636  -0.00637   2.09807
   A95        2.10096  -0.00421   0.00000  -0.02317  -0.02317   2.07779
   A96        2.07778   0.00535   0.00000   0.02954   0.02954   2.10732
    D1        0.05560  -0.00065   0.00000  -0.01512  -0.01505   0.04055
    D2       -3.05406  -0.00014   0.00000  -0.00512  -0.00487  -3.05893
    D3       -3.12108   0.00047   0.00000   0.01233   0.01207  -3.10901
    D4        0.05244   0.00098   0.00000   0.02232   0.02225   0.07470
    D5       -2.65270   0.00028   0.00000   0.00614   0.00628  -2.64641
    D6        0.47181  -0.00011   0.00000  -0.00494  -0.00474   0.46707
    D7        0.52217  -0.00055   0.00000  -0.01905  -0.01924   0.50292
    D8       -2.63651  -0.00094   0.00000  -0.03013  -0.03027  -2.66678
    D9       -3.09381  -0.00020   0.00000  -0.00551  -0.00564  -3.09945
   D10        0.05519  -0.00036   0.00000  -0.00852  -0.00859   0.04660
   D11        0.01626  -0.00052   0.00000  -0.01438  -0.01431   0.00194
   D12       -3.11793  -0.00068   0.00000  -0.01738  -0.01726  -3.13518
   D13       -3.13946   0.00006   0.00000   0.00063   0.00060  -3.13886
   D14       -0.00502   0.00011   0.00000   0.00317   0.00322  -0.00180
   D15        3.13823   0.00002   0.00000   0.00054   0.00051   3.13873
   D16       -0.00138  -0.00019   0.00000  -0.00445  -0.00439  -0.00577
   D17        0.00467  -0.00008   0.00000  -0.00249  -0.00255   0.00212
   D18       -3.13494  -0.00030   0.00000  -0.00749  -0.00744   3.14081
   D19        0.00238  -0.00010   0.00000  -0.00212  -0.00211   0.00027
   D20       -3.13896  -0.00011   0.00000  -0.00232  -0.00230  -3.14126
   D21        0.00058   0.00001   0.00000   0.00025   0.00027   0.00085
   D22       -3.14140   0.00004   0.00000   0.00082   0.00083  -3.14057
   D23       -3.14128   0.00002   0.00000   0.00046   0.00046  -3.14082
   D24       -0.00008   0.00004   0.00000   0.00102   0.00103   0.00095
   D25        3.14062   0.00005   0.00000   0.00119   0.00120  -3.14136
   D26       -0.00094   0.00003   0.00000   0.00043   0.00045  -0.00049
   D27       -0.00058   0.00003   0.00000   0.00062   0.00063   0.00005
   D28        3.14105  -0.00000   0.00000  -0.00014  -0.00012   3.14092
   D29        2.50870   0.00232   0.00000   0.01336   0.01323   2.52193
   D30       -2.50578  -0.00235   0.00000  -0.01447  -0.01433  -2.52011
   D31        0.00186  -0.00003   0.00000  -0.00073  -0.00073   0.00113
   D32       -0.63292   0.00235   0.00000   0.01413   0.01400  -0.61892
   D33        0.63579  -0.00232   0.00000  -0.01369  -0.01356   0.62223
   D34       -3.13977   0.00000   0.00000   0.00005   0.00005  -3.13972
   D35       -0.00156   0.00004   0.00000   0.00073   0.00069  -0.00087
   D36        3.13809   0.00024   0.00000   0.00553   0.00558  -3.13951
   D37        3.14006   0.00001   0.00000  -0.00004  -0.00007   3.13999
   D38       -0.00347   0.00021   0.00000   0.00476   0.00482   0.00135
   D39        0.03858  -0.00008   0.00000  -0.00218  -0.00212   0.03646
   D40       -2.42586  -0.00180   0.00000  -0.01696  -0.01687  -2.44273
   D41        2.53224   0.00153   0.00000   0.01020   0.01015   2.54239
   D42        0.06780  -0.00019   0.00000  -0.00458  -0.00460   0.06321
   D43        2.42689   0.00179   0.00000   0.01675   0.01666   2.44355
   D44       -0.03859   0.00011   0.00000   0.00261   0.00256  -0.03604
   D45       -0.06753   0.00019   0.00000   0.00460   0.00461  -0.06292
   D46       -2.53302  -0.00149   0.00000  -0.00954  -0.00949  -2.54251
   D47       -2.51486  -0.00153   0.00000  -0.01184  -0.01181  -2.52667
   D48       -0.00064   0.00000   0.00000   0.00008   0.00008  -0.00056
   D49        0.00028  -0.00001   0.00000  -0.00029  -0.00029  -0.00000
   D50        2.51451   0.00152   0.00000   0.01164   0.01160   2.52610
   D51        3.14033  -0.00043   0.00000  -0.00965  -0.00978   3.13056
   D52        0.01923   0.00003   0.00000   0.00128   0.00110   0.02033
   D53        0.01572   0.00007   0.00000   0.00173   0.00178   0.01749
   D54       -3.10538   0.00053   0.00000   0.01266   0.01266  -3.09273
   D55       -3.14158   0.00014   0.00000   0.00524   0.00509  -3.13648
   D56        0.00030   0.00012   0.00000   0.00469   0.00458   0.00488
   D57       -0.01657  -0.00021   0.00000  -0.00540  -0.00541  -0.02198
   D58        3.12531  -0.00023   0.00000  -0.00596  -0.00593   3.11938
   D59       -0.00487   0.00015   0.00000   0.00300   0.00300  -0.00187
   D60       -3.13898   0.00014   0.00000   0.00270   0.00273  -3.13625
   D61        3.11692  -0.00035   0.00000  -0.00786  -0.00797   3.10896
   D62       -0.01719  -0.00036   0.00000  -0.00816  -0.00824  -0.02543
   D63       -3.14158  -0.00009   0.00000  -0.00184  -0.00184   3.13976
   D64       -0.00538  -0.00014   0.00000  -0.00383  -0.00383  -0.00921
   D65       -0.00746  -0.00007   0.00000  -0.00153  -0.00156  -0.00902
   D66        3.12874  -0.00013   0.00000  -0.00352  -0.00354   3.12520
   D67        3.13890   0.00020   0.00000   0.00934   0.00933  -3.13496
   D68       -0.00284   0.00024   0.00000   0.01028   0.01027   0.00743
   D69        0.00274   0.00028   0.00000   0.01141   0.01143   0.01416
   D70       -3.13900   0.00031   0.00000   0.01236   0.01237  -3.12663
   D71        0.00456  -0.00001   0.00000   0.00013   0.00014   0.00470
   D72       -3.13346   0.00001   0.00000   0.00102   0.00101  -3.13245
   D73        3.14076  -0.00006   0.00000  -0.00187  -0.00186   3.13890
   D74        0.00274  -0.00005   0.00000  -0.00097  -0.00099   0.00176
   D75       -2.93954  -0.00196   0.00000  -0.01897  -0.01884  -2.95838
   D76        0.20219  -0.00199   0.00000  -0.01981  -0.01968   0.18250
   D77       -2.94697  -0.00191   0.00000  -0.01810  -0.01797  -2.96494
   D78        0.19450  -0.00188   0.00000  -0.01727  -0.01713   0.17737
   D79        1.64851  -0.00368   0.00000  -0.00408  -0.00390   1.64461
   D80       -2.58035  -0.00053   0.00000   0.02546   0.02605  -2.55430
   D81       -0.46399   0.00063   0.00000   0.03386   0.03434  -0.42965
   D82        1.00778   0.00150   0.00000   0.00662   0.00726   1.01505
   D83       -1.07998   0.00234   0.00000   0.01789   0.01821  -1.06177
   D84        3.10003   0.00150   0.00000   0.00665   0.00712   3.10715
   D85       -1.00566  -0.00285   0.00000  -0.04973  -0.04933  -1.05498
   D86       -3.09342  -0.00201   0.00000  -0.03845  -0.03838  -3.13181
   D87        1.08659  -0.00285   0.00000  -0.04969  -0.04947   1.03712
   D88        2.95223   0.00004   0.00000   0.01212   0.01159   2.96382
   D89        0.86447   0.00088   0.00000   0.02340   0.02253   0.88700
   D90       -1.23871   0.00004   0.00000   0.01216   0.01145  -1.22726
   D91        3.05274  -0.00055   0.00000  -0.00227  -0.00257   3.05017
   D92        0.94654  -0.00085   0.00000  -0.00637  -0.00658   0.93996
   D93       -1.13457  -0.00086   0.00000  -0.00643  -0.00677  -1.14134
   D94       -1.23237   0.00333   0.00000   0.05270   0.05297  -1.17940
   D95        2.94461   0.00302   0.00000   0.04861   0.04896   2.99357
   D96        0.86350   0.00302   0.00000   0.04855   0.04877   0.91227
   D97        1.09576  -0.00186   0.00000  -0.02909  -0.02909   1.06667
   D98       -1.01044  -0.00216   0.00000  -0.03318  -0.03310  -1.04354
   D99       -3.09155  -0.00217   0.00000  -0.03324  -0.03330  -3.12485
   D100       2.57579  -0.00085   0.00000  -0.00600  -0.00617   2.56962
   D101      -1.42203  -0.00367   0.00000  -0.06862  -0.06820  -1.49023
   D102       0.56335  -0.00372   0.00000  -0.04731  -0.04709   0.51626
   D103       0.59039  -0.00077   0.00000  -0.02719  -0.02714   0.56324
   D104       2.87575  -0.00359   0.00000  -0.08981  -0.08917   2.78658
   D105      -1.42206  -0.00364   0.00000  -0.06850  -0.06806  -1.49012
   D106      -1.69535   0.00206   0.00000   0.03581   0.03524  -1.66011
   D107       0.59001  -0.00077   0.00000  -0.02681  -0.02678   0.56323
   D108       2.57538  -0.00082   0.00000  -0.00550  -0.00567   2.56971
   D109      -1.01073  -0.00213   0.00000  -0.03283  -0.03274  -1.04347
   D110      -3.09228  -0.00213   0.00000  -0.03279  -0.03284  -3.12513
   D111       1.09481  -0.00181   0.00000  -0.02853  -0.02853   1.06628
   D112       2.94491   0.00301   0.00000   0.04839   0.04874   2.99365
   D113       0.86335   0.00301   0.00000   0.04843   0.04864   0.91199
   D114      -1.23274   0.00333   0.00000   0.05269   0.05295  -1.17979
   D115       0.94689  -0.00089   0.00000  -0.00677  -0.00698   0.93992
   D116      -1.13466  -0.00089   0.00000  -0.00673  -0.00708  -1.14174
   D117       3.05243  -0.00057   0.00000  -0.00247  -0.00277   3.04966
   D118       2.95316   0.00002   0.00000   0.01186   0.01133   2.96449
   D119       0.86469   0.00088   0.00000   0.02334   0.02248   0.88717
   D120      -1.23766   0.00001   0.00000   0.01172   0.01102  -1.22664
   D121      -1.00530  -0.00285   0.00000  -0.04963  -0.04923  -1.05453
   D122      -3.09377  -0.00199   0.00000  -0.03814  -0.03808  -3.13185
   D123       1.08707  -0.00286   0.00000  -0.04976  -0.04954   1.03753
   D124       1.00831   0.00151   0.00000   0.00666   0.00730   1.01562
   D125      -1.08016   0.00236   0.00000   0.01814   0.01845  -1.06171
[...]
 Alpha virt. eigenvalues --    0.25877   0.25978   0.26383   0.26905   0.27456
 Alpha virt. eigenvalues --    0.27967   0.28174   0.28347   0.28965   0.29145
 Alpha virt. eigenvalues --    0.29247   0.30345   0.30355   0.30765   0.31497
 Alpha virt. eigenvalues --    0.31749   0.32336   0.32973   0.33541   0.33789
 Alpha virt. eigenvalues --    0.33934   0.34206   0.34569   0.34660   0.34932
 Alpha virt. eigenvalues --    0.35170   0.35724   0.35806   0.36731   0.36835
 Alpha virt. eigenvalues --    0.37514   0.38153   0.38669   0.39061   0.39189
 Alpha virt. eigenvalues --    0.39327   0.39580   0.39933   0.40266   0.40688
 Alpha virt. eigenvalues --    0.41005   0.41174   0.41686   0.42104   0.42391
 Alpha virt. eigenvalues --    0.42515   0.43149   0.43465   0.43703   0.43858
 Alpha virt. eigenvalues --    0.44113   0.44222   0.44456   0.45206   0.45368
 Alpha virt. eigenvalues --    0.45439   0.45628   0.45674   0.46356   0.46608
 Alpha virt. eigenvalues --    0.47001   0.47184   0.47593   0.48440   0.48653
 Alpha virt. eigenvalues --    0.48818   0.49231   0.49363   0.49670   0.49972
 Alpha virt. eigenvalues --    0.50440   0.50483   0.50915   0.50959   0.51204
 Alpha virt. eigenvalues --    0.51403   0.51750   0.51994   0.52233   0.52637
 Alpha virt. eigenvalues --    0.53135   0.53375   0.53438   0.54179   0.54795
 Alpha virt. eigenvalues --    0.54935   0.55207   0.55866   0.56357   0.56819
 Alpha virt. eigenvalues --    0.57423   0.57776   0.58279   0.58343   0.58544
 Alpha virt. eigenvalues --    0.59142   0.59419   0.59838   0.60756   0.61524
 Alpha virt. eigenvalues --    0.61850   0.61990   0.62220   0.63192   0.64125
 Alpha virt. eigenvalues --    0.64475   0.66012   0.66286   0.66898   0.67122
 Alpha virt. eigenvalues --    0.67619   0.68119   0.68217   0.68639   0.69013
 Alpha virt. eigenvalues --    0.69528   0.69727   0.70700   0.70806   0.71823
 Alpha virt. eigenvalues --    0.72212   0.72938   0.73260   0.73530   0.74055
 Alpha virt. eigenvalues --    0.74314   0.75310   0.75753   0.76262   0.77173
 Alpha virt. eigenvalues --    0.77587   0.78229   0.78606   0.78877   0.79597
 Alpha virt. eigenvalues --    0.80002   0.80632   0.81624   0.82204   0.82544
 Alpha virt. eigenvalues --    0.83425   0.84081   0.84483   0.85338   0.85377
 Alpha virt. eigenvalues --    0.85670   0.86788   0.87743   0.88067   0.88650
 Alpha virt. eigenvalues --    0.88975   0.89915   0.90415   0.90572   0.90843
 Alpha virt. eigenvalues --    0.91693   0.91826   0.92432   0.92971   0.93375
 Alpha virt. eigenvalues --    0.93882   0.94006   0.94558   0.95237   0.95790
 Alpha virt. eigenvalues --    0.96083   0.96440   0.97808   0.98410   0.99005
 Alpha virt. eigenvalues --    0.99773   1.00765   1.00843   1.01447   1.01767
 Alpha virt. eigenvalues --    1.02017   1.02274   1.02703   1.03450   1.03966
 Alpha virt. eigenvalues --    1.05057   1.05497   1.06618   1.06833   1.07809
 Alpha virt. eigenvalues --    1.08605   1.09002   1.09976   1.10412   1.10879
 Alpha virt. eigenvalues --    1.11124   1.11445   1.12514   1.13258   1.13897
 Alpha virt. eigenvalues --    1.15308   1.15507   1.16540   1.16864   1.17182
 Alpha virt. eigenvalues --    1.17648   1.17932   1.18052   1.18844   1.19484
 Alpha virt. eigenvalues --    1.20566   1.21081   1.21273   1.22301   1.23249
 Alpha virt. eigenvalues --    1.24337   1.24498   1.24878   1.25285   1.25524
 Alpha virt. eigenvalues --    1.26472   1.27217   1.27813   1.28150   1.28338
 Alpha virt. eigenvalues --    1.29044   1.29819   1.30701   1.30942   1.31950
 Alpha virt. eigenvalues --    1.32066   1.33089   1.33959   1.34416   1.34709
 Alpha virt. eigenvalues --    1.35008   1.36459   1.37277   1.38376   1.39981
 Alpha virt. eigenvalues --    1.40376   1.40664   1.42063   1.42398   1.43397
 Alpha virt. eigenvalues --    1.43858   1.45446   1.45850   1.46660   1.46865
 Alpha virt. eigenvalues --    1.49659   1.49832   1.50437   1.51362   1.51868
 Alpha virt. eigenvalues --    1.52140   1.52424   1.52670   1.53840   1.53944
 Alpha virt. eigenvalues --    1.54493   1.54788   1.54983   1.56194   1.56572
 Alpha virt. eigenvalues --    1.56911   1.57614   1.58119   1.58528   1.58874
 Alpha virt. eigenvalues --    1.59218   1.59904   1.60417   1.60657   1.60723
 Alpha virt. eigenvalues --    1.61709   1.62389   1.62744   1.63224   1.63539
 Alpha virt. eigenvalues --    1.63966   1.64071   1.64646   1.65020   1.65647
 Alpha virt. eigenvalues --    1.66143   1.66442   1.66528   1.66858   1.67489
 Alpha virt. eigenvalues --    1.68134   1.68537   1.68809   1.69408   1.71162
 Alpha virt. eigenvalues --    1.71746   1.72259   1.72870   1.73074   1.73442
 Alpha virt. eigenvalues --    1.73575   1.73819   1.74748   1.74887   1.77041
 Alpha virt. eigenvalues --    1.77675   1.79094   1.79194   1.79493   1.79894
 Alpha virt. eigenvalues --    1.80903   1.81058   1.81313   1.82524   1.82658
 Alpha virt. eigenvalues --    1.83047   1.83215   1.84138   1.84503   1.85071
 Alpha virt. eigenvalues --    1.85849   1.86946   1.87985   1.88473   1.89339
 Alpha virt. eigenvalues --    1.90600   1.90986   1.91586   1.92153   1.92374
 Alpha virt. eigenvalues --    1.93368   1.94048   1.94441   1.95837   1.95983
 Alpha virt. eigenvalues --    1.96677   1.97104   1.97219   1.97430   1.97669
 Alpha virt. eigenvalues --    1.99101   1.99617   2.01709   2.02969   2.03812
 Alpha virt. eigenvalues --    2.03949   2.04421   2.05624   2.05792   2.06951
 Alpha virt. eigenvalues --    2.07685   2.08458   2.09385   2.09762   2.10819
 Alpha virt. eigenvalues --    2.11596   2.11825   2.12251   2.13062   2.13365
 Alpha virt. eigenvalues --    2.13761   2.15089   2.16140   2.16430   2.17276
 Alpha virt. eigenvalues --    2.17535   2.17950   2.18552   2.19214   2.19339
 Alpha virt. eigenvalues --    2.19970   2.20555   2.22394   2.22581   2.23704
 Alpha virt. eigenvalues --    2.24188   2.25146   2.25810   2.27838   2.28125
 Alpha virt. eigenvalues --    2.29102   2.29723   2.30597   2.30886   2.31912
 Alpha virt. eigenvalues --    2.32445   2.32727   2.33513   2.34480   2.35277
 Alpha virt. eigenvalues --    2.35639   2.35897   2.36448   2.36605   2.37205
 Alpha virt. eigenvalues --    2.38038   2.38405   2.38560   2.39124   2.39758
 Alpha virt. eigenvalues --    2.40809   2.41194   2.41341   2.42133   2.42822
 Alpha virt. eigenvalues --    2.43367   2.44400   2.44980   2.46073   2.46416
 Alpha virt. eigenvalues --    2.46560   2.47669   2.48405   2.48785   2.49530
 Alpha virt. eigenvalues --    2.49927   2.50400   2.51069   2.52482   2.52919
 Alpha virt. eigenvalues --    2.53384   2.54003   2.54457   2.54898   2.55464
 Alpha virt. eigenvalues --    2.56314   2.57332   2.57695   2.57948   2.58639
 Alpha virt. eigenvalues --    2.59282   2.59491   2.60577   2.60896   2.61177
 Alpha virt. eigenvalues --    2.61907   2.62412   2.62888   2.63075   2.63566
 Alpha virt. eigenvalues --    2.64276   2.64366   2.64821   2.65292   2.66706
 Alpha virt. eigenvalues --    2.67185   2.67937   2.68599   2.69171   2.69407
 Alpha virt. eigenvalues --    2.69830   2.69920   2.70414   2.71141   2.71718
 Alpha virt. eigenvalues --    2.71787   2.71974   2.72722   2.73044   2.74088
 Alpha virt. eigenvalues --    2.74275   2.74507   2.75467   2.76502   2.76954
 Alpha virt. eigenvalues --    2.77429   2.78146   2.78610   2.79182   2.79397
 Alpha virt. eigenvalues --    2.79770   2.80498   2.81169   2.81397   2.81720
 Alpha virt. eigenvalues --    2.82760   2.83194   2.84109   2.84631   2.85089
 Alpha virt. eigenvalues --    2.85503   2.86507   2.86851   2.87398   2.87752
 Alpha virt. eigenvalues --    2.88687   2.90006   2.90225   2.90420   2.92364
 Alpha virt. eigenvalues --    2.92425   2.93226   2.93648   2.94336   2.95194
 Alpha virt. eigenvalues --    2.96023   2.96775   2.97123   2.97642   2.98976
 Alpha virt. eigenvalues --    2.99615   2.99734   3.00681   3.01049   3.02074
 Alpha virt. eigenvalues --    3.02189   3.03318   3.03937   3.04472   3.04714
 Alpha virt. eigenvalues --    3.05854   3.06242   3.06863   3.07236   3.07694
 Alpha virt. eigenvalues --    3.07809   3.08042   3.08557   3.09278   3.09808
 Alpha virt. eigenvalues --    3.10694   3.11101   3.11228   3.12294   3.12639
 Alpha virt. eigenvalues --    3.13115   3.13659   3.14496   3.14704   3.15361
 Alpha virt. eigenvalues --    3.15744   3.16265   3.16749   3.17039   3.17323
 Alpha virt. eigenvalues --    3.18291   3.18400   3.19085   3.20075   3.20445
 Alpha virt. eigenvalues --    3.20636   3.21208   3.21651   3.22239   3.22821
 Alpha virt. eigenvalues --    3.23632   3.23694   3.23981   3.24703   3.25121
 Alpha virt. eigenvalues --    3.26164   3.26578   3.27076   3.27377   3.28064
 Alpha virt. eigenvalues --    3.28171   3.28516   3.29176   3.30047   3.30435
 Alpha virt. eigenvalues --    3.31008   3.31666   3.32129   3.33336   3.33500
 Alpha virt. eigenvalues --    3.34478   3.34754   3.34877   3.35910   3.36736
 Alpha virt. eigenvalues --    3.37287   3.37732   3.37949   3.38431   3.38567
 Alpha virt. eigenvalues --    3.38919   3.39065   3.39555   3.39626   3.40575
 Alpha virt. eigenvalues --    3.41295   3.41855   3.42253   3.42737   3.43086
 Alpha virt. eigenvalues --    3.43854   3.44883   3.45603   3.46086   3.46975
 Alpha virt. eigenvalues --    3.47439   3.48062   3.48156   3.48591   3.49431
 Alpha virt. eigenvalues --    3.50390   3.51301   3.51603   3.51656   3.51951
 Alpha virt. eigenvalues --    3.52873   3.53767   3.55036   3.55130   3.55595
 Alpha virt. eigenvalues --    3.55771   3.56152   3.57255   3.57827   3.58916
 Alpha virt. eigenvalues --    3.59818   3.60103   3.60589   3.60784   3.62565
 Alpha virt. eigenvalues --    3.63193   3.63846   3.64768   3.66216   3.67707
 Alpha virt. eigenvalues --    3.68067   3.68924   3.69792   3.71109   3.71631
 Alpha virt. eigenvalues --    3.73121   3.74232   3.75738   3.75752   3.77699
 Alpha virt. eigenvalues --    3.78592   3.78899   3.79805   3.80431   3.81013
 Alpha virt. eigenvalues --    3.81234   3.82731   3.83690   3.84472   3.86462
 Alpha virt. eigenvalues --    3.86927   3.87809   3.89919   3.90562   3.92335
 Alpha virt. eigenvalues --    3.94110   3.95237   3.96340   3.96614   3.96727
 Alpha virt. eigenvalues --    3.97261   3.99129   3.99821   4.00375   4.00669
 Alpha virt. eigenvalues --    4.01192   4.01829   4.03440   4.04150   4.04933
 Alpha virt. eigenvalues --    4.05507   4.06067   4.07394   4.07969   4.08088
 Alpha virt. eigenvalues --    4.08639   4.09826   4.10363   4.10642   4.11022
 Alpha virt. eigenvalues --    4.12152   4.12365   4.14661   4.15208   4.15628
 Alpha virt. eigenvalues --    4.15837   4.16197   4.16443   4.17185   4.17393
 Alpha virt. eigenvalues --    4.18371   4.19289   4.21113   4.21790   4.22679
 Alpha virt. eigenvalues --    4.24206   4.24391   4.25755   4.26313   4.26914
 Alpha virt. eigenvalues --    4.28691   4.29235   4.29843   4.31364   4.33362
 Alpha virt. eigenvalues --    4.34163   4.35712   4.36968   4.38173   4.39091
 Alpha virt. eigenvalues --    4.40196   4.41762   4.41864   4.42654   4.43114
 Alpha virt. eigenvalues --    4.43396   4.44945   4.46265   4.46910   4.47317
 Alpha virt. eigenvalues --    4.48850   4.49523   4.51247   4.51831   4.53024
 Alpha virt. eigenvalues --    4.54438   4.55184   4.55628   4.57113   4.58354
 Alpha virt. eigenvalues --    4.58571   4.59399   4.60952   4.62076   4.66191
 Alpha virt. eigenvalues --    4.68240   4.70281   4.71392   4.74674   4.76859
 Alpha virt. eigenvalues --    4.77476   4.80214   4.80371   4.80886   4.84693
 Alpha virt. eigenvalues --    4.85884   4.86377   4.87093   4.87470   4.88392
 Alpha virt. eigenvalues --    4.88943   4.89511   4.91109   4.94541   4.95364
 Alpha virt. eigenvalues --    4.96507   4.96929   5.01527   5.01958   5.04988
 Alpha virt. eigenvalues --    5.05801   5.06118   5.07618   5.10390   5.11499
 Alpha virt. eigenvalues --    5.15505   5.18211   5.19046   5.21031   5.21386
 Alpha virt. eigenvalues --    5.26989   5.28399   5.28871   5.29831   5.30959
 Alpha virt. eigenvalues --    5.32388   5.34481   5.40281   5.41345   5.42627
 Alpha virt. eigenvalues --    5.43706   5.46323   5.48242   5.52330   5.54960
 Alpha virt. eigenvalues --    5.58098   5.59734   5.60916   5.64063   5.64983
 Alpha virt. eigenvalues --    5.67371   5.68623   5.73711   5.74060   5.80301
 Alpha virt. eigenvalues --    5.81367   5.85430   5.86876   5.93284   5.95645
 Alpha virt. eigenvalues --    6.05076   6.11414   6.15318   6.16526   6.20019
 Alpha virt. eigenvalues --    6.36470   6.41590   6.52841   6.63107   6.75633
 Alpha virt. eigenvalues --    6.77948   6.79016   6.80819   6.83257   6.88360
 Alpha virt. eigenvalues --    6.94965   6.96162   7.10467   7.15633   7.19268
 Alpha virt. eigenvalues --    7.23594   7.37056   7.46095  16.36882  22.35934
 Alpha virt. eigenvalues --   22.49724  22.49837  22.52979  22.53646  22.56339
 Alpha virt. eigenvalues --   22.57200  22.57723  22.76751  22.77781  22.81797
 Alpha virt. eigenvalues --   22.82814  22.83201  22.84252  22.86057  22.90044
 Alpha virt. eigenvalues --   23.04292  23.17054  23.32615  23.37965  23.55649
 Alpha virt. eigenvalues --   32.59590  32.85651  44.12909  44.39521  44.43383
          Condensed to atoms (all electrons):
 Mulliken charges:
               1
     1  O   -0.416161
     2  C    0.357076
     3  N   -0.329761
     4  C    0.275144
     5  N   -0.310666
     6  C   -0.081932
     7  C   -0.197605
     8  C    0.216996
     9  C   -0.220325
    10  C   -0.242516
    11  C   -0.241529
    12  C   -0.331014
    13  C    0.079207
    14  C   -0.189194
    15  C   -0.210705
    16  C   -0.042734
    17  B    0.429092
    18  O   -0.334537
    19  C    0.129838
    20  C   -0.499257
    21  C   -0.432687
    22  C    0.130028
    23  C   -0.432507
    24  C   -0.499503
    25  O   -0.336136
    26  C   -0.172262
    27  C   -0.162740
    28  H    0.247149
    29  H    0.140498
    30  H    0.137061
    31  H    0.118062
    32  H    0.159222
    33  H    0.138905
    34  H    0.138941
    35  H    0.157873
    36  H    0.238092
    37  H    0.157285
    38  H    0.159030
    39  H    0.165978
    40  H    0.166547
    41  H    0.164081
    42  H    0.155803
    43  H    0.158736
    44  H    0.159472
    45  H    0.158842
    46  H    0.158940
    47  H    0.155908
    48  H    0.165169
    49  H    0.166675
    50  H    0.164275
    51  H    0.159087
    52  H    0.174757
 Sum of Mulliken charges =  -0.00000
 Mulliken charges with hydrogens summed into heavy atoms:
               1
     1  O   -0.416161
     2  C    0.357076
     3  N   -0.082611
     4  C    0.275144
     5  N   -0.310666
     6  C    0.058566
     7  C   -0.060544
     8  C    0.216996
     9  C   -0.102263
    10  C    0.055611
    11  C    0.055285
    12  C   -0.092922
    13  C    0.079207
    14  C   -0.031909
    15  C   -0.051675
    16  C   -0.042734
    17  B    0.429092
    18  O   -0.334537
    19  C    0.129838
    20  C   -0.002650
    21  C    0.041323
    22  C    0.130028
    23  C    0.041184
    24  C   -0.003384
    25  O   -0.336136
    26  C   -0.013174
    27  C    0.012017
 Electronic spatial extent (au):  <R**2>=          20189.5755
 Charge=             -0.0000 electrons
 Dipole moment (field-independent basis, Debye):
    X=              2.4873    Y=              0.8220    Z=              0.0706  Tot=              2.6205
 Quadrupole moment (field-independent basis, Debye-Ang):
   XX=           -107.0849   YY=           -159.9979   ZZ=           -163.1070
   XY=              0.7800   XZ=             -0.5074   YZ=              0.3457
 Traceless Quadrupole moment (field-independent basis, Debye-Ang):
   XX=             36.3117   YY=            -16.6014   ZZ=            -19.7104
   XY=              0.7800   XZ=             -0.5074   YZ=              0.3457
 Octapole moment (field-independent basis, Debye-Ang**2):
  XXX=             12.2927  YYY=              4.4976  ZZZ=              1.4434  XYY=              8.9262
  XXY=            -13.5438  XXZ=              4.8369  XZZ=             24.3598  YZZ=             -6.4981
  YYZ=             -2.4142  XYZ=             -2.7087
 Hexadecapole moment (field-independent basis, Debye-Ang**3):
 XXXX=         -21096.1142 YYYY=          -1961.4552 ZZZZ=           -612.8080 XXXY=            145.0752
 XXXZ=            -20.5623 YYYX=            -59.4392 YYYZ=             19.4140 ZZZX=             -9.5279
 ZZZY=              1.7969 XXYY=          -4371.6662 XXZZ=          -4389.1087 YYZZ=           -438.7348
 XXYZ=            -50.8676 YYXZ=             12.7189 ZZXY=             40.4466
 N-N= 2.239862897634D+03 E-N=-7.215317890640D+03  KE= 1.169134957620D+03
 Unable to Open any file for archive entry.
 1\1\GINC-COMPUTE-0-29\SP\RM062X\def2TZVP\C21H25B1N2O3\ZTAN64\14-Aug-20
 24\0\\# M062X/def2tzvp int=(grid=ultrafine) nmr=giao guess=read geom=c
 heck\\pyrd4.xyz\\0,1\O,0,2.7441016121,1.2329095878,2.0243192589\C,0,1.
 9139963638,1.0763575144,2.9153092863\N,0,2.2284510912,1.0668856171,4.2
 540567635\C,0,3.4728208615,1.2578877273,4.8705424275\N,0,3.4096674586,
 1.1213175185,6.2040658983\C,0,4.5476525157,1.292519744,6.8826014853\C,
 0,5.766785059,1.5994151385,6.2875058745\C,0,5.8249895635,1.7395475898,
 4.894213404\C,0,7.1105709115,2.0637527093,4.227953051\C,0,7.4432765752
 ,1.4899443748,2.8613594277\C,0,7.1447557513,2.9503656224,2.9949407145\
 C,0,4.642568971,1.5626812225,4.1686586557\C,0,0.461988512,0.8611595815
 ,2.6046839704\C,0,-0.5722601432,1.1213632121,3.5150440075\C,0,-1.89674
 84815,0.9033297398,3.147897692\C,0,-2.2240516328,0.4223391103,1.870280
 9701\B,0,-3.7027745385,0.1780962906,1.4683261758\O,0,-4.0766116461,-0.
 3556291724,0.2607902494\C,0,-5.5217749545,-0.2106249397,0.1601822736\C
 ,0,-5.778044131,1.0719928886,-0.6356144975\C,0,-6.0817114875,-1.417247
 0852,-0.5817032155\C,0,-5.9512093847,-0.0994847101,1.6688362829\C,0,-7
 .1339321223,0.8224514857,1.935505776\C,0,-6.1739775263,-1.4604105592,2
 .3339380764\O,0,-4.7643955106,0.4757084121,2.2857450478\C,0,-1.1788226
 073,0.1787555562,0.9632585705\C,0,0.1458672397,0.4006621633,1.32005935
 86\H,0,1.5086335275,0.8257910314,4.920814887\H,0,4.4774957028,1.177296
 7266,7.9622864457\H,0,6.6567020072,1.7259621924,6.8952286698\H,0,7.946
 3760103,2.1720902459,4.9131217097\H,0,6.6954315291,0.8524489602,2.4006
 729021\H,0,8.4689271156,1.1816425671,2.6860045557\H,0,7.9623794202,3.6
 592213978,2.9125907696\H,0,6.1918592179,3.3160027961,2.6259056578\H,0,
 4.5999094467,1.6457638952,3.0927171453\H,0,-0.3565465249,1.5294377276,
 4.4981765663\H,0,-2.6939269813,1.1132787712,3.8543146045\H,0,-5.267236
 8652,0.9976286203,-1.5987231825\H,0,-5.3863460904,1.9468146622,-0.1100
 545814\H,0,-6.8450225661,1.2243494083,-0.8198614749\H,0,-7.175208687,-
 1.3785669693,-0.6105967666\H,0,-5.7764499433,-2.3532998767,-0.11247449
 75\H,0,-5.7144282563,-1.4180620209,-1.6112673956\H,0,-6.9304708915,1.8
 414089029,1.603986454\H,0,-7.3437806136,0.8497711541,3.0079703826\H,0,
 -8.0297604827,0.4581906434,1.4228030735\H,0,-6.2570562917,-1.316132988
 9,3.4139321644\H,0,-5.3338850926,-2.1337341919,2.1446355708\H,0,-7.090
 6778505,-1.9372786843,1.976389155\H,0,-1.4174929299,-0.186274706,-0.03
 10021049\H,0,0.9580977701,0.2273033954,0.6232723046\\Version=ES64L-G16
 RevC.01\State=1-A\HF=-1175.4037446\RMSD=2.860e-09\Dipole=-1.0213049,-0
 .1402971,0.0147148\Quadrupole=22.6694416,-13.5381589,-9.1312827,6.4574
 165,10.5846435,2.1185876\PG=C01 [X(C21H25B1N2O3)]\\@
 The archive entry for this job was punched.


 MYSTERY IS THE WISDOM OF BLOCKHEADS... HORACE WALPOLE 
 Job cpu time:       0 days  5 hours 16 minutes  3.7 seconds.
 Elapsed time:       0 days  0 hours 21 minutes 13.2 seconds.
 File lengths (MBytes):  RWF=    543 Int=      0 D2E=      0 Chk=     88 Scr=      1
 Normal termination of Gaussian 16 at Wed Aug 14 20:40:18 2024.
 
 
-----Kestrel cluster job statistics-----
Time info:

real	104m12.196s
user	1638m33.652s
sys	1m20.413s
 
Disk space usage:
88M	/scratch/362965.kestrel.chem.wisc.edu
