 Entering Gaussian System, Link 0=/share/apps/gaussian/g16/g16
 Initial command:
 /share/apps/gaussian/g16/l1.exe "/scratch/362977.kestrel.chem.wisc.edu/Gau-12088.inp" -scrdir="/scratch/362977.kestrel.chem.wisc.edu/"
 Entering Link 1 = /share/apps/gaussian/g16/l1.exe PID=     12089.
  
 Copyright (c) 1988-2019, Gaussian, Inc.  All Rights Reserved.
  
 This is part of the Gaussian(R) 16 program.  It is based on
 the Gaussian(R) 09 system (copyright 2009, Gaussian, Inc.),
 the Gaussian(R) 03 system (copyright 2003, Gaussian, Inc.),
 the Gaussian(R) 98 system (copyright 1998, Gaussian, Inc.),
 the Gaussian(R) 94 system (copyright 1995, Gaussian, Inc.),
 the Gaussian 92(TM) system (copyright 1992, Gaussian, Inc.),
 the Gaussian 90(TM) system (copyright 1990, Gaussian, Inc.),
 the Gaussian 88(TM) system (copyright 1988, Gaussian, Inc.),
 the Gaussian 86(TM) system (copyright 1986, Carnegie Mellon
 University), and the Gaussian 82(TM) system (copyright 1983,
 Carnegie Mellon University). Gaussian is a federally registered
 trademark of Gaussian, Inc.
  
 This software contains proprietary and confidential information,
 including trade secrets, belonging to Gaussian, Inc.
  
 This software is provided under written license and may be
 used, copied, transmitted, or stored only in accord with that
 written license.
  
 The following legend is applicable only to US Government
 contracts under FAR:
  
                    RESTRICTED RIGHTS LEGEND
  
 Use, reproduction and disclosure by the US Government is
 subject to restrictions as set forth in subparagraphs (a)
 and (c) of the Commercial Computer Software - Restricted
 Rights clause in FAR 52.227-19.
  
 Gaussian, Inc.
 340 Quinnipiac St., Bldg. 40, Wallingford CT 06492
  
  
 ---------------------------------------------------------------
 Warning -- This program may not be used in any manner that
 competes with the business of Gaussian, Inc. or will provide
 assistance to any competitor of Gaussian, Inc.  The licensee
 of this program is prohibited from giving any competitor of
 Gaussian, Inc. access to this program.  By using this program,
 the user acknowledges that Gaussian, Inc. is engaged in the
 business of creating and licensing software in the field of
 computational chemistry and represents and warrants to the
 licensee that it is not a competitor of Gaussian, Inc. and that
 it will not use this program in any manner prohibited above.
 ---------------------------------------------------------------
  

 Cite this work as:
 Gaussian 16, Revision C.01,
 M. J. Frisch, G. W. Trucks, H. B. Schlegel, G. E. Scuseria, 
 M. A. Robb, J. R. Cheeseman, G. Scalmani, V. Barone, 
 G. A. Petersson, H. Nakatsuji, X. Li, M. Caricato, A. V. Marenich, 
 J. Bloino, B. G. Janesko, R. Gomperts, B. Mennucci, H. P. Hratchian, 
 J. V. Ortiz, A. F. Izmaylov, J. L. Sonnenberg, D. Williams-Young, 
 F. Ding, F. Lipparini, F. Egidi, J. Goings, B. Peng, A. Petrone, 
 T. Henderson, D. Ranasinghe, V. G. Zakrzewski, J. Gao, N. Rega, 
 G. Zheng, W. Liang, M. Hada, M. Ehara, K. Toyota, R. Fukuda, 
 J. Hasegawa, M. Ishida, T. Nakajima, Y. Honda, O. Kitao, H. Nakai, 
 T. Vreven, K. Throssell, J. A. Montgomery, Jr., J. E. Peralta, 
 F. Ogliaro, M. J. Bearpark, J. J. Heyd, E. N. Brothers, K. N. Kudin, 
 V. N. Staroverov, T. A. Keith, R. Kobayashi, J. Normand, 
 K. Raghavachari, A. P. Rendell, J. C. Burant, S. S. Iyengar, 
 J. Tomasi, M. Cossi, J. M. Millam, M. Klene, C. Adamo, R. Cammi, 
 J. W. Ochterski, R. L. Martin, K. Morokuma, O. Farkas, 
 J. B. Foresman, and D. J. Fox, Gaussian, Inc., Wallingford CT, 2019.
 
 ******************************************
 Gaussian 16:  ES64L-G16RevC.01  3-Jul-2019
                14-Aug-2024 
 ******************************************
 %nprocs=16
 Will use up to   16 processors via shared memory.
 %mem=16GB
 %chk=pyrd7_conf-2.chk
 ----------------------------------------------------------------------
 # B3LYP/6-31G(d,p) symmetry=loose empiricaldispersion=GD3BJ int=(grid=
 ultrafine) opt freq=noraman
 ----------------------------------------------------------------------
 1/18=20,19=15,26=4,38=1/1,3;
 2/9=110,12=2,17=4,18=3,40=1/2;
 3/5=1,6=6,7=101,11=2,25=1,30=1,71=1,74=-5,75=-5,124=41/1,2,3;
 4//1;
 5/5=2,38=5/2;
 6/7=2,8=2,9=2,10=2,28=1/1;
 7//1,2,3,16;
 1/18=20,19=15,26=4/3(2);
 2/9=110/2;
 99//99;
 2/9=110/2;
 3/5=1,6=6,7=101,11=2,25=1,30=1,71=1,74=-5,75=-5,124=41/1,2,3;
 4/5=5,16=3,69=1/1;
 5/5=2,38=5/2;
 7//1,2,3,16;
 1/18=20,19=15,26=4/3(-5);
 2/9=110/2;
 6/7=2,8=2,9=2,10=2,19=2,28=1/1;
 99/9=1/99;
 ---------
 pyrd7.xyz
 ---------
 Symbolic Z-matrix:
 Charge =  0 Multiplicity = 1
 F                    -3.6998    2.8991    1.189 
 C                    -2.7478    2.2616    1.8715 
 F                    -1.8174    3.1512    2.2221 
 C                    -2.1635    1.1221    1.0367 
 C                    -0.7847    0.8831    1.0061 
 C                    -0.2578   -0.1601    0.2357 
 C                     1.246    -0.4323    0.2003 
 F                     1.7416    0.0323   -0.9456 
 F                     1.8847    0.1627    1.2093 
 F                     1.484    -1.7426    0.2696 
 C                    -1.1292   -0.9646   -0.5077 
 C                    -2.5124   -0.7474   -0.4945 
 C                    -3.4289   -1.6116   -1.2896 
 C                    -3.0932   -2.0415   -2.5819 
 N                    -3.8928   -2.829    -3.3443 
 C                    -5.0816   -3.2183   -2.8224 
 C                    -5.5105   -2.8401   -1.5482 
 C                    -6.8426   -3.3172   -1.0002 
 C                    -4.6671   -2.0317   -0.78 
 C                    -3.0132    0.3023    0.285 
 F                    -3.2844    1.7529    2.9797 
 H                    -0.1191    1.5112    1.5841 
 H                    -0.7246   -1.7791   -1.093 
 H                    -2.1643   -1.742    -3.0452 
 H                    -5.6931   -3.847    -3.4537 
 H                    -7.1235   -4.279    -1.4312 
 H                    -6.7884   -3.4643    0.0792 
 H                    -7.6282   -2.5919   -1.2141 
 H                    -4.9707   -1.7423    0.2158 
 H                    -4.0775    0.493     0.2975 
 

 GradGradGradGradGradGradGradGradGradGradGradGradGradGradGradGradGradGrad
 Berny optimization.
 Initialization pass.
                           ----------------------------
                           !    Initial Parameters    !
                           ! (Angstroms and Degrees)  !
 --------------------------                            --------------------------
 ! Name  Definition              Value          Derivative Info.                !
 --------------------------------------------------------------------------------
 ! R1    R(1,2)                  1.3336         estimate D2E/DX2                !
 ! R2    R(2,3)                  1.3341         estimate D2E/DX2                !
 ! R3    R(2,4)                  1.5286         estimate D2E/DX2                !
 ! R4    R(2,21)                 1.3322         estimate D2E/DX2                !
 ! R5    R(4,5)                  1.3997         estimate D2E/DX2                !
 ! R6    R(4,20)                 1.3997         estimate D2E/DX2                !
 ! R7    R(5,6)                  1.3998         estimate D2E/DX2                !
 ! R8    R(5,22)                 1.0824         estimate D2E/DX2                !
 ! R9    R(6,7)                  1.5286         estimate D2E/DX2                !
 ! R10   R(6,11)                 1.3997         estimate D2E/DX2                !
 ! R11   R(7,8)                  1.3321         estimate D2E/DX2                !
 ! R12   R(7,9)                  1.3342         estimate D2E/DX2                !
 ! R13   R(7,10)                 1.3335         estimate D2E/DX2                !
 ! R14   R(11,12)                1.4002         estimate D2E/DX2                !
 ! R15   R(11,23)                1.0815         estimate D2E/DX2                !
 ! R16   R(12,13)                1.4896         estimate D2E/DX2                !
 ! R17   R(12,20)                1.4001         estimate D2E/DX2                !
 ! R18   R(13,14)                1.4027         estimate D2E/DX2                !
 ! R19   R(13,19)                1.4033         estimate D2E/DX2                !
 ! R20   R(14,15)                1.3567         estimate D2E/DX2                !
 ! R21   R(14,24)                1.0804         estimate D2E/DX2                !
 ! R22   R(15,16)                1.3554         estimate D2E/DX2                !
 ! R23   R(16,17)                1.3966         estimate D2E/DX2                !
 ! R24   R(16,25)                1.0806         estimate D2E/DX2                !
 ! R25   R(17,18)                1.5174         estimate D2E/DX2                !
 ! R26   R(17,19)                1.3982         estimate D2E/DX2                !
 ! R27   R(18,26)                1.0907         estimate D2E/DX2                !
 ! R28   R(18,27)                1.0907         estimate D2E/DX2                !
 ! R29   R(18,28)                1.0904         estimate D2E/DX2                !
 ! R30   R(19,29)                1.0805         estimate D2E/DX2                !
 ! R31   R(20,30)                1.0813         estimate D2E/DX2                !
 ! A1    A(1,2,3)              108.2742         estimate D2E/DX2                !
 ! A2    A(1,2,4)              110.4698         estimate D2E/DX2                !
 ! A3    A(1,2,21)             108.706          estimate D2E/DX2                !
 ! A4    A(3,2,4)              111.9624         estimate D2E/DX2                !
 ! A5    A(3,2,21)             108.4757         estimate D2E/DX2                !
 ! A6    A(4,2,21)             108.8804         estimate D2E/DX2                !
 ! A7    A(2,4,5)              121.0476         estimate D2E/DX2                !
 ! A8    A(2,4,20)             119.8576         estimate D2E/DX2                !
 ! A9    A(5,4,20)             119.0946         estimate D2E/DX2                !
 ! A10   A(4,5,6)              120.6692         estimate D2E/DX2                !
 ! A11   A(4,5,22)             119.6688         estimate D2E/DX2                !
 ! A12   A(6,5,22)             119.662          estimate D2E/DX2                !
 ! A13   A(5,6,7)              121.0473         estimate D2E/DX2                !
 ! A14   A(5,6,11)             119.0983         estimate D2E/DX2                !
 ! A15   A(7,6,11)             119.854          estimate D2E/DX2                !
 ! A16   A(6,7,8)              108.8933         estimate D2E/DX2                !
 ! A17   A(6,7,9)              111.9634         estimate D2E/DX2                !
 ! A18   A(6,7,10)             110.4464         estimate D2E/DX2                !
 ! A19   A(8,7,9)              108.4759         estimate D2E/DX2                !
 ! A20   A(8,7,10)             108.7229         estimate D2E/DX2                !
 ! A21   A(9,7,10)             108.2675         estimate D2E/DX2                !
 ! A22   A(6,11,12)            121.3878         estimate D2E/DX2                !
 ! A23   A(6,11,23)            119.1686         estimate D2E/DX2                !
 ! A24   A(12,11,23)           119.438          estimate D2E/DX2                !
 ! A25   A(11,12,13)           120.8475         estimate D2E/DX2                !
 ! A26   A(11,12,20)           118.3521         estimate D2E/DX2                !
 ! A27   A(13,12,20)           120.8004         estimate D2E/DX2                !
 ! A28   A(12,13,14)           121.4872         estimate D2E/DX2                !
 ! A29   A(12,13,19)           121.5138         estimate D2E/DX2                !
 ! A30   A(14,13,19)           116.999          estimate D2E/DX2                !
 ! A31   A(13,14,15)           123.6799         estimate D2E/DX2                !
 ! A32   A(13,14,24)           121.0572         estimate D2E/DX2                !
 ! A33   A(15,14,24)           115.2553         estimate D2E/DX2                !
 ! A34   A(14,15,16)           117.8553         estimate D2E/DX2                !
 ! A35   A(15,16,17)           122.8785         estimate D2E/DX2                !
 ! A36   A(15,16,25)           116.0064         estimate D2E/DX2                !
 ! A37   A(17,16,25)           121.1151         estimate D2E/DX2                !
 ! A38   A(16,17,18)           120.9271         estimate D2E/DX2                !
 ! A39   A(16,17,19)           118.202          estimate D2E/DX2                !
 ! A40   A(18,17,19)           120.8585         estimate D2E/DX2                !
 ! A41   A(17,18,26)           111.1392         estimate D2E/DX2                !
 ! A42   A(17,18,27)           110.8659         estimate D2E/DX2                !
 ! A43   A(17,18,28)           110.6407         estimate D2E/DX2                !
 ! A44   A(26,18,27)           106.5538         estimate D2E/DX2                !
 ! A45   A(26,18,28)           108.8733         estimate D2E/DX2                !
 ! A46   A(27,18,28)           108.641          estimate D2E/DX2                !
 ! A47   A(13,19,17)           120.3841         estimate D2E/DX2                !
 ! A48   A(13,19,29)           120.1587         estimate D2E/DX2                !
 ! A49   A(17,19,29)           119.4528         estimate D2E/DX2                !
 ! A50   A(4,20,12)            121.398          estimate D2E/DX2                !
 ! A51   A(4,20,30)            119.2097         estimate D2E/DX2                !
 ! A52   A(12,20,30)           119.3875         estimate D2E/DX2                !
 ! D1    D(1,2,4,5)            137.6583         estimate D2E/DX2                !
 ! D2    D(1,2,4,20)           -42.1563         estimate D2E/DX2                !
 ! D3    D(3,2,4,5)             16.8998         estimate D2E/DX2                !
 ! D4    D(3,2,4,20)          -162.9148         estimate D2E/DX2                !
 ! D5    D(21,2,4,5)          -103.0369         estimate D2E/DX2                !
 ! D6    D(21,2,4,20)           77.1485         estimate D2E/DX2                !
 ! D7    D(2,4,5,6)           -179.8058         estimate D2E/DX2                !
 ! D8    D(2,4,5,22)             0.2023         estimate D2E/DX2                !
 ! D9    D(20,4,5,6)             0.0102         estimate D2E/DX2                !
 ! D10   D(20,4,5,22)         -179.9818         estimate D2E/DX2                !
 ! D11   D(2,4,20,12)          179.7745         estimate D2E/DX2                !
 ! D12   D(2,4,20,30)            0.5782         estimate D2E/DX2                !
 ! D13   D(5,4,20,12)           -0.0437         estimate D2E/DX2                !
 ! D14   D(5,4,20,30)         -179.24           estimate D2E/DX2                !
 ! D15   D(4,5,6,7)           -179.7558         estimate D2E/DX2                !
 ! D16   D(4,5,6,11)             0.0401         estimate D2E/DX2                !
 ! D17   D(22,5,6,7)             0.2361         estimate D2E/DX2                !
 ! D18   D(22,5,6,11)         -179.9679         estimate D2E/DX2                !
 ! D19   D(5,6,7,8)           -103.3053         estimate D2E/DX2                !
 ! D20   D(5,6,7,9)             16.6408         estimate D2E/DX2                !
 ! D21   D(5,6,7,10)           137.3753         estimate D2E/DX2                !
 ! D22   D(11,6,7,8)            76.9003         estimate D2E/DX2                !
 ! D23   D(11,6,7,9)          -163.1536         estimate D2E/DX2                !
 ! D24   D(11,6,7,10)          -42.4191         estimate D2E/DX2                !
 ! D25   D(5,6,11,12)           -0.059          estimate D2E/DX2                !
 ! D26   D(5,6,11,23)         -179.197          estimate D2E/DX2                !
 ! D27   D(7,6,11,12)          179.7394         estimate D2E/DX2                !
 ! D28   D(7,6,11,23)            0.6014         estimate D2E/DX2                !
 ! D29   D(6,11,12,13)        -179.9582         estimate D2E/DX2                !
 ! D30   D(6,11,12,20)           0.0266         estimate D2E/DX2                !
 ! D31   D(23,11,12,13)         -0.8225         estimate D2E/DX2                !
 ! D32   D(23,11,12,20)        179.1622         estimate D2E/DX2                !
 ! D33   D(11,12,13,14)        -40.046          estimate D2E/DX2                !
 ! D34   D(11,12,13,19)        139.9883         estimate D2E/DX2                !
 ! D35   D(20,12,13,14)        139.9696         estimate D2E/DX2                !
 ! D36   D(20,12,13,19)        -39.9961         estimate D2E/DX2                !
 ! D37   D(11,12,20,4)           0.0255         estimate D2E/DX2                !
 ! D38   D(11,12,20,30)        179.2204         estimate D2E/DX2                !
 ! D39   D(13,12,20,4)        -179.9897         estimate D2E/DX2                !
 ! D40   D(13,12,20,30)         -0.7948         estimate D2E/DX2                !
 ! D41   D(12,13,14,15)        179.953          estimate D2E/DX2                !
 ! D42   D(12,13,14,24)         -1.1024         estimate D2E/DX2                !
 ! D43   D(19,13,14,15)         -0.0799         estimate D2E/DX2                !
 ! D44   D(19,13,14,24)        178.8648         estimate D2E/DX2                !
 ! D45   D(12,13,19,17)        179.8412         estimate D2E/DX2                !
 ! D46   D(12,13,19,29)         -0.9279         estimate D2E/DX2                !
 ! D47   D(14,13,19,17)         -0.126          estimate D2E/DX2                !
 ! D48   D(14,13,19,29)        179.1049         estimate D2E/DX2                !
 ! D49   D(13,14,15,16)          0.0274         estimate D2E/DX2                !
 ! D50   D(24,14,15,16)       -178.973          estimate D2E/DX2                !
 ! D51   D(14,15,16,17)          0.2385         estimate D2E/DX2                !
 ! D52   D(14,15,16,25)       -179.8235         estimate D2E/DX2                !
 ! D53   D(15,16,17,18)       -179.1675         estimate D2E/DX2                !
 ! D54   D(15,16,17,19)         -0.436          estimate D2E/DX2                !
 ! D55   D(25,16,17,18)          0.8976         estimate D2E/DX2                !
 ! D56   D(25,16,17,19)        179.6291         estimate D2E/DX2                !
 ! D57   D(16,17,18,26)         28.1366         estimate D2E/DX2                !
 ! D58   D(16,17,18,27)        146.4502         estimate D2E/DX2                !
 ! D59   D(16,17,18,28)        -92.9445         estimate D2E/DX2                !
 ! D60   D(19,17,18,26)       -150.5611         estimate D2E/DX2                !
 ! D61   D(19,17,18,27)        -32.2476         estimate D2E/DX2                !
 ! D62   D(19,17,18,28)         88.3578         estimate D2E/DX2                !
 ! D63   D(16,17,19,13)          0.3694         estimate D2E/DX2                !
 ! D64   D(16,17,19,29)       -178.8669         estimate D2E/DX2                !
 ! D65   D(18,17,19,13)        179.1018         estimate D2E/DX2                !
 ! D66   D(18,17,19,29)         -0.1345         estimate D2E/DX2                !
 --------------------------------------------------------------------------------
 Trust Radius=3.00D-01 FncErr=1.00D-07 GrdErr=1.00D-06 EigMax=2.50D+02 EigMin=1.00D-04
 Number of steps in this run=    159 maximum allowed number of steps=    180.
 GradGradGradGradGradGradGradGradGradGradGradGradGradGradGradGradGradGrad

                          Input orientation:                          
 ---------------------------------------------------------------------
 Center     Atomic      Atomic             Coordinates (Angstroms)
 Number     Number       Type             X           Y           Z
 ---------------------------------------------------------------------
      1          9           0       -3.699800    2.899100    1.189000
      2          6           0       -2.747800    2.261600    1.871500
      3          9           0       -1.817400    3.151200    2.222100
      4          6           0       -2.163500    1.122100    1.036700
      5          6           0       -0.784700    0.883100    1.006100
      6          6           0       -0.257800   -0.160100    0.235700
      7          6           0        1.246000   -0.432300    0.200300
      8          9           0        1.741600    0.032300   -0.945600
      9          9           0        1.884700    0.162700    1.209300
     10          9           0        1.484000   -1.742600    0.269600
     11          6           0       -1.129200   -0.964600   -0.507700
     12          6           0       -2.512400   -0.747400   -0.494500
     13          6           0       -3.428900   -1.611600   -1.289600
     14          6           0       -3.093200   -2.041500   -2.581900
     15          7           0       -3.892800   -2.829000   -3.344300
     16          6           0       -5.081600   -3.218300   -2.822400
     17          6           0       -5.510500   -2.840100   -1.548200
     18          6           0       -6.842600   -3.317200   -1.000200
     19          6           0       -4.667100   -2.031700   -0.780000
     20          6           0       -3.013200    0.302300    0.285000
     21          9           0       -3.284400    1.752900    2.979700
     22          1           0       -0.119100    1.511200    1.584100
     23          1           0       -0.724600   -1.779100   -1.093000
     24          1           0       -2.164300   -1.742000   -3.045200
     25          1           0       -5.693100   -3.847000   -3.453700
     26          1           0       -7.123500   -4.279000   -1.431200
     27          1           0       -6.788400   -3.464300    0.079200
     28          1           0       -7.628200   -2.591900   -1.214100
     29          1           0       -4.970700   -1.742300    0.215800
     30          1           0       -4.077500    0.493000    0.297500
 ---------------------------------------------------------------------
                    Distance matrix (angstroms):
                    1          2          3          4          5
     1  F    0.000000
     2  C    1.333610   0.000000
     3  F    2.162008   1.334149   0.000000
     4  C    2.353963   1.528646   2.375333   0.000000
     5  C    3.549016   2.550086   2.772977   1.399695   0.000000
     6  C    4.702643   3.839345   4.164474   2.432556   1.399788
     7  C    6.044559   5.099063   5.129675   3.839325   2.550163
     8  F    6.510291   5.749830   5.694589   4.512979   3.303814
     9  F    6.218918   5.128737   4.864405   4.163912   2.772357
    10  F    7.018722   6.042171   6.217779   4.700979   3.547356
    11  C    4.941149   4.323057   4.986505   2.794506   2.413352
    12  C    4.188204   3.835029   4.802293   2.441585   2.809854
    13  C    5.153956   5.045605   6.132963   3.806051   4.299484
    14  C    6.244772   6.202317   7.188200   4.895608   5.172640
    15  N    7.307475   7.377656   8.429406   6.147750   6.508913
    16  C    7.444682   7.583444   8.756284   6.499772   7.066983
    17  C    6.611302   6.734553   7.984349   5.795097   6.536043
    18  C    7.301519   7.492467   8.802048   6.763898   7.639759
    19  C    5.396797   5.398758   6.632937   4.417563   5.172934
    20  C    2.834079   2.535010   3.646714   1.399684   2.413198
    21  F    2.166319   1.332225   2.163629   2.330145   3.301537
    22  H    3.860542   2.748775   2.445581   2.151887   1.082413
    23  H    5.995406   5.404522   6.040857   3.875954   3.390744
    24  H    6.467304   6.367356   7.197791   4.986479   5.020705
    25  H    8.428391   8.622502   9.808698   7.570583   8.145922
    26  H    8.373308   8.534285   9.834082   7.737184   8.530422
    27  H    7.159886   7.233583   8.547965   6.583432   7.470170
    28  H    7.166470   7.542923   8.863186   6.980175   7.989894
    29  H    4.909674   4.869686   6.157506   4.093780   5.003988
    30  H    2.593597   2.715423   3.984741   2.146061   3.390697
                    6          7          8          9         10
     6  C    0.000000
     7  C    1.528647   0.000000
     8  F    2.330255   1.332126   0.000000
     9  F    2.375374   1.334183   2.163579   0.000000
    10  F    2.353577   1.333541   2.166412   2.161889   0.000000
    11  C    1.399715   2.534992   3.070352   3.647258   2.835188
    12  C    2.441584   3.835050   4.348326   4.802677   4.188733
    13  C    3.806477   5.046310   5.436434   6.134084   5.156050
    14  C    4.417921   5.399891   5.509393   6.634093   5.401033
    15  N    5.757834   6.686974   6.759235   7.941351   6.568905
    16  C    6.478704   7.545663   7.787479   8.730126   7.405758
    17  C    6.160808   7.382753   7.823475   8.444501   7.309715
    18  C    7.406370   8.671176   9.214696   9.651806   8.568782
    19  C    4.896576   6.203533   6.734906   7.190187   6.246701
    20  C    2.794365   4.322915   4.918882   4.986306   4.940310
    21  F    4.511032   5.746711   6.605234   5.690575   6.503907
    22  H    2.151898   2.748744   3.471128   2.444206   3.858115
    23  H    2.145811   2.714730   3.063501   3.984924   2.595366
    24  H    4.111138   4.886587   4.776245   6.174387   4.929299
    25  H    7.533086   8.553537   8.752959   9.759319   8.354773
    26  H    8.178125   9.354540   9.869808  10.385018   9.133187
    27  H    7.320585   8.588322   9.275631   9.468628   8.451811
    28  H    7.895465   9.242068   9.734047  10.195879   9.271185
    29  H    4.971436   6.353243   7.039391   7.184189   6.454924
    30  H    3.875625   5.404191   5.968205   6.040555   5.994078
                   11         12         13         14         15
    11  C    0.000000
    12  C    1.400212   0.000000
    13  C    2.513682   1.489630   0.000000
    14  C    3.052755   2.523740   1.402693   0.000000
    15  N    4.377188   3.789449   2.432911   1.356750   0.000000
    16  C    5.104749   4.257376   2.768100   2.323022   1.355426
    17  C    4.878107   3.805034   2.430873   2.747660   2.417241
    18  C    6.198405   5.060656   3.827032   4.264644   3.799272
    19  C    3.705346   2.524613   1.403323   2.392509   2.794792
    20  C    2.404759   1.400104   2.513003   3.703905   4.873454
    21  F    4.918501   4.349431   5.437616   6.735386   7.833067
    22  H    3.394925   3.892266   5.381896   6.230771   7.574119
    23  H    1.081521   2.149148   2.716606   2.809972   4.025933
    24  H    2.848629   2.759796   2.167567   1.080371   2.063672
    25  H    6.149498   5.336782   3.847979   3.283191   2.071080
    26  H    6.911565   5.883184   4.559073   4.751193   4.024907
    27  H    6.214459   5.098515   4.073371   4.770777   4.528626
    28  H    6.736773   5.485564   4.312866   4.768652   4.306644
    29  H    3.985648   2.745467   2.158810   3.382551   3.875190
    30  H    3.386062   2.148347   2.714574   3.960238   4.932799
                   16         17         18         19         20
    16  C    0.000000
    17  C    1.396630   0.000000
    18  C    2.536004   1.517372   0.000000
    19  C    2.398172   1.398201   2.536493   0.000000
    20  C    5.131163   4.412687   5.423728   3.052403   0.000000
    21  F    7.849020   6.822979   7.362493   5.510935   3.072328
    22  H    8.149345   7.603441   8.671650   6.231004   3.394836
    23  H    4.903628   4.923187   6.309064   3.962964   3.386562
    24  H    3.277154   3.826733   5.343199   3.388077   3.998753
    25  H    1.080618   2.162896   2.760743   3.390673   6.194871
    26  H    2.688843   2.164692   1.090745   3.392391   6.389696
    27  H    3.375347   2.161269   1.090725   2.700089   5.336831
    28  H    3.076390   2.158212   1.090404   3.044730   5.649949
    29  H    3.379576   2.146682   2.731845   1.080529   2.831428
    30  H    4.951337   4.070584   4.883383   2.807623   1.081322
                   21         22         23         24         25
    21  F    0.000000
    22  H    3.467743   0.000000
    23  H    5.967787   4.284807   0.000000
    24  H    7.054670   6.016359   2.425943   0.000000
    25  H    8.862807   9.228175   5.876658   4.129204   0.000000
    26  H    8.401104   9.574971   6.878212   5.799572   2.514592
    27  H    6.921712   8.455761   6.401845   5.840419   3.718538
    28  H    7.438672   9.002885   6.952338   5.824900   3.214918
    29  H    4.764365   5.999627   4.443386   4.302325   4.291486
    30  H    3.067662   4.284974   4.282274   4.452999   5.959636
                   26         27         28         29         30
    26  H    0.000000
    27  H    1.748524   0.000000
    28  H    1.774306   1.771714   0.000000
    29  H    3.712412   2.507584   3.135082   0.000000
    30  H    5.919333   4.801756   4.940548   2.408536   0.000000
 Stoichiometry    C14H9F6N
 Framework group  C1[X(C14H9F6N)]
 Deg. of freedom    84
 Full point group                 C1      NOp   1
 Largest Abelian subgroup         C1      NOp   1
 Largest concise Abelian subgroup C1      NOp   1
                         Standard orientation:                         
 ---------------------------------------------------------------------
 Center     Atomic      Atomic             Coordinates (Angstroms)
 Number     Number       Type             X           Y           Z
 ---------------------------------------------------------------------
      1          9           0        1.233740    3.429753   -1.094114
      2          6           0        1.870298    2.721692   -0.160325
      3          9           0        3.174072    2.732855   -0.443171
      4          6           0        1.311835    1.300259   -0.093964
      5          6           0        2.162029    0.195934    0.035582
      6          6           0        1.642318   -1.102594    0.091527
      7          6           0        2.562467   -2.314408    0.238476
      8          9           0        2.673616   -2.917541   -0.944079
      9          9           0        3.782405   -1.967362    0.652424
     10          9           0        2.054502   -3.181450    1.115141
     11          6           0        0.256645   -1.285067    0.015262
     12          6           0       -0.616072   -0.197774   -0.114166
     13          6           0       -2.088980   -0.405792   -0.193342
     14          6           0       -2.640806   -1.464921   -0.929061
     15          7           0       -3.973817   -1.696308   -1.030608
     16          6           0       -4.814162   -0.852811   -0.382910
     17          6           0       -4.365295    0.233850    0.370921
     18          6           0       -5.345040    1.139469    1.093675
     19          6           0       -2.986911    0.449172    0.463980
     20          6           0       -0.070098    1.090406   -0.167038
     21          9           0        1.689388    3.311510    1.020441
     22          1           0        3.232222    0.347532    0.093221
     23          1           0       -0.146986   -2.286866    0.071544
     24          1           0       -2.010804   -2.151783   -1.475430
     25          1           0       -5.868852   -1.066436   -0.481542
     26          1           0       -6.255090    0.600800    1.360826
     27          1           0       -4.917237    1.508667    2.026604
     28          1           0       -5.610883    1.993553    0.470098
     29          1           0       -2.616709    1.273038    1.057054
     30          1           0       -0.727826    1.941277   -0.279594
 ---------------------------------------------------------------------
 Rotational constants (GHZ):           0.3379943           0.1935432           0.1329233
 Standard basis: 6-31G(d,p) (6D, 7F)
 There are   360 symmetry adapted cartesian basis functions of A   symmetry.
 There are   360 symmetry adapted basis functions of A   symmetry.
   360 basis functions,   651 primitive gaussians,   360 cartesian basis functions
    77 alpha electrons       77 beta electrons
       nuclear repulsion energy      1665.0863946743 Hartrees.
 NAtoms=   30 NActive=   30 NUniq=   30 SFac= 1.00D+00 NAtFMM=   60 NAOKFM=F Big=F
 Integral buffers will be    131072 words long.
 Raffenetti 2 integral format.
 Two-electron integral symmetry is turned on.
 Nuclear repulsion after empirical dispersion term =     1665.0243860292 Hartrees.
 One-electron integrals computed using PRISM.
 NBasis=   360 RedAO= T EigKep=  3.74D-04  NBF=   360
 NBsUse=   360 1.00D-06 EigRej= -1.00D+00 NBFU=   360
 ExpMin= 1.61D-01 ExpMax= 7.00D+03 ExpMxC= 1.05D+03 IAcc=3 IRadAn=         5 AccDes= 0.00D+00
 Harris functional with IExCor=  402 and IRadAn=       5 diagonalized for initial guess.
 HarFok:  IExCor=  402 AccDes= 0.00D+00 IRadAn=         5 IDoV= 1 UseB2=F ITyADJ=14
 ICtDFT=  3500011 ScaDFX=  1.000000  1.000000  1.000000  1.000000
 FoFCou: FMM=F IPFlag=           0 FMFlag=      100000 FMFlg1=           0
         NFxFlg=           0 DoJE=T BraDBF=F KetDBF=T FulRan=T
         wScrn=  0.000000 ICntrl=       500 IOpCl=  0 I1Cent=   200000004 NGrid=           0
         NMat0=    1 NMatS0=      1 NMatT0=    0 NMatD0=    1 NMtDS0=    0 NMtDT0=    0
 Petite list used in FoFCou.
 Requested convergence on RMS density matrix=1.00D-08 within 128 cycles.
 Requested convergence on MAX density matrix=1.00D-06.
 Requested convergence on             energy=1.00D-06.
 No special actions if energy rises.
 Integral accuracy reduced to 1.0D-05 until final iterations.
 Initial convergence to 1.0D-05 achieved.  Increase integral accuracy.
 SCF Done:  E(RB3LYP) =  -1192.80413373     A.U. after   14 cycles
            NFock= 14  Conv=0.55D-08     -V/T= 2.0081

 **********************************************************************

            Population analysis using the SCF Density.

 **********************************************************************

 Orbital symmetries:
       Occupied  (A) (A) (A) (A) (A) (A) (A) (A) (A) (A) (A) (A)
                 (A) (A) (A) (A) (A) (A) (A) (A) (A) (A) (A) (A)
                 (A) (A) (A) (A) (A) (A) (A) (A) (A) (A) (A) (A)
                 (A) (A) (A) (A) (A) (A) (A) (A) (A) (A) (A) (A)
                 (A) (A) (A) (A) (A) (A) (A) (A) (A) (A) (A) (A)
                 (A) (A) (A) (A) (A) (A) (A) (A) (A) (A) (A) (A)
                 (A) (A) (A) (A) (A)
       Virtual   (A) (A) (A) (A) (A) (A) (A) (A) (A) (A) (A) (A)
                 (A) (A) (A) (A) (A) (A) (A) (A) (A) (A) (A) (A)
                 (A) (A) (A) (A) (A) (A) (A) (A) (A) (A) (A) (A)
                 (A) (A) (A) (A) (A) (A) (A) (A) (A) (A) (A) (A)
                 (A) (A) (A) (A) (A) (A) (A) (A) (A) (A) (A) (A)
                 (A) (A) (A) (A) (A) (A) (A) (A) (A) (A) (A) (A)
                 (A) (A) (A) (A) (A) (A) (A) (A) (A) (A) (A) (A)
                 (A) (A) (A) (A) (A) (A) (A) (A) (A) (A) (A) (A)
                 (A) (A) (A) (A) (A) (A) (A) (A) (A) (A) (A) (A)
                 (A) (A) (A) (A) (A) (A) (A) (A) (A) (A) (A) (A)
                 (A) (A) (A) (A) (A) (A) (A) (A) (A) (A) (A) (A)
                 (A) (A) (A) (A) (A) (A) (A) (A) (A) (A) (A) (A)
                 (A) (A) (A) (A) (A) (A) (A) (A) (A) (A) (A) (A)
                 (A) (A) (A) (A) (A) (A) (A) (A) (A) (A) (A) (A)
                 (A) (A) (A) (A) (A) (A) (A) (A) (A) (A) (A) (A)
                 (A) (A) (A) (A) (A) (A) (A) (A) (A) (A) (A) (A)
                 (A) (A) (A) (A) (A) (A) (A) (A) (A) (A) (A) (A)
                 (A) (A) (A) (A) (A) (A) (A) (A) (A) (A) (A) (A)
                 (A) (A) (A) (A) (A) (A) (A) (A) (A) (A) (A) (A)
                 (A) (A) (A) (A) (A) (A) (A) (A) (A) (A) (A) (A)
                 (A) (A) (A) (A) (A) (A) (A) (A) (A) (A) (A) (A)
                 (A) (A) (A) (A) (A) (A) (A) (A) (A) (A) (A) (A)
                 (A) (A) (A) (A) (A) (A) (A) (A) (A) (A) (A) (A)
                 (A) (A) (A) (A) (A) (A) (A)
 The electronic state is 1-A.
 Alpha  occ. eigenvalues --  -24.73867 -24.73785 -24.73656 -24.73537 -24.73303
 Alpha  occ. eigenvalues --  -24.73165 -14.34014 -10.44373 -10.44277 -10.23259
 Alpha  occ. eigenvalues --  -10.23222 -10.23139 -10.23117 -10.22876 -10.22511
 Alpha  occ. eigenvalues --  -10.22364 -10.22306 -10.22185 -10.21712 -10.21580
 Alpha  occ. eigenvalues --  -10.19908  -1.32208  -1.32098  -1.23303  -1.23204
 Alpha  occ. eigenvalues --   -1.23107  -1.22979  -0.94032  -0.89562  -0.83076
 Alpha  occ. eigenvalues --   -0.81052  -0.80751  -0.76072  -0.71424  -0.71241
 Alpha  occ. eigenvalues --   -0.70460  -0.65887  -0.64714  -0.63026  -0.61778
 Alpha  occ. eigenvalues --   -0.59810  -0.59673  -0.59554  -0.59426  -0.57321
 Alpha  occ. eigenvalues --   -0.53968  -0.52979  -0.51684  -0.50486  -0.48134
 Alpha  occ. eigenvalues --   -0.47227  -0.47106  -0.46929  -0.46539  -0.46406
 Alpha  occ. eigenvalues --   -0.44024  -0.43818  -0.43426  -0.43132  -0.42728
 Alpha  occ. eigenvalues --   -0.42621  -0.41757  -0.41156  -0.41056  -0.40815
 Alpha  occ. eigenvalues --   -0.40686  -0.40119  -0.39853  -0.38568  -0.38266
 Alpha  occ. eigenvalues --   -0.36480  -0.35889  -0.30761  -0.28294  -0.27745
 Alpha  occ. eigenvalues --   -0.26097  -0.25092
 Alpha virt. eigenvalues --   -0.05454  -0.04628  -0.03231  -0.00107   0.09038
 Alpha virt. eigenvalues --    0.09786   0.10469   0.11804   0.12362   0.13430
 Alpha virt. eigenvalues --    0.13746   0.14009   0.15358   0.15918   0.16518
 Alpha virt. eigenvalues --    0.17635   0.18485   0.20545   0.20877   0.21715
 Alpha virt. eigenvalues --    0.22279   0.22647   0.23487   0.24175   0.26732
 Alpha virt. eigenvalues --    0.26993   0.27931   0.28672   0.31301   0.33513
 Alpha virt. eigenvalues --    0.35775   0.36905   0.39918   0.41694   0.42575
 Alpha virt. eigenvalues --    0.44772   0.45696   0.46728   0.46941   0.49905
 Alpha virt. eigenvalues --    0.50123   0.51197   0.52134   0.52725   0.53020
 Alpha virt. eigenvalues --    0.53734   0.54584   0.55537   0.56706   0.56931
 Alpha virt. eigenvalues --    0.57206   0.58866   0.59147   0.60020   0.60727
 Alpha virt. eigenvalues --    0.61283   0.62274   0.63372   0.65383   0.65702
 Alpha virt. eigenvalues --    0.66906   0.69051   0.69877   0.70683   0.71642
 Alpha virt. eigenvalues --    0.73020   0.73937   0.75707   0.77068   0.77710
 Alpha virt. eigenvalues --    0.79086   0.79760   0.80455   0.81915   0.83901
 Alpha virt. eigenvalues --    0.85565   0.86356   0.87211   0.87226   0.88509
 Alpha virt. eigenvalues --    0.90775   0.91697   0.92294   0.92738   0.93615
 Alpha virt. eigenvalues --    0.96483   0.98096   1.01183   1.04193   1.05989
 Alpha virt. eigenvalues --    1.06453   1.07190   1.08161   1.08178   1.09383
 Alpha virt. eigenvalues --    1.10138   1.11746   1.12022   1.12822   1.13765
 Alpha virt. eigenvalues --    1.13831   1.15275   1.17038   1.18513   1.19720
 Alpha virt. eigenvalues --    1.21616   1.22004   1.26639   1.28355   1.29718
 Alpha virt. eigenvalues --    1.31747   1.32038   1.32409   1.32524   1.33560
 Alpha virt. eigenvalues --    1.34180   1.35447   1.36324   1.36837   1.36890
 Alpha virt. eigenvalues --    1.37212   1.37885   1.37979   1.38703   1.38975
 Alpha virt. eigenvalues --    1.39651   1.41217   1.42182   1.44439   1.46321
 Alpha virt. eigenvalues --    1.47989   1.50250   1.51422   1.56353   1.60267
 Alpha virt. eigenvalues --    1.61845   1.64266   1.65095   1.66369   1.67201
 Alpha virt. eigenvalues --    1.68289   1.69604   1.69831   1.70977   1.73067
 Alpha virt. eigenvalues --    1.74160   1.74685   1.75312   1.75992   1.76478
 Alpha virt. eigenvalues --    1.78406   1.79929   1.82005   1.82607   1.83256
 Alpha virt. eigenvalues --    1.83977   1.84369   1.85817   1.86359   1.87338
 Alpha virt. eigenvalues --    1.89577   1.93960   1.94828   1.95291   1.96712
 Alpha virt. eigenvalues --    1.96759   1.97147   1.98812   1.99039   1.99109
 Alpha virt. eigenvalues --    2.00195   2.00318   2.01105   2.01454   2.03178
 Alpha virt. eigenvalues --    2.03367   2.04609   2.05599   2.06033   2.06154
 Alpha virt. eigenvalues --    2.06712   2.06984   2.07421   2.08926   2.09749
 Alpha virt. eigenvalues --    2.09965   2.11406   2.13577   2.14022   2.14372
 Alpha virt. eigenvalues --    2.16547   2.18929   2.21748   2.23159   2.25517
 Alpha virt. eigenvalues --    2.26119   2.28728   2.30358   2.31994   2.33052
 Alpha virt. eigenvalues --    2.35285   2.37263   2.39038   2.40092   2.40696
 Alpha virt. eigenvalues --    2.41881   2.42423   2.44810   2.47197   2.47491
 Alpha virt. eigenvalues --    2.48684   2.52062   2.53223   2.54479   2.55946
 Alpha virt. eigenvalues --    2.56935   2.57655   2.60736   2.61845   2.62646
 Alpha virt. eigenvalues --    2.64074   2.65110   2.65822   2.68011   2.68306
 Alpha virt. eigenvalues --    2.68881   2.70674   2.72486   2.73441   2.76571
 Alpha virt. eigenvalues --    2.77381   2.79369   2.80688   2.83551   2.84463
 Alpha virt. eigenvalues --    2.85995   2.87227   2.88237   2.91381   2.97000
 Alpha virt. eigenvalues --    2.99536   3.02192   3.03214   3.04007   3.05097
 Alpha virt. eigenvalues --    3.06422   3.07243   3.08801   3.11940   3.17641
 Alpha virt. eigenvalues --    3.18188   3.19034   3.20747   3.32502   3.37590
 Alpha virt. eigenvalues --    3.38418   3.38897   3.41175   3.42965   3.45194
 Alpha virt. eigenvalues --    3.65854   3.74219   4.07962   4.08465   4.09376
 Alpha virt. eigenvalues --    4.10447   4.14214   4.20242   4.27091   4.28566
 Alpha virt. eigenvalues --    4.31341   4.36098   4.42804   4.43450   4.46313
 Alpha virt. eigenvalues --    4.52363   4.53571   4.64674   4.72819   4.80497
 Alpha virt. eigenvalues --    4.87592   5.46746   5.67730
          Condensed to atoms (all electrons):
               1          2          3          4          5          6
     1  F    9.087544   0.287946  -0.038262  -0.054900   0.002252  -0.000039
     2  C    0.287946   4.079152   0.294627   0.296327  -0.026088   0.004256
     3  F   -0.038262   0.294627   9.073978  -0.049192   0.004116   0.000806
     4  C   -0.054900   0.296327  -0.049192   5.174410   0.453722  -0.020206
     5  C    0.002252  -0.026088   0.004116   0.453722   5.054703   0.454264
     6  C   -0.000039   0.004256   0.000806  -0.020206   0.454264   5.176057
     7  C    0.000000  -0.000080  -0.000004   0.004253  -0.026016   0.296076
     8  F   -0.000000   0.000000   0.000000  -0.000033  -0.000038  -0.055935
     9  F    0.000000  -0.000004   0.000000   0.000810   0.004145  -0.049178
    10  F   -0.000000   0.000000   0.000000  -0.000039   0.002237  -0.054864
    11  C   -0.000001   0.000469  -0.000001  -0.037331  -0.068970   0.438869
    12  C    0.000644   0.003225  -0.000035  -0.015404  -0.031004  -0.015896
    13  C   -0.000006  -0.000138   0.000000   0.006141   0.001258   0.006124
    14  C   -0.000000   0.000000   0.000000  -0.000165   0.000009   0.000318
    15  N    0.000000  -0.000000   0.000000   0.000000  -0.000000  -0.000002
    16  C    0.000000   0.000000  -0.000000  -0.000000   0.000000  -0.000000
    17  C    0.000000  -0.000000   0.000000  -0.000002  -0.000000   0.000001
    18  C   -0.000000  -0.000000  -0.000000   0.000000   0.000000  -0.000000
    19  C    0.000001  -0.000001  -0.000000   0.000378   0.000006  -0.000174
    20  C    0.005315  -0.018066   0.003035   0.441431  -0.068945  -0.036879
    21  F   -0.039053   0.290997  -0.039240  -0.055988  -0.000031  -0.000032
    22  H    0.000125  -0.006357   0.008369  -0.040746   0.367148  -0.040572
    23  H   -0.000000   0.000006  -0.000000   0.000275   0.004990  -0.046886
    24  H   -0.000000   0.000000  -0.000000  -0.000003  -0.000002  -0.000081
    25  H    0.000000  -0.000000   0.000000   0.000000   0.000000   0.000000
    26  H    0.000000  -0.000000   0.000000   0.000000   0.000000   0.000000
    27  H    0.000000   0.000000  -0.000000  -0.000000   0.000000   0.000000
    28  H   -0.000000   0.000000  -0.000000  -0.000000  -0.000000  -0.000000
    29  H   -0.000001  -0.000004  -0.000000  -0.000041  -0.000004  -0.000004
    30  H    0.005089  -0.003989   0.000088  -0.047678   0.005055   0.000261
               7          8          9         10         11         12
     1  F    0.000000  -0.000000   0.000000  -0.000000  -0.000001   0.000644
     2  C   -0.000080   0.000000  -0.000004   0.000000   0.000469   0.003225
     3  F   -0.000004   0.000000   0.000000   0.000000  -0.000001  -0.000035
     4  C    0.004253  -0.000033   0.000810  -0.000039  -0.037331  -0.015404
     5  C   -0.026016  -0.000038   0.004145   0.002237  -0.068970  -0.031004
     6  C    0.296076  -0.055935  -0.049178  -0.054864   0.438869  -0.015896
     7  C    4.077716   0.291580   0.294420   0.288100  -0.017865   0.003182
     8  F    0.291580   9.090495  -0.039250  -0.039040   0.001360   0.000090
     9  F    0.294420  -0.039250   9.074509  -0.038276   0.003031  -0.000035
    10  F    0.288100  -0.039040  -0.038276   9.087149   0.005289   0.000640
    11  C   -0.017865   0.001360   0.003031   0.005289   5.045285   0.478435
    12  C    0.003182   0.000090  -0.000035   0.000640   0.478435   4.909861
    13  C   -0.000138   0.000001   0.000000  -0.000006  -0.040832   0.283228
    14  C   -0.000001  -0.000000  -0.000000   0.000001  -0.010164  -0.032214
    15  N   -0.000000  -0.000000   0.000000   0.000000   0.000021   0.006171
    16  C    0.000000   0.000000   0.000000  -0.000000   0.000015   0.000975
    17  C    0.000000  -0.000000   0.000000   0.000000  -0.000183   0.007438
    18  C    0.000000  -0.000000  -0.000000   0.000000   0.000001  -0.000132
    19  C    0.000000   0.000000   0.000000  -0.000000   0.005045  -0.049963
    20  C    0.000477  -0.000007  -0.000001  -0.000001  -0.057230   0.477489
    21  F    0.000000   0.000000   0.000000  -0.000000  -0.000007   0.000088
    22  H   -0.006369   0.000195   0.008431   0.000126   0.005046   0.000358
    23  H   -0.003862   0.000546   0.000087   0.005008   0.365019  -0.036015
    24  H   -0.000003  -0.000000  -0.000000  -0.000001   0.003862  -0.002509
    25  H   -0.000000   0.000000   0.000000  -0.000000  -0.000000   0.000016
    26  H   -0.000000   0.000000   0.000000  -0.000000  -0.000000   0.000003
    27  H   -0.000000   0.000000   0.000000   0.000000   0.000000  -0.000013
    28  H    0.000000   0.000000   0.000000  -0.000000  -0.000000   0.000006
    29  H    0.000000  -0.000000  -0.000000  -0.000000   0.000109  -0.009790
    30  H    0.000006  -0.000000  -0.000000  -0.000000   0.006325  -0.037033
              13         14         15         16         17         18
     1  F   -0.000006  -0.000000   0.000000   0.000000   0.000000  -0.000000
     2  C   -0.000138   0.000000  -0.000000   0.000000  -0.000000  -0.000000
     3  F    0.000000   0.000000   0.000000  -0.000000   0.000000  -0.000000
     4  C    0.006141  -0.000165   0.000000  -0.000000  -0.000002   0.000000
     5  C    0.001258   0.000009  -0.000000   0.000000  -0.000000   0.000000
     6  C    0.006124   0.000318  -0.000002  -0.000000   0.000001  -0.000000
     7  C   -0.000138  -0.000001  -0.000000   0.000000   0.000000   0.000000
     8  F    0.000001  -0.000000  -0.000000   0.000000  -0.000000  -0.000000
     9  F    0.000000  -0.000000   0.000000   0.000000   0.000000  -0.000000
    10  F   -0.000006   0.000001   0.000000  -0.000000   0.000000   0.000000
    11  C   -0.040832  -0.010164   0.000021   0.000015  -0.000183   0.000001
    12  C    0.283228  -0.032214   0.006171   0.000975   0.007438  -0.000132
    13  C    4.959911   0.466203  -0.006294  -0.034236  -0.011998   0.007122
    14  C    0.466203   4.838356   0.437816  -0.079561  -0.034277   0.000450
    15  N   -0.006294   0.437816   6.733862   0.438300  -0.010311   0.005902
    16  C   -0.034236  -0.079561   0.438300   4.802760   0.496175  -0.049639
    17  C   -0.011998  -0.034277  -0.010311   0.496175   4.799961   0.338738
    18  C    0.007122   0.000450   0.005902  -0.049639   0.338738   5.024558
    19  C    0.491282  -0.057359  -0.065547  -0.038217   0.511552  -0.058775
    20  C   -0.041092   0.004345  -0.000088  -0.000008   0.000153  -0.000001
    21  F    0.000001   0.000000  -0.000000  -0.000000  -0.000000   0.000000
    22  H    0.000004   0.000000   0.000000  -0.000000   0.000000  -0.000000
    23  H   -0.008388   0.004484  -0.000074  -0.000005  -0.000008   0.000000
    24  H   -0.065465   0.386352  -0.046450   0.004541   0.000583   0.000016
    25  H    0.000599   0.004622  -0.049384   0.388568  -0.064525  -0.003873
    26  H   -0.000148  -0.000004   0.000083  -0.003708  -0.028609   0.378949
    27  H    0.000016   0.000030  -0.000148   0.002464  -0.027928   0.376471
    28  H   -0.000226   0.000031  -0.000102  -0.001380  -0.025749   0.374285
    29  H   -0.048779   0.005558  -0.000513   0.005613  -0.045772  -0.009650
    30  H   -0.008640   0.000114  -0.000008   0.000001  -0.000113   0.000005
              19         20         21         22         23         24
     1  F    0.000001   0.005315  -0.039053   0.000125  -0.000000  -0.000000
     2  C   -0.000001  -0.018066   0.290997  -0.006357   0.000006   0.000000
     3  F   -0.000000   0.003035  -0.039240   0.008369  -0.000000  -0.000000
     4  C    0.000378   0.441431  -0.055988  -0.040746   0.000275  -0.000003
     5  C    0.000006  -0.068945  -0.000031   0.367148   0.004990  -0.000002
     6  C   -0.000174  -0.036879  -0.000032  -0.040572  -0.046886  -0.000081
     7  C    0.000000   0.000477   0.000000  -0.006369  -0.003862  -0.000003
     8  F    0.000000  -0.000007   0.000000   0.000195   0.000546  -0.000000
     9  F    0.000000  -0.000001   0.000000   0.008431   0.000087  -0.000000
    10  F   -0.000000  -0.000001  -0.000000   0.000126   0.005008  -0.000001
    11  C    0.005045  -0.057230  -0.000007   0.005046   0.365019   0.003862
    12  C   -0.049963   0.477489   0.000088   0.000358  -0.036015  -0.002509
    13  C    0.491282  -0.041092   0.000001   0.000004  -0.008388  -0.065465
    14  C   -0.057359   0.004345   0.000000   0.000000   0.004484   0.386352
    15  N   -0.065547  -0.000088  -0.000000   0.000000  -0.000074  -0.046450
    16  C   -0.038217  -0.000008  -0.000000  -0.000000  -0.000005   0.004541
    17  C    0.511552   0.000153  -0.000000   0.000000  -0.000008   0.000583
    18  C   -0.058775  -0.000001   0.000000  -0.000000   0.000000   0.000016
    19  C    4.998745  -0.010690  -0.000000   0.000000   0.000084   0.003792
    20  C   -0.010690   5.044278   0.001322   0.005044   0.006226   0.000033
    21  F   -0.000000   0.001322   9.092159   0.000195  -0.000000  -0.000000
    22  H    0.000000   0.005044   0.000195   0.576576  -0.000163  -0.000000
    23  H    0.000084   0.006226  -0.000000  -0.000163   0.590796   0.002149
    24  H    0.003792   0.000033  -0.000000  -0.000000   0.002149   0.607046
    25  H    0.003923  -0.000000  -0.000000  -0.000000  -0.000000  -0.000198
    26  H    0.002827   0.000000  -0.000000   0.000000   0.000000  -0.000000
    27  H   -0.003748  -0.000001  -0.000000   0.000000   0.000000  -0.000000
    28  H   -0.002096  -0.000001   0.000000  -0.000000  -0.000000  -0.000000
    29  H    0.371382   0.004411  -0.000001  -0.000000   0.000001  -0.000184
    30  H    0.004549   0.364399   0.000543  -0.000164  -0.000160   0.000004
              25         26         27         28         29         30
     1  F    0.000000   0.000000   0.000000  -0.000000  -0.000001   0.005089
     2  C   -0.000000  -0.000000   0.000000   0.000000  -0.000004  -0.003989
     3  F    0.000000   0.000000  -0.000000  -0.000000  -0.000000   0.000088
     4  C    0.000000   0.000000  -0.000000  -0.000000  -0.000041  -0.047678
     5  C    0.000000   0.000000   0.000000  -0.000000  -0.000004   0.005055
     6  C    0.000000   0.000000   0.000000  -0.000000  -0.000004   0.000261
     7  C   -0.000000  -0.000000  -0.000000   0.000000   0.000000   0.000006
     8  F    0.000000   0.000000   0.000000   0.000000  -0.000000  -0.000000
     9  F    0.000000   0.000000   0.000000   0.000000  -0.000000  -0.000000
    10  F   -0.000000  -0.000000   0.000000  -0.000000  -0.000000  -0.000000
    11  C   -0.000000  -0.000000   0.000000  -0.000000   0.000109   0.006325
    12  C    0.000016   0.000003  -0.000013   0.000006  -0.009790  -0.037033
    13  C    0.000599  -0.000148   0.000016  -0.000226  -0.048779  -0.008640
    14  C    0.004622  -0.000004   0.000030   0.000031   0.005558   0.000114
    15  N   -0.049384   0.000083  -0.000148  -0.000102  -0.000513  -0.000008
    16  C    0.388568  -0.003708   0.002464  -0.001380   0.005613   0.000001
    17  C   -0.064525  -0.028609  -0.027928  -0.025749  -0.045772  -0.000113
    18  C   -0.003873   0.378949   0.376471   0.374285  -0.009650   0.000005
    19  C    0.003923   0.002827  -0.003748  -0.002096   0.371382   0.004549
    20  C   -0.000000   0.000000  -0.000001  -0.000001   0.004411   0.364399
    21  F   -0.000000  -0.000000  -0.000000   0.000000  -0.000001   0.000543
    22  H   -0.000000   0.000000   0.000000  -0.000000  -0.000000  -0.000164
    23  H   -0.000000   0.000000   0.000000  -0.000000   0.000001  -0.000160
    24  H   -0.000198  -0.000000  -0.000000  -0.000000  -0.000184   0.000004
    25  H    0.613464   0.004388  -0.000051   0.000414  -0.000182  -0.000000
    26  H    0.004388   0.580473  -0.029929  -0.027913   0.000005   0.000000
    27  H   -0.000051  -0.029929   0.585520  -0.028849   0.004428   0.000001
    28  H    0.000414  -0.027913  -0.028849   0.575375   0.000757  -0.000003
    29  H   -0.000182   0.000005   0.004428   0.000757   0.623954   0.002313
    30  H   -0.000000   0.000000   0.000001  -0.000003   0.002313   0.598620
 Mulliken charges:
               1
     1  F   -0.256654
     2  C    0.797722
     3  F   -0.258287
     4  C   -0.056020
     5  C   -0.132806
     6  C   -0.056283
     7  C    0.798528
     8  F   -0.249964
     9  F   -0.258688
    10  F   -0.256324
    11  C   -0.125596
    12  C    0.058196
    13  C    0.044497
    14  C    0.065056
    15  N   -0.443236
    16  C    0.067343
    17  C    0.094875
    18  C   -0.384428
    19  C   -0.106997
    20  C   -0.124949
    21  F   -0.250952
    22  H    0.122757
    23  H    0.115889
    24  H    0.106520
    25  H    0.102219
    26  H    0.123585
    27  H    0.121738
    28  H    0.135451
    29  H    0.096394
    30  H    0.110415
 Sum of Mulliken charges =  -0.00000
 Mulliken charges with hydrogens summed into heavy atoms:
               1
     1  F   -0.256654
     2  C    0.797722
     3  F   -0.258287
     4  C   -0.056020
     5  C   -0.010049
     6  C   -0.056283
     7  C    0.798528
     8  F   -0.249964
     9  F   -0.258688
    10  F   -0.256324
    11  C   -0.009707
    12  C    0.058196
    13  C    0.044497
    14  C    0.171576
    15  N   -0.443236
    16  C    0.169562
    17  C    0.094875
    18  C   -0.003654
    19  C   -0.010603
    20  C   -0.014534
    21  F   -0.250952
 Electronic spatial extent (au):  <R**2>=           7481.5666
 Charge=              0.0000 electrons
 Dipole moment (field-independent basis, Debye):
    X=             -1.8879    Y=              1.5791    Z=              1.2394  Tot=              2.7557
 Quadrupole moment (field-independent basis, Debye-Ang):
   XX=           -110.4218   YY=           -122.4776   ZZ=           -117.5453
   XY=             -8.0750   XZ=             -6.5082   YZ=             -0.2414
 Traceless Quadrupole moment (field-independent basis, Debye-Ang):
   XX=              6.3931   YY=             -5.6627   ZZ=             -0.7304
   XY=             -8.0750   XZ=             -6.5082   YZ=             -0.2414
 Octapole moment (field-independent basis, Debye-Ang**2):
  XXX=             38.8598  YYY=             12.2241  ZZZ=              6.0395  XYY=             26.9872
  XXY=             45.3758  XXZ=             30.4566  XZZ=             38.2231  YZZ=              7.4543
  YYZ=              4.8210  XYZ=              6.0977
 Hexadecapole moment (field-independent basis, Debye-Ang**3):
 XXXX=          -5426.0063 YYYY=          -2635.9689 ZZZZ=           -404.6906 XXXY=           -146.1613
 XXXZ=           -121.0682 YYYX=            -76.6042 YYYZ=            -30.8087 ZZZX=             -8.9367
 ZZZY=            -26.8908 XXYY=          -1502.2695 XXZZ=          -1076.2625 YYZZ=           -512.0593
 XXYZ=            -37.7406 YYXZ=            -21.8701 ZZXY=            -27.3174
 N-N= 1.665024386029D+03 E-N=-6.132716338427D+03  KE= 1.183262456732D+03
 Calling FoFJK, ICntrl=      2127 FMM=F ISym2X=0 I1Cent= 0 IOpClX= 0 NMat=1 NMatS=1 NMatT=0.
 ***** Axes restored to original set *****
 -------------------------------------------------------------------
 Center     Atomic                   Forces (Hartrees/Bohr)
 Number     Number              X              Y              Z
 -------------------------------------------------------------------
      1        9          -0.011639259    0.007863481   -0.003177298
      2        6           0.015789465   -0.026401889   -0.019432175
      3        9           0.006942204    0.008184616    0.004420035
      4        6           0.005071745   -0.001161957   -0.007445680
      5        6           0.002432595    0.002107090    0.001982083
      6        6          -0.007134602   -0.000246846    0.005894169
      7        6          -0.035116196    0.007728829    0.001822094
      8        9           0.012781849    0.002648523   -0.013042101
      9        9           0.007039038    0.005131456    0.007881923
     10        9           0.006302394   -0.012802603   -0.001268404
     11        6           0.006683944    0.001195036   -0.000002580
     12        6          -0.001178915   -0.001572192   -0.001633186
     13        6          -0.000043910    0.001434172    0.002757617
     14        6          -0.017746438   -0.013785028   -0.008165016
     15        7          -0.001942667    0.005268942    0.013020075
     16        6           0.023826877    0.013059587   -0.000778834
     17        6          -0.006359713   -0.003415308    0.006934913
     18        6           0.008508808   -0.000410441   -0.001489065
     19        6           0.002250683   -0.000737485   -0.008459776
     20        6          -0.000290874    0.004240181    0.005059845
     21        9          -0.009942288    0.000108331    0.015964041
     22        1           0.000444189    0.000432196    0.000405185
     23        1           0.000566122   -0.002444286   -0.000630279
     24        1           0.004186711    0.002031936   -0.001022655
     25        1          -0.002768664   -0.003150525   -0.002237798
     26        1          -0.001645326   -0.000126669   -0.003049445
     27        1          -0.000585472    0.002206078    0.002337359
     28        1          -0.003593844    0.000843085    0.000097855
     29        1          -0.000351699    0.000759340    0.004080132
     30        1          -0.002486757    0.001012348   -0.000823033
 -------------------------------------------------------------------
 Cartesian Forces:  Max     0.035116196 RMS     0.008277172

 GradGradGradGradGradGradGradGradGradGradGradGradGradGradGradGradGradGrad
 Berny optimization.
 FormGI is forming the generalized inverse of G from B-inverse, IUseBI=4.
 Internal  Forces:  Max     0.020360971 RMS     0.004697276
 Search for a local minimum.
 Step number   1 out of a maximum of  159
 All quantities printed in internal units (Hartrees-Bohrs-Radians)
 Mixed Optimization -- RFO/linear search
 Second derivative matrix not updated -- first step.
 ITU=  0
     Eigenvalues ---    0.00387   0.00387   0.00536   0.00903   0.01372
     Eigenvalues ---    0.01429   0.01463   0.01681   0.01715   0.02061
     Eigenvalues ---    0.02079   0.02087   0.02090   0.02091   0.02092
     Eigenvalues ---    0.02092   0.02093   0.02119   0.02124   0.02179
     Eigenvalues ---    0.02232   0.07084   0.07171   0.10769   0.10772
     Eigenvalues ---    0.11258   0.11259   0.15998   0.15998   0.15999
     Eigenvalues ---    0.15999   0.16000   0.16000   0.16000   0.16000
     Eigenvalues ---    0.16000   0.23189   0.23409   0.23461   0.23461
     Eigenvalues ---    0.23492   0.23500   0.24993   0.25000   0.25000
     Eigenvalues ---    0.25000   0.25000   0.25000   0.25000   0.25000
     Eigenvalues ---    0.25000   0.25000   0.25000   0.29549   0.29549
     Eigenvalues ---    0.30621   0.33490   0.34727   0.34729   0.34766
     Eigenvalues ---    0.35704   0.35811   0.35835   0.35920   0.35930
     Eigenvalues ---    0.35949   0.41738   0.41779   0.41969   0.43245
     Eigenvalues ---    0.45438   0.45607   0.45629   0.45665   0.45671
     Eigenvalues ---    0.45879   0.51917   0.53088   0.58529   0.58536
     Eigenvalues ---    0.58661   0.58677   0.58983   0.59006
 RFO step:  Lambda=-8.54915587D-03 EMin= 3.87007874D-03
 Linear search not attempted -- first point.
 Iteration  1 RMS(Cart)=  0.03768849 RMS(Int)=  0.00042055
 Iteration  2 RMS(Cart)=  0.00073318 RMS(Int)=  0.00009868
 Iteration  3 RMS(Cart)=  0.00000025 RMS(Int)=  0.00009868
 Variable       Old X    -DE/DX   Delta X   Delta X   Delta X     New X
                                 (Linear)    (Quad)   (Total)
    R1        2.52016   0.01369   0.00000   0.02301   0.02301   2.54317
    R2        2.52118   0.01146   0.00000   0.01930   0.01930   2.54047
    R3        2.88872  -0.00929   0.00000  -0.03056  -0.03056   2.85816
    R4        2.51754   0.01724   0.00000   0.02882   0.02882   2.54636
    R5        2.64504  -0.00630   0.00000  -0.01401  -0.01398   2.63106
    R6        2.64502  -0.00576   0.00000  -0.01239  -0.01239   2.63262
    R7        2.64522  -0.00641   0.00000  -0.01423  -0.01419   2.63102
    R8        2.04546   0.00074   0.00000   0.00202   0.00202   2.04749
    R9        2.88872  -0.00922   0.00000  -0.03033  -0.03033   2.85839
   R10        2.64508  -0.00559   0.00000  -0.01200  -0.01200   2.63308
   R11        2.51735   0.01690   0.00000   0.02823   0.02823   2.54558
   R12        2.52124   0.01162   0.00000   0.01957   0.01957   2.54081
   R13        2.52003   0.01364   0.00000   0.02291   0.02291   2.54294
   R14        2.64602  -0.00036   0.00000  -0.00032  -0.00035   2.64567
   R15        2.04378   0.00239   0.00000   0.00653   0.00653   2.05031
   R16        2.81499  -0.00675   0.00000  -0.01967  -0.01967   2.79533
   R17        2.64581  -0.00039   0.00000  -0.00039  -0.00042   2.64539
   R18        2.65071  -0.00150   0.00000  -0.00348  -0.00352   2.64719
   R19        2.65190  -0.00480   0.00000  -0.00900  -0.00901   2.64289
   R20        2.56389  -0.02036   0.00000  -0.03870  -0.03873   2.52515
   R21        2.04161   0.00460   0.00000   0.01250   0.01250   2.05411
   R22        2.56138  -0.01575   0.00000  -0.02995  -0.02995   2.53144
   R23        2.63925   0.00157   0.00000   0.00343   0.00346   2.64271
   R24        2.04207   0.00471   0.00000   0.01280   0.01280   2.05487
   R25        2.86742  -0.00391   0.00000  -0.01241  -0.01241   2.85501
   R26        2.64222  -0.00534   0.00000  -0.00986  -0.00983   2.63238
   R27        2.06121   0.00174   0.00000   0.00489   0.00489   2.06610
   R28        2.06117   0.00199   0.00000   0.00558   0.00558   2.06675
   R29        2.06056   0.00313   0.00000   0.00879   0.00879   2.06935
   R30        2.04190   0.00406   0.00000   0.01104   0.01104   2.05295
   R31        2.04340   0.00262   0.00000   0.00713   0.00713   2.05053
    A1        1.88974  -0.00279   0.00000  -0.01191  -0.01192   1.87782
    A2        1.92806   0.00461   0.00000   0.01692   0.01671   1.94477
    A3        1.89728  -0.00827   0.00000  -0.03258  -0.03296   1.86431
    A4        1.95411  -0.00002   0.00000   0.00020   0.00011   1.95422
    A5        1.89326  -0.00562   0.00000  -0.01999  -0.02015   1.87311
    A6        1.90032   0.01151   0.00000   0.04513   0.04485   1.94517
    A7        2.11268  -0.00271   0.00000  -0.01051  -0.01062   2.10206
    A8        2.09191  -0.00319   0.00000  -0.01236  -0.01246   2.07945
    A9        2.07859   0.00590   0.00000   0.02293   0.02290   2.10150
   A10        2.10607  -0.00517   0.00000  -0.02338  -0.02329   2.08278
   A11        2.08861   0.00257   0.00000   0.01161   0.01156   2.10018
   A12        2.08850   0.00260   0.00000   0.01177   0.01173   2.10022
   A13        2.11267  -0.00281   0.00000  -0.01094  -0.01104   2.10164
   A14        2.07866   0.00597   0.00000   0.02330   0.02328   2.10194
   A15        2.09185  -0.00316   0.00000  -0.01229  -0.01239   2.07946
   A16        1.90055   0.01141   0.00000   0.04485   0.04457   1.94512
   A17        1.95413  -0.00019   0.00000  -0.00060  -0.00068   1.95345
   A18        1.92765   0.00459   0.00000   0.01688   0.01667   1.94432
   A19        1.89326  -0.00551   0.00000  -0.01964  -0.01978   1.87348
   A20        1.89757  -0.00812   0.00000  -0.03175  -0.03214   1.86544
   A21        1.88962  -0.00275   0.00000  -0.01192  -0.01192   1.87770
   A22        2.11862  -0.00366   0.00000  -0.01396  -0.01397   2.10465
   A23        2.07989   0.00209   0.00000   0.00850   0.00850   2.08839
   A24        2.08459   0.00157   0.00000   0.00540   0.00540   2.08999
   A25        2.10919  -0.00030   0.00000  -0.00247  -0.00245   2.10673
   A26        2.06563   0.00049   0.00000   0.00455   0.00451   2.07014
   A27        2.10836  -0.00019   0.00000  -0.00207  -0.00205   2.10631
   A28        2.12035  -0.00154   0.00000  -0.00711  -0.00710   2.11325
   A29        2.12082   0.00028   0.00000  -0.00006  -0.00005   2.12077
   A30        2.04202   0.00126   0.00000   0.00717   0.00714   2.04916
   A31        2.15862   0.00198   0.00000   0.00514   0.00509   2.16371
   A32        2.11285  -0.00224   0.00000  -0.01000  -0.00998   2.10287
   A33        2.01158   0.00026   0.00000   0.00487   0.00490   2.01649
   A34        2.05696  -0.00126   0.00000  -0.01310  -0.01313   2.04383
   A35        2.14463   0.00675   0.00000   0.02684   0.02689   2.17153
   A36        2.02469  -0.00291   0.00000  -0.01068  -0.01070   2.01399
   A37        2.11386  -0.00384   0.00000  -0.01617  -0.01619   2.09767
   A38        2.11058   0.00231   0.00000   0.00752   0.00742   2.11799
   A39        2.06301  -0.00559   0.00000  -0.01845  -0.01843   2.04459
   A40        2.10938   0.00329   0.00000   0.01134   0.01123   2.12061
   A41        1.93974  -0.00052   0.00000  -0.00133  -0.00136   1.93839
   A42        1.93497   0.00004   0.00000   0.00328   0.00326   1.93823
   A43        1.93105   0.00204   0.00000   0.00726   0.00726   1.93830
   A44        1.85972   0.00205   0.00000   0.02153   0.02148   1.88119
   A45        1.90020  -0.00194   0.00000  -0.01726  -0.01726   1.88294
   A46        1.89614  -0.00176   0.00000  -0.01379  -0.01378   1.88236
   A47        2.10110  -0.00313   0.00000  -0.00762  -0.00758   2.09352
   A48        2.09717   0.00101   0.00000   0.00048   0.00045   2.09761
   A49        2.08484   0.00212   0.00000   0.00706   0.00703   2.09187
   A50        2.11879  -0.00353   0.00000  -0.01344  -0.01345   2.10534
   A51        2.08060   0.00186   0.00000   0.00728   0.00728   2.08789
   A52        2.08371   0.00166   0.00000   0.00610   0.00611   2.08981
    D1        2.40259   0.00023   0.00000   0.01166   0.01136   2.41395
    D2       -0.73577  -0.00033   0.00000  -0.01215  -0.01214  -0.74791
    D3        0.29496   0.00061   0.00000   0.01498   0.01489   0.30984
    D4       -2.84340   0.00005   0.00000  -0.00883  -0.00862  -2.85202
    D5       -1.79833   0.00001   0.00000   0.00990   0.00983  -1.78850
    D6        1.34650  -0.00055   0.00000  -0.01391  -0.01367   1.33282
    D7       -3.13820  -0.00066   0.00000  -0.02634  -0.02650   3.11848
    D8        0.00353  -0.00066   0.00000  -0.02641  -0.02656  -0.02303
    D9        0.00018  -0.00013   0.00000  -0.00277  -0.00276  -0.00258
   D10       -3.14127  -0.00013   0.00000  -0.00283  -0.00283   3.13909
   D11        3.13766   0.00082   0.00000   0.03020   0.03023  -3.11530
   D12        0.01009   0.00093   0.00000   0.03464   0.03475   0.04484
   D13       -0.00076   0.00030   0.00000   0.00691   0.00680   0.00603
   D14       -3.12833   0.00040   0.00000   0.01134   0.01131  -3.11701
   D15       -3.13733  -0.00065   0.00000  -0.02604  -0.02618   3.11967
   D16        0.00070  -0.00015   0.00000  -0.00378  -0.00377  -0.00307
   D17        0.00412  -0.00065   0.00000  -0.02597  -0.02612  -0.02200
   D18       -3.14103  -0.00015   0.00000  -0.00371  -0.00371   3.13845
   D19       -1.80302   0.00004   0.00000   0.00976   0.00970  -1.79332
   D20        0.29044   0.00061   0.00000   0.01460   0.01450   0.30494
   D21        2.39765   0.00016   0.00000   0.01070   0.01040   2.40805
   D22        1.34216  -0.00049   0.00000  -0.01275  -0.01250   1.32967
   D23       -2.84757   0.00008   0.00000  -0.00790  -0.00770  -2.85527
   D24       -0.74035  -0.00037   0.00000  -0.01180  -0.01180  -0.75216
   D25       -0.00103   0.00028   0.00000   0.00648   0.00638   0.00535
   D26       -3.12758   0.00037   0.00000   0.01055   0.01053  -3.11705
   D27        3.13704   0.00078   0.00000   0.02848   0.02852  -3.11763
   D28        0.01050   0.00087   0.00000   0.03254   0.03266   0.04316
   D29       -3.14086  -0.00017   0.00000  -0.00410  -0.00398   3.13834
   D30        0.00046  -0.00013   0.00000  -0.00251  -0.00238  -0.00192
   D31       -0.01436  -0.00025   0.00000  -0.00815  -0.00811  -0.02246
   D32        3.12697  -0.00021   0.00000  -0.00656  -0.00651   3.12046
   D33       -0.69893   0.00035   0.00000   0.01921   0.01921  -0.67972
   D34        2.44326   0.00034   0.00000   0.01945   0.01945   2.46271
   D35        2.44293   0.00031   0.00000   0.01757   0.01758   2.46051
   D36       -0.69806   0.00030   0.00000   0.01781   0.01781  -0.68025
   D37        0.00045  -0.00017   0.00000  -0.00430  -0.00418  -0.00374
   D38        3.12799  -0.00027   0.00000  -0.00873  -0.00869   3.11929
   D39       -3.14141  -0.00013   0.00000  -0.00270  -0.00258   3.13919
   D40       -0.01387  -0.00023   0.00000  -0.00714  -0.00709  -0.02097
   D41        3.14077  -0.00015   0.00000  -0.00409  -0.00412   3.13665
   D42       -0.01924  -0.00009   0.00000  -0.00319  -0.00320  -0.02244
   D43       -0.00139  -0.00015   0.00000  -0.00432  -0.00435  -0.00575
   D44        3.12178  -0.00009   0.00000  -0.00342  -0.00343   3.11835
   D45        3.13882   0.00006   0.00000   0.00252   0.00248   3.14130
   D46       -0.01620  -0.00016   0.00000  -0.00476  -0.00477  -0.02097
   D47       -0.00220   0.00005   0.00000   0.00276   0.00271   0.00052
   D48        3.12597  -0.00016   0.00000  -0.00453  -0.00454   3.12143
   D49        0.00048   0.00011   0.00000   0.00280   0.00281   0.00329
   D50       -3.12367   0.00007   0.00000   0.00210   0.00208  -3.12159
   D51        0.00416   0.00004   0.00000   0.00038   0.00042   0.00458
   D52       -3.13851   0.00006   0.00000   0.00157   0.00161  -3.13690
   D53       -3.12706  -0.00065   0.00000  -0.02282  -0.02273   3.13340
   D54       -0.00761  -0.00011   0.00000  -0.00170  -0.00177  -0.00938
   D55        0.01567  -0.00067   0.00000  -0.02407  -0.02398  -0.00831
   D56        3.13512  -0.00013   0.00000  -0.00296  -0.00302   3.13210
   D57        0.49108  -0.00106   0.00000  -0.00876  -0.00868   0.48239
   D58        2.55604   0.00120   0.00000   0.01940   0.01953   2.57556
   D59       -1.62219   0.00036   0.00000   0.00906   0.00915  -1.61303
   D60       -2.62779  -0.00150   0.00000  -0.03006  -0.03018  -2.65797
   D61       -0.56283   0.00076   0.00000  -0.00189  -0.00197  -0.56480
   D62        1.54213  -0.00008   0.00000  -0.01224  -0.01234   1.52979
   D63        0.00645   0.00002   0.00000  -0.00010  -0.00006   0.00639
   D64       -3.12182   0.00024   0.00000   0.00718   0.00722  -3.11459
   D65        3.12592   0.00055   0.00000   0.02095   0.02089  -3.13638
   D66       -0.00235   0.00077   0.00000   0.02823   0.02816   0.02582
         Item               Value     Threshold  Converged?
 Maximum Force            0.020361     0.000450     NO 
 RMS     Force            0.004697     0.000300     NO 
 Maximum Displacement     0.107574     0.001800     NO 
 RMS     Displacement     0.037805     0.001200     NO 
 Predicted change in Energy=-4.437924D-03
 GradGradGradGradGradGradGradGradGradGradGradGradGradGradGradGradGradGrad

                          Input orientation:                          
 ---------------------------------------------------------------------
 Center     Atomic      Atomic             Coordinates (Angstroms)
 Number     Number       Type             X           Y           Z
 ---------------------------------------------------------------------
      1          9           0       -3.718253    2.871646    1.223254
      2          6           0       -2.742868    2.211947    1.874839
      3          9           0       -1.811990    3.113291    2.233098
      4          6           0       -2.160854    1.105074    1.024154
      5          6           0       -0.786510    0.883695    0.998373
      6          6           0       -0.277931   -0.159202    0.228861
      7          6           0        1.213160   -0.404021    0.160637
      8          9           0        1.734720    0.051450   -0.994829
      9          9           0        1.868432    0.205652    1.163980
     10          9           0        1.498702   -1.717345    0.227400
     11          6           0       -1.134150   -0.976747   -0.505971
     12          6           0       -2.517042   -0.759161   -0.487561
     13          6           0       -3.428081   -1.622903   -1.269904
     14          6           0       -3.077457   -2.072117   -2.549589
     15          7           0       -3.852342   -2.857337   -3.303615
     16          6           0       -5.033759   -3.223829   -2.789411
     17          6           0       -5.502368   -2.835831   -1.530220
     18          6           0       -6.853390   -3.282370   -1.022406
     19          6           0       -4.669805   -2.022146   -0.765237
     20          6           0       -3.019666    0.294095    0.285540
     21          9           0       -3.289138    1.727600    3.007395
     22          1           0       -0.119499    1.516625    1.571464
     23          1           0       -0.726351   -1.799982   -1.083167
     24          1           0       -2.133620   -1.774432   -2.999141
     25          1           0       -5.639567   -3.866033   -3.424226
     26          1           0       -7.143341   -4.238753   -1.465844
     27          1           0       -6.843039   -3.407374    0.064056
     28          1           0       -7.628323   -2.548857   -1.268543
     29          1           0       -4.979201   -1.715317    0.229919
     30          1           0       -4.086470    0.492183    0.296696
 ---------------------------------------------------------------------
                    Distance matrix (angstroms):
                    1          2          3          4          5
     1  F    0.000000
     2  C    1.345786   0.000000
     3  F    2.170717   1.344360   0.000000
     4  C    2.363453   1.512473   2.369849   0.000000
     5  C    3.549315   2.521862   2.747227   1.392298   0.000000
     6  C    4.691553   3.795723   4.132737   2.403390   1.392277
     7  C    6.014814   5.043009   5.081153   3.795655   2.521645
     8  F    6.527504   5.740343   5.689775   4.512417   3.319952
     9  F    6.190483   5.078842   4.810705   4.130818   2.745156
    10  F    7.019058   6.012014   6.190198   4.689692   3.547111
    11  C    4.947518   4.292319   4.968941   2.780177   2.417674
    12  C    4.189577   3.802555   4.784869   2.426423   2.810999
    13  C    5.147913   5.006496   6.108543   3.782913   4.290222
    14  C    6.251861   6.167717   7.166866   4.868917   5.154930
    15  N    7.302861   7.331096   8.394440   6.106671   6.473156
    16  C    7.415312   7.520045   8.704279   6.444864   7.018418
    17  C    6.583311   6.685008   7.948176   5.763790   6.516745
    18  C    7.262505   7.448351   8.770319   6.742253   7.631951
    19  C    5.367378   5.348891   6.597714   4.390474   5.160834
    20  C    2.830389   2.506122   3.633088   1.393125   2.417177
    21  F    2.162438   1.347473   2.168326   2.365123   3.318357
    22  H    3.861135   2.730856   2.419014   2.153149   1.083484
    23  H    6.007925   5.376962   6.026316   3.864965   3.396844
    24  H    6.475008   6.325985   7.167259   4.947646   4.986027
    25  H    8.407547   8.568128   9.765584   7.523393   8.103793
    26  H    8.337881   8.493283   9.806020   7.718923   8.527669
    27  H    7.108736   7.187984   8.516764   6.573191   7.481161
    28  H    7.132991   7.510910   8.840313   6.964258   7.983215
    29  H    4.859726   4.809402   6.112234   4.065525   4.992398
    30  H    2.579911   2.693212   3.974055   2.147750   3.396376
                    6          7          8          9         10
     6  C    0.000000
     7  C    1.512595   0.000000
     8  F    2.364858   1.347064   0.000000
     9  F    2.369482   1.344537   2.168436   0.000000
    10  F    2.363099   1.345664   2.162912   2.170669   0.000000
    11  C    1.393366   2.506442   3.086517   3.633498   2.831648
    12  C    2.426279   3.802722   4.357968   4.784437   4.189927
    13  C    3.783141   5.007319   5.434486   6.109047   5.150148
    14  C    4.383649   5.342029   5.484876   6.590953   5.364585
    15  N    5.703922   6.609018   6.708710   7.878361   6.511630
    16  C    6.412472   7.461776   7.730478   8.662037   7.351441
    17  C    6.128086   7.339688   7.810152   8.416533   7.304465
    18  C    7.386237   8.646023   9.212532   9.644520   8.588874
    19  C    4.873124   6.171292   6.735759   7.171716   6.255294
    20  C    2.779532   4.291828   4.929747   4.967191   4.946203
    21  F    4.510836   5.737467   6.638254   5.684631   6.520692
    22  H    2.153156   2.730438   3.488657   2.415898   3.857933
    23  H    2.148175   2.693968   3.080986   3.975568   2.583656
    24  H    4.058638   4.802413   4.723893   6.104813   4.858765
    25  H    7.472134   8.473290   8.696479   9.695376   8.300971
    26  H    8.163860   9.337116   9.871558  10.386567   9.160212
    27  H    7.326556   8.598360   9.309277   9.494921   8.512785
    28  H    7.872796   9.209490   9.721269  10.182968   9.286110
    29  H    4.952114   6.330058   7.049695   7.173052   6.477904
    30  H    3.864436   5.376595   5.979007   6.024545   6.006743
                   11         12         13         14         15
    11  C    0.000000
    12  C    1.400026   0.000000
    13  C    2.502644   1.479223   0.000000
    14  C    3.025335   2.507963   1.400830   0.000000
    15  N    4.330358   3.757064   2.416570   1.336253   0.000000
    16  C    5.046823   4.207964   2.729482   2.282777   1.339578
    17  C    4.856604   3.783102   2.416945   2.739080   2.422391
    18  C    6.188077   5.045449   3.814161   4.249078   3.793529
    19  C    3.696070   2.511299   1.398557   2.392066   2.794486
    20  C    2.407633   1.399880   2.502217   3.693272   4.848392
    21  F    4.929625   4.358306   5.435114   6.735186   7.820978
    22  H    3.400317   3.894483   5.373706   6.213829   7.538704
    23  H    1.084975   2.155140   2.713958   2.784269   3.977463
    24  H    2.801988   2.736023   2.165376   1.086988   2.054116
    25  H    6.096144   5.294036   3.816204   3.247696   2.055770
    26  H    6.904521   5.870881   4.547991   4.732888   4.014522
    27  H    6.230914   5.102113   4.077465   4.774270   4.537403
    28  H    6.725126   5.471575   4.301096   4.751709   4.300548
    29  H    3.983897   2.737013   2.159625   3.386680   3.880707
    30  H    3.393850   2.155000   2.713172   3.961702   4.923042
                   16         17         18         19         20
    16  C    0.000000
    17  C    1.398463   0.000000
    18  C    2.537083   1.510806   0.000000
    19  C    2.381971   1.392998   2.534234   0.000000
    20  C    5.087994   4.388306   5.403634   3.031841   0.000000
    21  F    7.820698   6.805383   7.351393   5.495415   3.088049
    22  H    8.101795   7.585486   8.666245   6.219996   3.399875
    23  H    4.846893   4.907461   6.304107   3.962482   3.393790
    24  H    3.248929   3.825278   5.334565   3.388793   3.981584
    25  H    1.087391   2.160417   2.753683   3.377955   6.158970
    26  H    2.689282   2.159891   1.093334   3.394493   6.373284
[...]
 Alpha virt. eigenvalues --    3.95473   3.96038   3.96511   3.97248   3.98565
 Alpha virt. eigenvalues --    3.99425   3.99619   4.02397   4.04312   4.04727
 Alpha virt. eigenvalues --    4.05555   4.06509   4.07260   4.08505   4.08973
 Alpha virt. eigenvalues --    4.09867   4.10277   4.13058   4.13714   4.14613
 Alpha virt. eigenvalues --    4.15532   4.16439   4.16680   4.17727   4.19465
 Alpha virt. eigenvalues --    4.21589   4.21776   4.22643   4.27278   4.28633
 Alpha virt. eigenvalues --    4.28972   4.30335   4.31290   4.33901   4.37138
 Alpha virt. eigenvalues --    4.37803   4.39377   4.41607   4.43588   4.45857
 Alpha virt. eigenvalues --    4.48637   4.52745   4.53296   4.55336   4.58794
 Alpha virt. eigenvalues --    4.60153   4.60839   4.63024   4.63782   4.67875
 Alpha virt. eigenvalues --    4.70813   4.72681   4.79981   4.83395   4.85320
 Alpha virt. eigenvalues --    4.88687   4.91279   4.92580   4.97664   5.00938
 Alpha virt. eigenvalues --    5.01583   5.07268   5.10394   5.12997   5.14961
 Alpha virt. eigenvalues --    5.16924   5.19056   5.19612   5.22427   5.24977
 Alpha virt. eigenvalues --    5.25612   5.27305   5.32295   5.35193   5.42063
 Alpha virt. eigenvalues --    5.43448   5.45755   5.47189   5.48993   5.50406
 Alpha virt. eigenvalues --    5.56468   5.59323   5.66585   5.75805   5.99429
 Alpha virt. eigenvalues --    6.82488   6.82612   6.87178   6.87278   6.87411
 Alpha virt. eigenvalues --    6.87492   6.87672   6.87711   6.87833   6.87884
 Alpha virt. eigenvalues --    6.88324   6.88396   6.88549   6.88891   6.89014
 Alpha virt. eigenvalues --    6.89112   6.89898   6.90413   6.97581   6.98002
 Alpha virt. eigenvalues --    6.99971   7.00071   7.00438   7.00926   7.05173
 Alpha virt. eigenvalues --    7.05451   7.06350   7.06798   7.12655   7.13138
 Alpha virt. eigenvalues --    7.33686   7.33964   7.34468   7.35000   7.37972
 Alpha virt. eigenvalues --    7.38524   7.48443   7.49262   7.55397   7.56153
 Alpha virt. eigenvalues --    7.56442   7.56704   8.28704   8.29149   8.30700
 Alpha virt. eigenvalues --    8.31272   8.32437   8.33057   8.45492   8.45518
 Alpha virt. eigenvalues --    8.45716   8.45789   8.54096   8.55935   8.67290
 Alpha virt. eigenvalues --    8.67860   8.74436   8.74723   8.75238   8.75421
 Alpha virt. eigenvalues --    8.84986   8.85182   8.91035   8.91608   8.98057
 Alpha virt. eigenvalues --    8.98204   8.99086   8.99298   9.05221   9.06421
 Alpha virt. eigenvalues --    9.10018   9.10950  22.26147  22.48989  22.61027
 Alpha virt. eigenvalues --   22.80171  22.80657  22.82955  22.87183  22.91287
 Alpha virt. eigenvalues --   22.94858  23.07920  23.10470  23.11279  23.26092
 Alpha virt. eigenvalues --   23.42828  32.54026  57.35629  57.37287  57.38005
 Alpha virt. eigenvalues --   57.39127  57.43856  57.51337
          Condensed to atoms (all electrons):
               1          2          3          4          5          6
     1  F    8.995482   0.328279  -0.043075  -0.074695   0.005646  -0.000330
     2  C    0.328279   4.137477   0.329981   0.455042  -0.050139   0.006046
     3  F   -0.043075   0.329981   8.990908  -0.076195   0.009859   0.002665
     4  C   -0.074695   0.455042  -0.076195   5.195366   0.365579  -0.001695
     5  C    0.005646  -0.050139   0.009859   0.365579   5.226142   0.369363
     6  C   -0.000330   0.006046   0.002665  -0.001695   0.369363   5.199444
     7  C   -0.000002  -0.000118  -0.000072   0.005732  -0.049084   0.456048
     8  F   -0.000000  -0.000012   0.000000  -0.000893   0.002878  -0.076972
     9  F    0.000000  -0.000072   0.000001   0.002690   0.009646  -0.075819
    10  F   -0.000000  -0.000002   0.000000  -0.000342   0.005681  -0.074696
    11  C    0.000058  -0.000452  -0.000103  -0.078945  -0.023751   0.317932
    12  C    0.002405   0.004746  -0.000233  -0.004747  -0.066103  -0.010346
    13  C   -0.000162  -0.001277   0.000004   0.004535   0.002924   0.007985
    14  C   -0.000002   0.000022  -0.000000   0.000279  -0.000637   0.006489
    15  N   -0.000000  -0.000001   0.000000   0.000004   0.000008  -0.000078
    16  C    0.000000   0.000001   0.000000  -0.000003  -0.000003  -0.000009
    17  C    0.000000  -0.000016  -0.000000  -0.000084  -0.000009   0.000147
    18  C    0.000000  -0.000001  -0.000000   0.000008   0.000000   0.000001
    19  C    0.000014   0.000262  -0.000001   0.005799  -0.000425  -0.000234
    20  C    0.005341  -0.043356   0.003685   0.326337  -0.020603  -0.078264
    21  F   -0.048222   0.345154  -0.047771  -0.076957   0.002847  -0.000836
    22  H    0.000199  -0.007549   0.006964  -0.023534   0.390974  -0.023540
    23  H   -0.000000   0.000049  -0.000000  -0.000390   0.006122  -0.009534
    24  H   -0.000000   0.000001  -0.000000   0.000000  -0.000167   0.001154
    25  H   -0.000000  -0.000000   0.000000   0.000000   0.000000  -0.000000
    26  H    0.000000   0.000000   0.000000  -0.000000  -0.000000   0.000000
    27  H   -0.000000  -0.000000  -0.000000   0.000003   0.000000   0.000001
    28  H   -0.000000  -0.000000   0.000000  -0.000007   0.000000  -0.000001
    29  H    0.000007   0.000194   0.000000   0.001497  -0.000305   0.000151
    30  H    0.008540  -0.006673   0.000260  -0.010716   0.006652  -0.000674
               7          8          9         10         11         12
     1  F   -0.000002  -0.000000   0.000000  -0.000000   0.000058   0.002405
     2  C   -0.000118  -0.000012  -0.000072  -0.000002  -0.000452   0.004746
     3  F   -0.000072   0.000000   0.000001   0.000000  -0.000103  -0.000233
     4  C    0.005732  -0.000893   0.002690  -0.000342  -0.078945  -0.004747
     5  C   -0.049084   0.002878   0.009646   0.005681  -0.023751  -0.066103
     6  C    0.456048  -0.076972  -0.075819  -0.074696   0.317932  -0.010346
     7  C    4.135684   0.345717   0.328998   0.328315  -0.044118   0.004971
     8  F    0.345717   8.994555  -0.047794  -0.047937   0.004185  -0.001810
     9  F    0.328998  -0.047794   8.992565  -0.043073   0.003658  -0.000191
    10  F    0.328315  -0.047937  -0.043073   8.993822   0.005936   0.002324
    11  C   -0.044118   0.004185   0.003658   0.005936   5.329463   0.401761
    12  C    0.004971  -0.001810  -0.000191   0.002324   0.401761   5.064220
    13  C   -0.001281   0.000034   0.000005  -0.000132  -0.071671   0.250575
    14  C    0.000237  -0.000046  -0.000001  -0.000007  -0.003035  -0.043131
    15  N   -0.000002  -0.000000  -0.000000   0.000000  -0.000748   0.006025
    16  C    0.000002   0.000000  -0.000000  -0.000000   0.000424   0.000490
    17  C   -0.000002  -0.000000   0.000000   0.000000  -0.001684   0.005423
    18  C   -0.000000  -0.000000  -0.000000   0.000000  -0.000009  -0.001341
    19  C    0.000042   0.000001  -0.000000  -0.000001   0.012464  -0.101564
    20  C   -0.000298   0.000005  -0.000106   0.000060   0.006318   0.399822
    21  F   -0.000012  -0.000000   0.000000  -0.000000   0.000007  -0.001787
    22  H   -0.007264   0.000263   0.006966   0.000206   0.007925   0.000238
    23  H   -0.006821   0.000475   0.000245   0.008355   0.374783  -0.028085
    24  H    0.000132   0.000016   0.000000   0.000003   0.000378   0.002672
    25  H   -0.000000   0.000000  -0.000000  -0.000000  -0.000009   0.000058
    26  H    0.000000   0.000000   0.000000   0.000000   0.000000   0.000031
    27  H   -0.000000   0.000000   0.000000   0.000000  -0.000001  -0.000339
    28  H   -0.000000   0.000000  -0.000000  -0.000000  -0.000002   0.000122
    29  H    0.000005  -0.000000  -0.000000  -0.000000   0.000125   0.003977
    30  H    0.000046   0.000000  -0.000000  -0.000000   0.005731  -0.026687
              13         14         15         16         17         18
     1  F   -0.000162  -0.000002  -0.000000   0.000000   0.000000   0.000000
     2  C   -0.001277   0.000022  -0.000001   0.000001  -0.000016  -0.000001
     3  F    0.000004  -0.000000   0.000000   0.000000  -0.000000  -0.000000
     4  C    0.004535   0.000279   0.000004  -0.000003  -0.000084   0.000008
     5  C    0.002924  -0.000637   0.000008  -0.000003  -0.000009   0.000000
     6  C    0.007985   0.006489  -0.000078  -0.000009   0.000147   0.000001
     7  C   -0.001281   0.000237  -0.000002   0.000002  -0.000002  -0.000000
     8  F    0.000034  -0.000046  -0.000000   0.000000  -0.000000  -0.000000
     9  F    0.000005  -0.000001  -0.000000  -0.000000   0.000000  -0.000000
    10  F   -0.000132  -0.000007   0.000000  -0.000000   0.000000   0.000000
    11  C   -0.071671  -0.003035  -0.000748   0.000424  -0.001684  -0.000009
    12  C    0.250575  -0.043131   0.006025   0.000490   0.005423  -0.001341
    13  C    5.184114   0.437313  -0.033294  -0.028840  -0.026832   0.013002
    14  C    0.437313   4.920184   0.509381  -0.119499  -0.026296  -0.001341
    15  N   -0.033294   0.509381   6.409840   0.501671  -0.033906   0.009569
    16  C   -0.028840  -0.119499   0.501671   4.876492   0.496457  -0.045025
    17  C   -0.026832  -0.026296  -0.033906   0.496457   5.132013   0.260761
    18  C    0.013002  -0.001341   0.009569  -0.045025   0.260761   5.090658
    19  C    0.408524  -0.032137  -0.088987  -0.060123   0.381147  -0.094765
    20  C   -0.078720   0.006240  -0.000635   0.000663   0.001116   0.000203
    21  F    0.000031   0.000001  -0.000000  -0.000000  -0.000001  -0.000000
    22  H    0.000246  -0.000004   0.000000  -0.000000   0.000000   0.000000
    23  H    0.007634  -0.002774  -0.000005  -0.000009  -0.000166   0.000001
    24  H   -0.085141   0.444220  -0.028881   0.008638  -0.001651   0.000107
    25  H   -0.001883   0.007963  -0.032965   0.440740  -0.081417  -0.002835
    26  H   -0.001306   0.000525   0.000152  -0.010841  -0.058192   0.424488
    27  H    0.000863   0.000103  -0.000279   0.001219  -0.041040   0.421108
    28  H   -0.001138   0.000127  -0.000303   0.000169  -0.031235   0.408722
    29  H   -0.046523   0.003423  -0.002208   0.003393  -0.027354  -0.002773
    30  H    0.003851   0.000295  -0.000058  -0.000012   0.000841   0.000120
              19         20         21         22         23         24
     1  F    0.000014   0.005341  -0.048222   0.000199  -0.000000  -0.000000
     2  C    0.000262  -0.043356   0.345154  -0.007549   0.000049   0.000001
     3  F   -0.000001   0.003685  -0.047771   0.006964  -0.000000  -0.000000
     4  C    0.005799   0.326337  -0.076957  -0.023534  -0.000390   0.000000
     5  C   -0.000425  -0.020603   0.002847   0.390974   0.006122  -0.000167
     6  C   -0.000234  -0.078264  -0.000836  -0.023540  -0.009534   0.001154
     7  C    0.000042  -0.000298  -0.000012  -0.007264  -0.006821   0.000132
     8  F    0.000001   0.000005  -0.000000   0.000263   0.000475   0.000016
     9  F   -0.000000  -0.000106   0.000000   0.006966   0.000245   0.000000
    10  F   -0.000001   0.000060  -0.000000   0.000206   0.008355   0.000003
    11  C    0.012464   0.006318   0.000007   0.007925   0.374783   0.000378
    12  C   -0.101564   0.399822  -0.001787   0.000238  -0.028085   0.002672
    13  C    0.408524  -0.078720   0.000031   0.000246   0.007634  -0.085141
    14  C   -0.032137   0.006240   0.000001  -0.000004  -0.002774   0.444220
    15  N   -0.088987  -0.000635  -0.000000   0.000000  -0.000005  -0.028881
    16  C   -0.060123   0.000663  -0.000000  -0.000000  -0.000009   0.008638
    17  C    0.381147   0.001116  -0.000001   0.000000  -0.000166  -0.001651
    18  C   -0.094765   0.000203  -0.000000   0.000000   0.000001   0.000107
    19  C    5.322328   0.003670  -0.000064  -0.000014   0.001186   0.003475
    20  C    0.003670   5.319998   0.003878   0.007855   0.005412   0.000477
    21  F   -0.000064   0.003878   8.996875   0.000237   0.000000  -0.000000
    22  H   -0.000014   0.007855   0.000237   0.446057  -0.000136  -0.000000
    23  H    0.001186   0.005412   0.000000  -0.000136   0.438170  -0.003331
    24  H    0.003475   0.000477  -0.000000  -0.000000  -0.003331   0.494208
    25  H    0.008550  -0.000009  -0.000000   0.000000  -0.000002   0.000040
    26  H    0.018796  -0.000003  -0.000000  -0.000000  -0.000000  -0.000001
    27  H   -0.011828   0.000061   0.000000  -0.000000   0.000001  -0.000003
    28  H   -0.011851  -0.000070   0.000000   0.000000  -0.000000  -0.000001
    29  H    0.410979   0.002568   0.000017  -0.000002   0.000047  -0.000230
    30  H    0.001256   0.372426   0.000494  -0.000138  -0.000151   0.000026
              25         26         27         28         29         30
     1  F   -0.000000   0.000000  -0.000000  -0.000000   0.000007   0.008540
     2  C   -0.000000   0.000000  -0.000000  -0.000000   0.000194  -0.006673
     3  F    0.000000   0.000000  -0.000000   0.000000   0.000000   0.000260
     4  C    0.000000  -0.000000   0.000003  -0.000007   0.001497  -0.010716
     5  C    0.000000  -0.000000   0.000000   0.000000  -0.000305   0.006652
     6  C   -0.000000   0.000000   0.000001  -0.000001   0.000151  -0.000674
     7  C   -0.000000   0.000000  -0.000000  -0.000000   0.000005   0.000046
     8  F    0.000000   0.000000   0.000000   0.000000  -0.000000   0.000000
     9  F   -0.000000   0.000000   0.000000  -0.000000  -0.000000  -0.000000
    10  F   -0.000000   0.000000   0.000000  -0.000000  -0.000000  -0.000000
    11  C   -0.000009   0.000000  -0.000001  -0.000002   0.000125   0.005731
    12  C    0.000058   0.000031  -0.000339   0.000122   0.003977  -0.026687
    13  C   -0.001883  -0.001306   0.000863  -0.001138  -0.046523   0.003851
    14  C    0.007963   0.000525   0.000103   0.000127   0.003423   0.000295
    15  N   -0.032965   0.000152  -0.000279  -0.000303  -0.002208  -0.000058
    16  C    0.440740  -0.010841   0.001219   0.000169   0.003393  -0.000012
    17  C   -0.081417  -0.058192  -0.041040  -0.031235  -0.027354   0.000841
    18  C   -0.002835   0.424488   0.421108   0.408722  -0.002773   0.000120
    19  C    0.008550   0.018796  -0.011828  -0.011851   0.410979   0.001256
    20  C   -0.000009  -0.000003   0.000061  -0.000070   0.002568   0.372426
    21  F   -0.000000  -0.000000   0.000000   0.000000   0.000017   0.000494
    22  H    0.000000  -0.000000  -0.000000   0.000000  -0.000002  -0.000138
    23  H   -0.000002  -0.000000   0.000001  -0.000000   0.000047  -0.000151
    24  H    0.000040  -0.000001  -0.000003  -0.000001  -0.000230   0.000026
    25  H    0.516471   0.001908  -0.000116  -0.000005  -0.000230  -0.000001
    26  H    0.001908   0.522208  -0.022746  -0.021868   0.000121  -0.000004
    27  H   -0.000116  -0.022746   0.525543  -0.034773  -0.000424   0.000019
    28  H   -0.000005  -0.021868  -0.034773   0.526957   0.000568  -0.000003
    29  H   -0.000230   0.000121  -0.000424   0.000568   0.475647  -0.002158
    30  H   -0.000001  -0.000004   0.000019  -0.000003  -0.002158   0.444992
 Mulliken charges:
               1
     1  F   -0.179484
     2  C    0.502412
     3  F   -0.176876
     4  C   -0.013668
     5  C   -0.193093
     6  C   -0.014396
     7  C    0.503147
     8  F   -0.172667
     9  F   -0.177719
    10  F   -0.178513
    11  C   -0.246623
    12  C    0.136501
    13  C    0.056562
    14  C   -0.107891
    15  N   -0.214299
    16  C   -0.065994
    17  C    0.051979
    18  C   -0.480658
    19  C   -0.176500
    20  C   -0.244069
    21  F   -0.173892
    22  H    0.194052
    23  H    0.208927
    24  H    0.163857
    25  H    0.143742
    26  H    0.146730
    27  H    0.162628
    28  H    0.164590
    29  H    0.179487
    30  H    0.201727
 Sum of Mulliken charges =  -0.00000
 Mulliken charges with hydrogens summed into heavy atoms:
               1
     1  F   -0.179484
     2  C    0.502412
     3  F   -0.176876
     4  C   -0.013668
     5  C    0.000959
     6  C   -0.014396
     7  C    0.503147
     8  F   -0.172667
     9  F   -0.177719
    10  F   -0.178513
    11  C   -0.037695
    12  C    0.136501
    13  C    0.056562
    14  C    0.055965
    15  N   -0.214299
    16  C    0.077748
    17  C    0.051979
    18  C   -0.006710
    19  C    0.002988
    20  C   -0.042342
    21  F   -0.173892
 Electronic spatial extent (au):  <R**2>=           7446.3751
 Charge=              0.0000 electrons
 Dipole moment (field-independent basis, Debye):
    X=             -2.8584    Y=              1.5860    Z=              1.1228  Tot=              3.4564
 Quadrupole moment (field-independent basis, Debye-Ang):
   XX=           -113.4339   YY=           -128.4154   ZZ=           -121.2701
   XY=             -8.3764   XZ=             -6.1136   YZ=              0.1152
 Traceless Quadrupole moment (field-independent basis, Debye-Ang):
   XX=              7.6059   YY=             -7.3756   ZZ=             -0.2303
   XY=             -8.3764   XZ=             -6.1136   YZ=              0.1152
 Octapole moment (field-independent basis, Debye-Ang**2):
  XXX=             17.2319  YYY=             10.7612  ZZZ=              5.5709  XYY=             16.6588
  XXY=             50.1227  XXZ=             28.2650  XZZ=             34.4735  YZZ=              6.8791
  YYZ=              4.3894  XYZ=              4.0589
 Hexadecapole moment (field-independent basis, Debye-Ang**3):
 XXXX=          -5491.1604 YYYY=          -2774.4648 ZZZZ=           -392.7699 XXXY=           -144.1870
 XXXZ=           -111.5599 YYYX=            -88.3380 YYYZ=            -23.7019 ZZZX=            -10.7821
 ZZZY=            -23.7044 XXYY=          -1564.3818 XXZZ=          -1103.6871 YYZZ=           -529.8249
 XXYZ=            -23.7712 YYXZ=            -22.7321 ZZXY=            -26.1932
 N-N= 1.668369494634D+03 E-N=-6.141784807613D+03  KE= 1.187382467314D+03
 Unable to Open any file for archive entry.
 1\1\GINC-COMPUTE-0-28\SP\RM062X\def2TZVP\C14H9F6N1\ZTAN64\14-Aug-2024\
 0\\# M062X/def2tzvp int=(grid=ultrafine) nmr=giao guess=read geom=chec
 k\\pyrd7.xyz\\0,1\F,0,-3.8611327591,2.7337285505,1.3071880095\C,0,-2.7
 383683195,2.2162527799,1.8517805404\F,0,-1.8622252772,3.2276477654,2.0
 253382256\C,0,-2.1630638413,1.1168424689,1.0000427061\C,0,-0.786929129
 5,0.8976147052,0.9897048035\C,0,-0.2789047742,-0.1606018593,0.23852750
 21\C,0,1.2090273176,-0.3781153293,0.1686703267\F,0,1.7557034458,0.2956
 875628,-0.8682930274\F,0,1.8300631917,0.0467133469,1.2893867945\F,0,1.
 5154488231,-1.682205905,-0.0016089728\C,0,-1.1300488205,-0.9912788061,
 -0.4874857906\C,0,-2.5147805959,-0.7727191682,-0.484473859\C,0,-3.4215
 984457,-1.6480505395,-1.2581927932\C,0,-3.0489104849,-2.1454255669,-2.
 5177248807\N,0,-3.8200038593,-2.9419240135,-3.2581028662\C,0,-5.018882
 1045,-3.2750456022,-2.7669207893\C,0,-5.5150122241,-2.8372302658,-1.53
 35935293\C,0,-6.8787038464,-3.2489380363,-1.0446765658\C,0,-4.68361264
 19,-2.0102867191,-0.7759848423\C,0,-3.0191085155,0.2960849786,0.268731
 55\F,0,-3.0702776193,1.7619544771,3.0819302072\H,0,-0.123530054,1.5384
 922108,1.5562689438\H,0,-0.7159383405,-1.8285806979,-1.0365736517\H,0,
 -2.0907060092,-1.8652414705,-2.9502613156\H,0,-5.6253634383,-3.9315445
 704,-3.3888851877\H,0,-7.3500649608,-3.952629664,-1.7352663029\H,0,-6.
 8201997791,-3.7283162371,-0.0619136736\H,0,-7.5418476625,-2.3826274533
 ,-0.9448214229\H,0,-5.0086931882,-1.6667350221,0.2026403856\H,0,-4.082
 336087,0.5059780805,0.2645694759\\Version=ES64L-G16RevC.01\State=1-A\H
 F=-1192.8014562\RMSD=2.902e-09\Dipole=-1.2365783,-0.5452797,0.1507298\
 Quadrupole=6.4248968,-0.7938019,-5.6310949,6.2659284,0.64176,-3.742446
 4\PG=C01 [X(C14H9F6N1)]\\@
 The archive entry for this job was punched.


 I LOVE THOSE WHO LONG FOR THE IMPOSSIBLE.

                                 -- GOETHE
 Job cpu time:       0 days  1 hours 50 minutes 57.1 seconds.
 Elapsed time:       0 days  0 hours  7 minutes 19.9 seconds.
 File lengths (MBytes):  RWF=    276 Int=      0 D2E=      0 Chk=     44 Scr=      1
 Normal termination of Gaussian 16 at Wed Aug 14 20:14:44 2024.
 
 
-----Kestrel cluster job statistics-----
Time info:

real	40m0.651s
user	590m17.819s
sys	0m56.214s
 
Disk space usage:
44M	/scratch/362977.kestrel.chem.wisc.edu
