 Entering Gaussian System, Link 0=/share/apps/gaussian/g16/g16
 Initial command:
 /share/apps/gaussian/g16/l1.exe "/scratch/362959.kestrel.chem.wisc.edu/Gau-155445.inp" -scrdir="/scratch/362959.kestrel.chem.wisc.edu/"
 Entering Link 1 = /share/apps/gaussian/g16/l1.exe PID=    155446.
  
 Copyright (c) 1988-2019, Gaussian, Inc.  All Rights Reserved.
  
 This is part of the Gaussian(R) 16 program.  It is based on
 the Gaussian(R) 09 system (copyright 2009, Gaussian, Inc.),
 the Gaussian(R) 03 system (copyright 2003, Gaussian, Inc.),
 the Gaussian(R) 98 system (copyright 1998, Gaussian, Inc.),
 the Gaussian(R) 94 system (copyright 1995, Gaussian, Inc.),
 the Gaussian 92(TM) system (copyright 1992, Gaussian, Inc.),
 the Gaussian 90(TM) system (copyright 1990, Gaussian, Inc.),
 the Gaussian 88(TM) system (copyright 1988, Gaussian, Inc.),
 the Gaussian 86(TM) system (copyright 1986, Carnegie Mellon
 University), and the Gaussian 82(TM) system (copyright 1983,
 Carnegie Mellon University). Gaussian is a federally registered
 trademark of Gaussian, Inc.
  
 This software contains proprietary and confidential information,
 including trade secrets, belonging to Gaussian, Inc.
  
 This software is provided under written license and may be
 used, copied, transmitted, or stored only in accord with that
 written license.
  
 The following legend is applicable only to US Government
 contracts under FAR:
  
                    RESTRICTED RIGHTS LEGEND
  
 Use, reproduction and disclosure by the US Government is
 subject to restrictions as set forth in subparagraphs (a)
 and (c) of the Commercial Computer Software - Restricted
 Rights clause in FAR 52.227-19.
  
 Gaussian, Inc.
 340 Quinnipiac St., Bldg. 40, Wallingford CT 06492
  
  
 ---------------------------------------------------------------
 Warning -- This program may not be used in any manner that
 competes with the business of Gaussian, Inc. or will provide
 assistance to any competitor of Gaussian, Inc.  The licensee
 of this program is prohibited from giving any competitor of
 Gaussian, Inc. access to this program.  By using this program,
 the user acknowledges that Gaussian, Inc. is engaged in the
 business of creating and licensing software in the field of
 computational chemistry and represents and warrants to the
 licensee that it is not a competitor of Gaussian, Inc. and that
 it will not use this program in any manner prohibited above.
 ---------------------------------------------------------------
  

 Cite this work as:
 Gaussian 16, Revision C.01,
 M. J. Frisch, G. W. Trucks, H. B. Schlegel, G. E. Scuseria, 
 M. A. Robb, J. R. Cheeseman, G. Scalmani, V. Barone, 
 G. A. Petersson, H. Nakatsuji, X. Li, M. Caricato, A. V. Marenich, 
 J. Bloino, B. G. Janesko, R. Gomperts, B. Mennucci, H. P. Hratchian, 
 J. V. Ortiz, A. F. Izmaylov, J. L. Sonnenberg, D. Williams-Young, 
 F. Ding, F. Lipparini, F. Egidi, J. Goings, B. Peng, A. Petrone, 
 T. Henderson, D. Ranasinghe, V. G. Zakrzewski, J. Gao, N. Rega, 
 G. Zheng, W. Liang, M. Hada, M. Ehara, K. Toyota, R. Fukuda, 
 J. Hasegawa, M. Ishida, T. Nakajima, Y. Honda, O. Kitao, H. Nakai, 
 T. Vreven, K. Throssell, J. A. Montgomery, Jr., J. E. Peralta, 
 F. Ogliaro, M. J. Bearpark, J. J. Heyd, E. N. Brothers, K. N. Kudin, 
 V. N. Staroverov, T. A. Keith, R. Kobayashi, J. Normand, 
 K. Raghavachari, A. P. Rendell, J. C. Burant, S. S. Iyengar, 
 J. Tomasi, M. Cossi, J. M. Millam, M. Klene, C. Adamo, R. Cammi, 
 J. W. Ochterski, R. L. Martin, K. Morokuma, O. Farkas, 
 J. B. Foresman, and D. J. Fox, Gaussian, Inc., Wallingford CT, 2019.
 
 ******************************************
 Gaussian 16:  ES64L-G16RevC.01  3-Jul-2019
                14-Aug-2024 
 ******************************************
 %nprocs=16
 Will use up to   16 processors via shared memory.
 %mem=16GB
 %chk=pyrd12_conf-1.chk
 ----------------------------------------------------------------------
 # B3LYP/6-31G(d,p) symmetry=loose empiricaldispersion=GD3BJ int=(grid=
 ultrafine) opt freq=noraman
 ----------------------------------------------------------------------
 1/18=20,19=15,26=4,38=1/1,3;
 2/9=110,12=2,17=4,18=3,40=1/2;
 3/5=1,6=6,7=101,11=2,25=1,30=1,71=1,74=-5,75=-5,124=41/1,2,3;
 4//1;
 5/5=2,38=5/2;
 6/7=2,8=2,9=2,10=2,28=1/1;
 7//1,2,3,16;
 1/18=20,19=15,26=4/3(2);
 2/9=110/2;
 99//99;
 2/9=110/2;
 3/5=1,6=6,7=101,11=2,25=1,30=1,71=1,74=-5,75=-5,124=41/1,2,3;
 4/5=5,16=3,69=1/1;
 5/5=2,38=5/2;
 7//1,2,3,16;
 1/18=20,19=15,26=4/3(-5);
 2/9=110/2;
 6/7=2,8=2,9=2,10=2,19=2,28=1/1;
 99/9=1/99;
 ----------
 pyrd12.xyz
 ----------
 Symbolic Z-matrix:
 Charge =  0 Multiplicity = 1
 C                    -3.125    -1.5537    0.2544 
 O                    -1.7108   -1.3942    0.2504 
 C                    -1.1724   -0.1276    0.1351 
 C                     0.2248   -0.0227    0.1365 
 C                     1.1872   -1.1985    0.2738 
 C                     2.5283   -0.9314   -0.4752 
 C                     3.09      0.4947   -0.2642 
 N                     2.1485    1.4285   -0.0763 
 O                     4.2795    0.78     -0.31 
 C                     0.7801    1.2538    0.0217 
 N                     0.0594    2.3911   -0.0846 
 C                    -1.2895    2.2744   -0.0759 
 C                    -1.9396    1.0443    0.0269 
 H                    -3.5847   -1.0348    1.097 
 H                    -3.5716   -1.1968   -0.675 
 H                    -3.367    -2.6123    0.3494 
 H                     1.388    -1.364     1.3339 
 H                     0.7273   -2.1195   -0.0889 
 H                     3.2985   -1.6382   -0.1682 
 H                     2.3945   -1.0443   -1.5505 
 H                     2.5205    2.3557    0.0253 
 H                    -1.8496    3.1962   -0.1598 
 H                    -3.0165    1.0194    0.0243 
 

 GradGradGradGradGradGradGradGradGradGradGradGradGradGradGradGradGradGrad
 Berny optimization.
 Initialization pass.
                           ----------------------------
                           !    Initial Parameters    !
                           ! (Angstroms and Degrees)  !
 --------------------------                            --------------------------
 ! Name  Definition              Value          Derivative Info.                !
 --------------------------------------------------------------------------------
 ! R1    R(1,2)                  1.4232         estimate D2E/DX2                !
 ! R2    R(1,14)                 1.0911         estimate D2E/DX2                !
 ! R3    R(1,15)                 1.0912         estimate D2E/DX2                !
 ! R4    R(1,16)                 1.0901         estimate D2E/DX2                !
 ! R5    R(2,3)                  1.3811         estimate D2E/DX2                !
 ! R6    R(3,4)                  1.4011         estimate D2E/DX2                !
 ! R7    R(3,13)                 1.4049         estimate D2E/DX2                !
 ! R8    R(4,5)                  1.5256         estimate D2E/DX2                !
 ! R9    R(4,10)                 1.3968         estimate D2E/DX2                !
 ! R10   R(5,6)                  1.5591         estimate D2E/DX2                !
 ! R11   R(5,17)                 1.0916         estimate D2E/DX2                !
 ! R12   R(5,18)                 1.0915         estimate D2E/DX2                !
 ! R13   R(6,7)                  1.5472         estimate D2E/DX2                !
 ! R14   R(6,19)                 1.0895         estimate D2E/DX2                !
 ! R15   R(6,20)                 1.0895         estimate D2E/DX2                !
 ! R16   R(7,8)                  1.3393         estimate D2E/DX2                !
 ! R17   R(7,9)                  1.2241         estimate D2E/DX2                !
 ! R18   R(8,10)                 1.383          estimate D2E/DX2                !
 ! R19   R(8,21)                 1.0042         estimate D2E/DX2                !
 ! R20   R(10,11)                1.3506         estimate D2E/DX2                !
 ! R21   R(11,12)                1.354          estimate D2E/DX2                !
 ! R22   R(12,13)                1.3951         estimate D2E/DX2                !
 ! R23   R(12,22)                1.0819         estimate D2E/DX2                !
 ! R24   R(13,23)                1.0772         estimate D2E/DX2                !
 ! A1    A(2,1,14)             111.563          estimate D2E/DX2                !
 ! A2    A(2,1,15)             111.5714         estimate D2E/DX2                !
 ! A3    A(2,1,16)             109.2501         estimate D2E/DX2                !
 ! A4    A(14,1,15)            109.2546         estimate D2E/DX2                !
 ! A5    A(14,1,16)            107.518          estimate D2E/DX2                !
 ! A6    A(15,1,16)            107.5185         estimate D2E/DX2                !
 ! A7    A(1,2,3)              119.3664         estimate D2E/DX2                !
 ! A8    A(2,3,4)              117.2141         estimate D2E/DX2                !
 ! A9    A(2,3,13)             123.9559         estimate D2E/DX2                !
 ! A10   A(4,3,13)             118.8287         estimate D2E/DX2                !
 ! A11   A(3,4,5)              124.8505         estimate D2E/DX2                !
 ! A12   A(3,4,10)             117.696          estimate D2E/DX2                !
 ! A13   A(5,4,10)             117.4477         estimate D2E/DX2                !
 ! A14   A(4,5,6)              111.5517         estimate D2E/DX2                !
 ! A15   A(4,5,17)             108.6807         estimate D2E/DX2                !
 ! A16   A(4,5,18)             110.7701         estimate D2E/DX2                !
 ! A17   A(6,5,17)             109.5293         estimate D2E/DX2                !
 ! A18   A(6,5,18)             110.3256         estimate D2E/DX2                !
 ! A19   A(17,5,18)            105.8011         estimate D2E/DX2                !
 ! A20   A(5,6,7)              113.8703         estimate D2E/DX2                !
 ! A21   A(5,6,19)             111.1964         estimate D2E/DX2                !
 ! A22   A(5,6,20)             110.5338         estimate D2E/DX2                !
 ! A23   A(7,6,19)             107.6311         estimate D2E/DX2                !
 ! A24   A(7,6,20)             105.9447         estimate D2E/DX2                !
 ! A25   A(19,6,20)            107.3201         estimate D2E/DX2                !
 ! A26   A(6,7,8)              113.9904         estimate D2E/DX2                !
 ! A27   A(6,7,9)              124.2298         estimate D2E/DX2                !
 ! A28   A(8,7,9)              121.7262         estimate D2E/DX2                !
 ! A29   A(7,8,10)             128.1291         estimate D2E/DX2                !
 ! A30   A(7,8,21)             113.4252         estimate D2E/DX2                !
 ! A31   A(10,8,21)            118.4249         estimate D2E/DX2                !
 ! A32   A(4,10,8)             120.9729         estimate D2E/DX2                !
 ! A33   A(4,10,11)            124.3245         estimate D2E/DX2                !
 ! A34   A(8,10,11)            114.5845         estimate D2E/DX2                !
 ! A35   A(10,11,12)           117.2922         estimate D2E/DX2                !
 ! A36   A(11,12,13)           122.732          estimate D2E/DX2                !
 ! A37   A(11,12,22)           116.2211         estimate D2E/DX2                !
 ! A38   A(13,12,22)           121.046          estimate D2E/DX2                !
 ! A39   A(3,13,12)            119.1243         estimate D2E/DX2                !
 ! A40   A(3,13,23)            121.7934         estimate D2E/DX2                !
 ! A41   A(12,13,23)           119.082          estimate D2E/DX2                !
 ! D1    D(14,1,2,3)           -61.4262         estimate D2E/DX2                !
 ! D2    D(15,1,2,3)            61.089          estimate D2E/DX2                !
 ! D3    D(16,1,2,3)           179.8342         estimate D2E/DX2                !
 ! D4    D(1,2,3,4)            179.9825         estimate D2E/DX2                !
 ! D5    D(1,2,3,13)             0.4095         estimate D2E/DX2                !
 ! D6    D(2,3,4,5)             -0.8396         estimate D2E/DX2                !
 ! D7    D(2,3,4,10)          -179.9401         estimate D2E/DX2                !
 ! D8    D(13,3,4,5)           178.7561         estimate D2E/DX2                !
 ! D9    D(13,3,4,10)           -0.3443         estimate D2E/DX2                !
 ! D10   D(2,3,13,12)          179.5775         estimate D2E/DX2                !
 ! D11   D(2,3,13,23)           -0.2234         estimate D2E/DX2                !
 ! D12   D(4,3,13,12)            0.0109         estimate D2E/DX2                !
 ! D13   D(4,3,13,23)         -179.79           estimate D2E/DX2                !
 ! D14   D(3,4,5,6)            149.8749         estimate D2E/DX2                !
 ! D15   D(3,4,5,17)           -89.2652         estimate D2E/DX2                !
 ! D16   D(3,4,5,18)            26.5616         estimate D2E/DX2                !
 ! D17   D(10,4,5,6)           -31.0226         estimate D2E/DX2                !
 ! D18   D(10,4,5,17)           89.8373         estimate D2E/DX2                !
 ! D19   D(10,4,5,18)         -154.3359         estimate D2E/DX2                !
 ! D20   D(3,4,10,8)          -175.5384         estimate D2E/DX2                !
 ! D21   D(3,4,10,11)            0.2928         estimate D2E/DX2                !
 ! D22   D(5,4,10,8)             5.2935         estimate D2E/DX2                !
 ! D23   D(5,4,10,11)         -178.8754         estimate D2E/DX2                !
 ! D24   D(4,5,6,7)             43.423          estimate D2E/DX2                !
 ! D25   D(4,5,6,19)           165.2168         estimate D2E/DX2                !
 ! D26   D(4,5,6,20)           -75.6901         estimate D2E/DX2                !
 ! D27   D(17,5,6,7)           -76.94           estimate D2E/DX2                !
 ! D28   D(17,5,6,19)           44.8538         estimate D2E/DX2                !
 ! D29   D(17,5,6,20)          163.9468         estimate D2E/DX2                !
 ! D30   D(18,5,6,7)           166.9886         estimate D2E/DX2                !
 ! D31   D(18,5,6,19)          -71.2177         estimate D2E/DX2                !
 ! D32   D(18,5,6,20)           47.8754         estimate D2E/DX2                !
 ! D33   D(5,6,7,8)            -30.8632         estimate D2E/DX2                !
 ! D34   D(5,6,7,9)            151.7673         estimate D2E/DX2                !
 ! D35   D(19,6,7,8)          -154.6093         estimate D2E/DX2                !
 ! D36   D(19,6,7,9)            28.0211         estimate D2E/DX2                !
 ! D37   D(20,6,7,8)            90.8284         estimate D2E/DX2                !
 ! D38   D(20,6,7,9)           -86.5412         estimate D2E/DX2                !
 ! D39   D(6,7,8,10)             3.8717         estimate D2E/DX2                !
 ! D40   D(6,7,8,21)          -177.8329         estimate D2E/DX2                !
 ! D41   D(9,7,8,10)          -178.6851         estimate D2E/DX2                !
 ! D42   D(9,7,8,21)            -0.3898         estimate D2E/DX2                !
 ! D43   D(7,8,10,4)            10.1323         estimate D2E/DX2                !
 ! D44   D(7,8,10,11)         -166.0822         estimate D2E/DX2                !
 ! D45   D(21,8,10,4)         -168.0891         estimate D2E/DX2                !
 ! D46   D(21,8,10,11)          15.6964         estimate D2E/DX2                !
 ! D47   D(4,10,11,12)           0.1184         estimate D2E/DX2                !
 ! D48   D(8,10,11,12)         176.188          estimate D2E/DX2                !
 ! D49   D(10,11,12,13)         -0.484          estimate D2E/DX2                !
 ! D50   D(10,11,12,22)        179.8695         estimate D2E/DX2                !
 ! D51   D(11,12,13,3)           0.4248         estimate D2E/DX2                !
 ! D52   D(11,12,13,23)       -179.7689         estimate D2E/DX2                !
 ! D53   D(22,12,13,3)        -179.9453         estimate D2E/DX2                !
 ! D54   D(22,12,13,23)         -0.139          estimate D2E/DX2                !
 --------------------------------------------------------------------------------
 Trust Radius=3.00D-01 FncErr=1.00D-07 GrdErr=1.00D-06 EigMax=2.50D+02 EigMin=1.00D-04
 Number of steps in this run=    129 maximum allowed number of steps=    138.
 GradGradGradGradGradGradGradGradGradGradGradGradGradGradGradGradGradGrad

                          Input orientation:                          
 ---------------------------------------------------------------------
 Center     Atomic      Atomic             Coordinates (Angstroms)
 Number     Number       Type             X           Y           Z
 ---------------------------------------------------------------------
      1          6           0       -3.125000   -1.553700    0.254400
      2          8           0       -1.710800   -1.394200    0.250400
      3          6           0       -1.172400   -0.127600    0.135100
      4          6           0        0.224800   -0.022700    0.136500
      5          6           0        1.187200   -1.198500    0.273800
      6          6           0        2.528300   -0.931400   -0.475200
      7          6           0        3.090000    0.494700   -0.264200
      8          7           0        2.148500    1.428500   -0.076300
      9          8           0        4.279500    0.780000   -0.310000
     10          6           0        0.780100    1.253800    0.021700
     11          7           0        0.059400    2.391100   -0.084600
     12          6           0       -1.289500    2.274400   -0.075900
     13          6           0       -1.939600    1.044300    0.026900
     14          1           0       -3.584700   -1.034800    1.097000
     15          1           0       -3.571600   -1.196800   -0.675000
     16          1           0       -3.367000   -2.612300    0.349400
     17          1           0        1.388000   -1.364000    1.333900
     18          1           0        0.727300   -2.119500   -0.088900
     19          1           0        3.298500   -1.638200   -0.168200
     20          1           0        2.394500   -1.044300   -1.550500
     21          1           0        2.520500    2.355700    0.025300
     22          1           0       -1.849600    3.196200   -0.159800
     23          1           0       -3.016500    1.019400    0.024300
 ---------------------------------------------------------------------
                    Distance matrix (angstroms):
                    1          2          3          4          5
     1  C    0.000000
     2  O    1.423172   0.000000
     3  C    2.420876   1.381103   0.000000
     4  C    3.684972   2.374981   1.401133   0.000000
     5  C    4.326848   2.904694   2.594952   1.525638   0.000000
     6  C    5.734054   4.325581   3.835849   2.550691   1.559132
     7  C    6.564382   5.184635   4.326055   2.938985   2.603271
     8  N    6.067346   4.792553   3.673488   2.419067   2.819184
     9  O    7.784043   6.397256   5.544823   4.157437   3.717204
    10  C    4.815186   3.642635   2.394448   1.396778   2.498612
    11  N    5.081021   4.192175   2.812374   2.429542   3.779631
    12  C    4.258228   3.707100   2.414091   2.759508   4.279879
    13  C    2.864705   2.459387   1.404867   2.415601   3.855903
    14  H    1.091126   2.087439   2.750901   4.056994   4.845151
    15  H    1.091152   2.087560   2.748747   4.055822   4.852463
    16  H    1.090056   2.058292   3.322037   4.433101   4.769202
    17  H    4.644187   3.282902   3.085685   2.141468   1.091569
    18  H    3.908734   2.566226   2.761648   2.167921   1.091467
    19  H    6.437941   5.032678   4.728938   3.485730   2.201429
    20  H    5.829411   4.496572   4.050230   2.932104   2.193039
    21  H    6.870776   5.658297   4.451555   3.307475   3.804179
    22  H    4.935560   4.610781   3.404881   3.840865   5.359436
    23  H    2.585645   2.753441   2.174532   3.406551   4.759456
                    6          7          8          9         10
     6  C    0.000000
     7  C    1.547187   0.000000
     8  N    2.423324   1.339295   0.000000
     9  O    2.454156   1.224093   2.239716   0.000000
    10  C    2.842220   2.448185   1.382983   3.546874   0.000000
    11  N    4.157769   3.579543   2.300219   4.522797   1.350614
    12  C    5.001219   4.731047   3.540535   5.770771   2.309631
    13  C    4.910970   5.067906   4.107411   6.233824   2.727762
    14  H    6.312787   6.981680   6.349336   8.192606   5.044347
    15  H    6.108939   6.885263   6.322198   8.104365   5.042631
    16  H    6.185463   7.191857   6.850549   8.391154   5.679133
    17  H    2.181804   2.984207   3.219485   3.957261   2.990700
    18  H    2.191897   3.528048   3.822077   4.590655   3.375526
    19  H    1.089506   2.145216   3.276522   2.613457   3.839540
    20  H    1.089458   2.122925   2.889381   2.901747   3.218597
    21  H    3.324994   1.967603   1.004194   2.385233   2.059900
    22  H    6.025161   5.631043   4.372246   6.589875   3.274322
    23  H    5.899146   6.135787   5.182153   7.307577   3.803830
                   11         12         13         14         15
    11  N    0.000000
    12  C    1.353967   0.000000
    13  C    2.412945   1.395114   0.000000
    14  H    5.139303   4.194573   2.859043   0.000000
    15  H    5.138653   4.197157   2.859828   1.779438   0.000000
    16  H    6.079686   5.326981   3.938553   1.759206   1.759232
    17  H    4.228250   4.732282   4.310578   4.989212   5.353622
    18  H    4.559783   4.834667   4.139492   4.601769   4.435699
    19  H    5.170495   6.030481   5.888256   7.024476   6.902895
    20  H    4.404944   5.173014   5.063088   6.539127   6.031924
    21  H    2.463807   3.812211   4.648899   7.065232   7.086915
    22  H    2.073191   1.081881   2.161858   4.742518   4.746490
    23  H    3.369656   2.137193   1.077191   2.386058   2.389288
                   16         17         18         19         20
    16  H    0.000000
    17  H    5.013733   0.000000
    18  H    4.147077   1.741168   0.000000
    19  H    6.756158   2.445711   2.617061   0.000000
    20  H    6.266030   3.071647   2.464120   1.755188   0.000000
    21  H    7.710300   4.102579   4.822450   4.073569   3.749536
    22  H    6.024986   5.788663   5.907801   7.062183   6.158593
    23  H    3.663030   5.176415   4.886875   6.854132   6.001481
                   21         22         23
    21  H    0.000000
    22  H    4.454040   0.000000
    23  H    5.695969   2.476693   0.000000
 Stoichiometry    C9H10N2O2
 Framework group  C1[X(C9H10N2O2)]
 Deg. of freedom    63
 Full point group                 C1      NOp   1
 Largest Abelian subgroup         C1      NOp   1
 Largest concise Abelian subgroup C1      NOp   1
                         Standard orientation:                         
 ---------------------------------------------------------------------
 Center     Atomic      Atomic             Coordinates (Angstroms)
 Number     Number       Type             X           Y           Z
 ---------------------------------------------------------------------
      1          6           0        3.751504   -1.163877    0.053734
      2          8           0        2.335481   -1.263706   -0.047909
      3          6           0        1.571991   -0.113060   -0.024659
      4          6           0        0.182822   -0.263630   -0.128166
      5          6           0       -0.540380   -1.598117   -0.282090
      6          6           0       -1.960889   -1.557044    0.359284
      7          6           0       -2.750825   -0.263425    0.048895
      8          7           0       -1.979979    0.819850   -0.112424
      9          8           0       -3.972137   -0.197581   -0.000752
     10          6           0       -0.598978    0.893665   -0.107018
     11          7           0       -0.103602    2.145521    0.000763
     12          6           0        1.241071    2.275428    0.091332
     13          6           0        2.106644    1.181304    0.086789
     14          1           0        4.174008   -0.595106   -0.776053
     15          1           0        4.054696   -0.704712    0.995994
     16          1           0        4.185498   -2.163282    0.021129
     17          1           0       -0.626715   -1.828362   -1.345602
     18          1           0        0.047756   -2.409278    0.150825
     19          1           0       -2.566484   -2.400619    0.029650
     20          1           0       -1.891638   -1.612168    1.445141
     21          1           0       -2.502960    1.660725   -0.279237
     22          1           0        1.619174    3.285648    0.174761
     23          1           0        3.167229    1.352399    0.165696
 ---------------------------------------------------------------------
 Rotational constants (GHZ):           1.6100872           0.5614843           0.4225779
 Standard basis: 6-31G(d,p) (6D, 7F)
 There are   245 symmetry adapted cartesian basis functions of A   symmetry.
 There are   245 symmetry adapted basis functions of A   symmetry.
   245 basis functions,   434 primitive gaussians,   245 cartesian basis functions
    47 alpha electrons       47 beta electrons
       nuclear repulsion energy       778.2947938790 Hartrees.
 NAtoms=   23 NActive=   23 NUniq=   23 SFac= 1.00D+00 NAtFMM=   60 NAOKFM=F Big=F
 Integral buffers will be    131072 words long.
 Raffenetti 2 integral format.
 Two-electron integral symmetry is turned on.
 Nuclear repulsion after empirical dispersion term =      778.2508767791 Hartrees.
 One-electron integrals computed using PRISM.
 NBasis=   245 RedAO= T EigKep=  5.96D-04  NBF=   245
 NBsUse=   245 1.00D-06 EigRej= -1.00D+00 NBFU=   245
 ExpMin= 1.61D-01 ExpMax= 5.48D+03 ExpMxC= 8.25D+02 IAcc=3 IRadAn=         5 AccDes= 0.00D+00
 Harris functional with IExCor=  402 and IRadAn=       5 diagonalized for initial guess.
 HarFok:  IExCor=  402 AccDes= 0.00D+00 IRadAn=         5 IDoV= 1 UseB2=F ITyADJ=14
 ICtDFT=  3500011 ScaDFX=  1.000000  1.000000  1.000000  1.000000
 FoFCou: FMM=F IPFlag=           0 FMFlag=      100000 FMFlg1=           0
         NFxFlg=           0 DoJE=T BraDBF=F KetDBF=T FulRan=T
         wScrn=  0.000000 ICntrl=       500 IOpCl=  0 I1Cent=   200000004 NGrid=           0
         NMat0=    1 NMatS0=      1 NMatT0=    0 NMatD0=    1 NMtDS0=    0 NMtDT0=    0
 Petite list used in FoFCou.
 Requested convergence on RMS density matrix=1.00D-08 within 128 cycles.
 Requested convergence on MAX density matrix=1.00D-06.
 Requested convergence on             energy=1.00D-06.
 No special actions if energy rises.
 Integral accuracy reduced to 1.0D-05 until final iterations.
 Initial convergence to 1.0D-05 achieved.  Increase integral accuracy.
 SCF Done:  E(RB3LYP) =  -609.006326425     A.U. after   15 cycles
            NFock= 15  Conv=0.55D-08     -V/T= 2.0094

 **********************************************************************

            Population analysis using the SCF Density.

 **********************************************************************

 Orbital symmetries:
       Occupied  (A) (A) (A) (A) (A) (A) (A) (A) (A) (A) (A) (A)
                 (A) (A) (A) (A) (A) (A) (A) (A) (A) (A) (A) (A)
                 (A) (A) (A) (A) (A) (A) (A) (A) (A) (A) (A) (A)
                 (A) (A) (A) (A) (A) (A) (A) (A) (A) (A) (A)
       Virtual   (A) (A) (A) (A) (A) (A) (A) (A) (A) (A) (A) (A)
                 (A) (A) (A) (A) (A) (A) (A) (A) (A) (A) (A) (A)
                 (A) (A) (A) (A) (A) (A) (A) (A) (A) (A) (A) (A)
                 (A) (A) (A) (A) (A) (A) (A) (A) (A) (A) (A) (A)
                 (A) (A) (A) (A) (A) (A) (A) (A) (A) (A) (A) (A)
                 (A) (A) (A) (A) (A) (A) (A) (A) (A) (A) (A) (A)
                 (A) (A) (A) (A) (A) (A) (A) (A) (A) (A) (A) (A)
                 (A) (A) (A) (A) (A) (A) (A) (A) (A) (A) (A) (A)
                 (A) (A) (A) (A) (A) (A) (A) (A) (A) (A) (A) (A)
                 (A) (A) (A) (A) (A) (A) (A) (A) (A) (A) (A) (A)
                 (A) (A) (A) (A) (A) (A) (A) (A) (A) (A) (A) (A)
                 (A) (A) (A) (A) (A) (A) (A) (A) (A) (A) (A) (A)
                 (A) (A) (A) (A) (A) (A) (A) (A) (A) (A) (A) (A)
                 (A) (A) (A) (A) (A) (A) (A) (A) (A) (A) (A) (A)
                 (A) (A) (A) (A) (A) (A) (A) (A) (A) (A) (A) (A)
                 (A) (A) (A) (A) (A) (A) (A) (A) (A) (A) (A) (A)
                 (A) (A) (A) (A) (A) (A)
 The electronic state is 1-A.
 Alpha  occ. eigenvalues --  -19.19861 -19.11300 -14.37220 -14.32869 -10.28908
 Alpha  occ. eigenvalues --  -10.27415 -10.26889 -10.25580 -10.23127 -10.20759
 Alpha  occ. eigenvalues --  -10.20508 -10.19971 -10.19864  -1.07650  -1.03981
 Alpha  occ. eigenvalues --   -0.97317  -0.91133  -0.82640  -0.78158  -0.75981
 Alpha  occ. eigenvalues --   -0.72402  -0.66652  -0.64843  -0.62898  -0.57182
 Alpha  occ. eigenvalues --   -0.55965  -0.51248  -0.49864  -0.48712  -0.47742
 Alpha  occ. eigenvalues --   -0.46937  -0.44701  -0.44234  -0.42591  -0.41910
 Alpha  occ. eigenvalues --   -0.41574  -0.41221  -0.38049  -0.36839  -0.36065
 Alpha  occ. eigenvalues --   -0.34944  -0.34280  -0.30280  -0.26636  -0.25040
 Alpha  occ. eigenvalues --   -0.24853  -0.22905
 Alpha virt. eigenvalues --   -0.02056  -0.01661   0.04381   0.08312   0.09093
 Alpha virt. eigenvalues --    0.10703   0.11673   0.13375   0.13772   0.13977
 Alpha virt. eigenvalues --    0.15209   0.15656   0.17251   0.17720   0.19287
 Alpha virt. eigenvalues --    0.20535   0.21299   0.21714   0.23310   0.27850
 Alpha virt. eigenvalues --    0.28540   0.32455   0.33432   0.34495   0.38532
 Alpha virt. eigenvalues --    0.42119   0.44754   0.46872   0.48891   0.49880
 Alpha virt. eigenvalues --    0.50364   0.52038   0.52621   0.54468   0.55277
 Alpha virt. eigenvalues --    0.56097   0.57997   0.58508   0.60654   0.61619
 Alpha virt. eigenvalues --    0.62236   0.62995   0.63929   0.64764   0.66901
 Alpha virt. eigenvalues --    0.67745   0.69089   0.70817   0.73142   0.75124
 Alpha virt. eigenvalues --    0.78728   0.78947   0.80699   0.81350   0.82105
 Alpha virt. eigenvalues --    0.82794   0.83889   0.84572   0.85287   0.86245
 Alpha virt. eigenvalues --    0.86396   0.88859   0.89656   0.90573   0.91290
 Alpha virt. eigenvalues --    0.91889   0.93724   0.97400   0.99717   1.01649
 Alpha virt. eigenvalues --    1.03028   1.04698   1.06349   1.08470   1.11048
 Alpha virt. eigenvalues --    1.11787   1.17798   1.20400   1.22260   1.24866
 Alpha virt. eigenvalues --    1.25828   1.28127   1.29363   1.30613   1.34619
 Alpha virt. eigenvalues --    1.36137   1.37723   1.38898   1.41208   1.42759
 Alpha virt. eigenvalues --    1.44039   1.46879   1.48352   1.52985   1.58658
 Alpha virt. eigenvalues --    1.63487   1.64915   1.66441   1.69544   1.71384
 Alpha virt. eigenvalues --    1.73787   1.76389   1.78118   1.78412   1.80035
 Alpha virt. eigenvalues --    1.81819   1.83459   1.84029   1.85744   1.86365
 Alpha virt. eigenvalues --    1.88253   1.89114   1.89515   1.90363   1.91874
 Alpha virt. eigenvalues --    1.92765   1.94606   1.98087   2.00087   2.01243
 Alpha virt. eigenvalues --    2.02944   2.05743   2.06107   2.09317   2.12209
 Alpha virt. eigenvalues --    2.13130   2.13463   2.16298   2.17027   2.18946
 Alpha virt. eigenvalues --    2.21303   2.24898   2.27721   2.28886   2.29832
 Alpha virt. eigenvalues --    2.32128   2.33830   2.34973   2.39696   2.41136
 Alpha virt. eigenvalues --    2.41937   2.44651   2.45211   2.48090   2.49042
 Alpha virt. eigenvalues --    2.53134   2.53917   2.54805   2.55671   2.56974
 Alpha virt. eigenvalues --    2.60926   2.62186   2.64036   2.65270   2.65897
 Alpha virt. eigenvalues --    2.67778   2.70584   2.71109   2.73483   2.74146
 Alpha virt. eigenvalues --    2.74776   2.80821   2.83158   2.83698   2.84353
 Alpha virt. eigenvalues --    2.86314   2.89753   2.91857   2.99861   3.01806
 Alpha virt. eigenvalues --    3.06558   3.11987   3.15341   3.18598   3.26075
 Alpha virt. eigenvalues --    3.27402   3.29383   3.31938   3.36712   3.39705
 Alpha virt. eigenvalues --    3.44220   3.48039   3.48580   3.57366   3.70872
 Alpha virt. eigenvalues --    4.03535   4.06789   4.10954   4.15973   4.22811
 Alpha virt. eigenvalues --    4.32852   4.40585   4.43309   4.43805   4.49287
 Alpha virt. eigenvalues --    4.59982   4.69359   4.79756
          Condensed to atoms (all electrons):
               1          2          3          4          5          6
     1  C    4.719739   0.248158  -0.038849   0.005169  -0.000087  -0.000002
     2  O    0.248158   8.208473   0.293009  -0.065776  -0.003010   0.000177
     3  C   -0.038849   0.293009   4.630697   0.511995  -0.053502   0.004047
     4  C    0.005169  -0.065776   0.511995   5.035086   0.311036  -0.023607
     5  C   -0.000087  -0.003010  -0.053502   0.311036   5.066127   0.290305
     6  C   -0.000002   0.000177   0.004047  -0.023607   0.290305   5.201329
     7  C    0.000000  -0.000004   0.000452  -0.013666  -0.021695   0.332945
     8  N    0.000001  -0.000022   0.003797  -0.073475  -0.001431  -0.123974
     9  O   -0.000000  -0.000000   0.000002   0.000379   0.001892  -0.076048
    10  C   -0.000043   0.002648  -0.008821   0.457474  -0.055277  -0.007497
    11  N    0.000005   0.000013  -0.052937  -0.058379   0.006968  -0.000515
    12  C    0.000187   0.003626  -0.005838  -0.035668  -0.000446   0.000031
    13  C   -0.005931  -0.066004   0.432439  -0.056687   0.009316  -0.000110
    14  H    0.376452  -0.033766  -0.005490  -0.000129  -0.000000  -0.000000
    15  H    0.376472  -0.033686  -0.005785  -0.000446   0.000039   0.000001
    16  H    0.395741  -0.029352   0.002601   0.000040  -0.000027  -0.000000
    17  H   -0.000010   0.000726  -0.001695  -0.033766   0.380467  -0.038667
    18  H   -0.000192   0.007256  -0.006465  -0.026468   0.370300  -0.023807
    19  H   -0.000000  -0.000001  -0.000126   0.002606  -0.026159   0.365671
    20  H   -0.000000  -0.000002   0.000028   0.000261  -0.032307   0.369540
    21  H   -0.000000   0.000000   0.000020   0.006889  -0.000984   0.009108
    22  H   -0.000008  -0.000044   0.001829   0.000929   0.000017   0.000000
    23  H    0.004806  -0.007614  -0.040738   0.004531  -0.000085   0.000002
               7          8          9         10         11         12
     1  C    0.000000   0.000001  -0.000000  -0.000043   0.000005   0.000187
     2  O   -0.000004  -0.000022  -0.000000   0.002648   0.000013   0.003626
     3  C    0.000452   0.003797   0.000002  -0.008821  -0.052937  -0.005838
     4  C   -0.013666  -0.073475   0.000379   0.457474  -0.058379  -0.035668
     5  C   -0.021695  -0.001431   0.001892  -0.055277   0.006968  -0.000446
     6  C    0.332945  -0.123974  -0.076048  -0.007497  -0.000515   0.000031
     7  C    4.370853   0.257140   0.604392  -0.017792   0.002074  -0.000065
     8  N    0.257140   7.131169  -0.094411   0.231140  -0.092443   0.003348
     9  O    0.604392  -0.094411   8.052131   0.002212  -0.000055   0.000001
    10  C   -0.017792   0.231140   0.002212   4.611918   0.443166  -0.049372
    11  N    0.002074  -0.092443  -0.000055   0.443166   6.881700   0.463003
    12  C   -0.000065   0.003348   0.000001  -0.049372   0.463003   4.703516
    13  C   -0.000030   0.000621  -0.000000  -0.047164  -0.032546   0.471188
    14  H    0.000000   0.000000   0.000000   0.000008  -0.000004  -0.000081
    15  H   -0.000000   0.000000  -0.000000  -0.000014  -0.000004  -0.000041
    16  H    0.000000  -0.000000  -0.000000   0.000004   0.000000  -0.000001
    17  H   -0.001384   0.001697   0.000026  -0.004431  -0.000122   0.000035
    18  H    0.002199   0.000018  -0.000052   0.003195  -0.000112  -0.000006
    19  H   -0.024689   0.004483   0.002620   0.000752   0.000007  -0.000000
    20  H   -0.027859  -0.000427   0.000592   0.000888  -0.000031  -0.000010
    21  H   -0.015895   0.310712   0.007692  -0.019417   0.003505   0.000307
    22  H    0.000000  -0.000143  -0.000000   0.003391  -0.046612   0.386808
    23  H   -0.000000   0.000010   0.000000   0.000716   0.004895  -0.033109
              13         14         15         16         17         18
     1  C   -0.005931   0.376452   0.376472   0.395741  -0.000010  -0.000192
     2  O   -0.066004  -0.033766  -0.033686  -0.029352   0.000726   0.007256
     3  C    0.432439  -0.005490  -0.005785   0.002601  -0.001695  -0.006465
     4  C   -0.056687  -0.000129  -0.000446   0.000040  -0.033766  -0.026468
     5  C    0.009316  -0.000000   0.000039  -0.000027   0.380467   0.370300
     6  C   -0.000110  -0.000000   0.000001  -0.000000  -0.038667  -0.023807
     7  C   -0.000030   0.000000  -0.000000   0.000000  -0.001384   0.002199
     8  N    0.000621   0.000000   0.000000  -0.000000   0.001697   0.000018
     9  O   -0.000000   0.000000  -0.000000  -0.000000   0.000026  -0.000052
    10  C   -0.047164   0.000008  -0.000014   0.000004  -0.004431   0.003195
    11  N   -0.032546  -0.000004  -0.000004   0.000000  -0.000122  -0.000112
    12  C    0.471188  -0.000081  -0.000041  -0.000001   0.000035  -0.000006
    13  C    5.133934   0.004652   0.005245  -0.000025  -0.000165   0.000145
    14  H    0.004652   0.619836  -0.047521  -0.034909  -0.000003   0.000035
    15  H    0.005245  -0.047521   0.620026  -0.034875   0.000002  -0.000022
    16  H   -0.000025  -0.034909  -0.034875   0.569992  -0.000001  -0.000004
    17  H   -0.000165  -0.000003   0.000002  -0.000001   0.602322  -0.035221
    18  H    0.000145   0.000035  -0.000022  -0.000004  -0.035221   0.588817
    19  H    0.000002  -0.000000   0.000000   0.000000  -0.005305  -0.000419
    20  H   -0.000003  -0.000000   0.000000  -0.000000   0.005186  -0.006993
    21  H    0.000038  -0.000000   0.000000   0.000000  -0.000018   0.000026
    22  H   -0.055372   0.000003   0.000003  -0.000000   0.000000  -0.000000
    23  H    0.357546   0.001600   0.001423  -0.000131   0.000002  -0.000005
              19         20         21         22         23
     1  C   -0.000000  -0.000000  -0.000000  -0.000008   0.004806
     2  O   -0.000001  -0.000002   0.000000  -0.000044  -0.007614
     3  C   -0.000126   0.000028   0.000020   0.001829  -0.040738
     4  C    0.002606   0.000261   0.006889   0.000929   0.004531
     5  C   -0.026159  -0.032307  -0.000984   0.000017  -0.000085
     6  C    0.365671   0.369540   0.009108   0.000000   0.000002
     7  C   -0.024689  -0.027859  -0.015895   0.000000  -0.000000
     8  N    0.004483  -0.000427   0.310712  -0.000143   0.000010
     9  O    0.002620   0.000592   0.007692  -0.000000   0.000000
    10  C    0.000752   0.000888  -0.019417   0.003391   0.000716
    11  N    0.000007  -0.000031   0.003505  -0.046612   0.004895
    12  C   -0.000000  -0.000010   0.000307   0.386808  -0.033109
    13  C    0.000002  -0.000003   0.000038  -0.055372   0.357546
    14  H   -0.000000  -0.000000  -0.000000   0.000003   0.001600
    15  H    0.000000   0.000000   0.000000   0.000003   0.001423
    16  H    0.000000  -0.000000   0.000000  -0.000000  -0.000131
    17  H   -0.005305   0.005186  -0.000018   0.000000   0.000002
    18  H   -0.000419  -0.006993   0.000026  -0.000000  -0.000005
    19  H    0.572232  -0.025448  -0.000184   0.000000  -0.000000
    20  H   -0.025448   0.577776  -0.000261   0.000000   0.000000
    21  H   -0.000184  -0.000261   0.423044  -0.000048  -0.000001
    22  H    0.000000   0.000000  -0.000048   0.606239  -0.002478
    23  H   -0.000000   0.000000  -0.000001  -0.002478   0.620439
 Mulliken charges:
               1
     1  C   -0.081608
     2  O   -0.524805
     3  C    0.339330
     4  C    0.051676
     5  C   -0.241458
     6  C   -0.278928
     7  C    0.553026
     8  N   -0.557811
     9  O   -0.501371
    10  C    0.452313
    11  N   -0.521577
    12  C    0.092589
    13  C   -0.151089
    14  H    0.119318
    15  H    0.119183
    16  H    0.130946
    17  H    0.130323
    18  H    0.127774
    19  H    0.133957
    20  H    0.139071
    21  H    0.275467
    22  H    0.105485
    23  H    0.088189
 Sum of Mulliken charges =  -0.00000
 Mulliken charges with hydrogens summed into heavy atoms:
               1
     1  C    0.287840
     2  O   -0.524805
     3  C    0.339330
     4  C    0.051676
     5  C    0.016639
     6  C   -0.005900
     7  C    0.553026
     8  N   -0.282344
     9  O   -0.501371
    10  C    0.452313
    11  N   -0.521577
    12  C    0.198074
    13  C   -0.062900
 Electronic spatial extent (au):  <R**2>=           2542.0403
 Charge=              0.0000 electrons
 Dipole moment (field-independent basis, Debye):
    X=              5.6892    Y=             -1.1629    Z=              0.0791  Tot=              5.8074
 Quadrupole moment (field-independent basis, Debye-Ang):
   XX=            -78.4188   YY=            -72.7200   ZZ=            -74.6357
   XY=             -0.4741   XZ=              0.8666   YZ=             -0.5270
 Traceless Quadrupole moment (field-independent basis, Debye-Ang):
   XX=             -3.1606   YY=              2.5382   ZZ=              0.6225
   XY=             -0.4741   XZ=              0.8666   YZ=             -0.5270
 Octapole moment (field-independent basis, Debye-Ang**2):
  XXX=            142.0355  YYY=            -10.7858  ZZZ=              0.1388  XYY=              1.0591
  XXY=              1.0631  XXZ=              1.2552  XZZ=             -5.6214  YZZ=             -4.7767
  YYZ=              0.0199  XYZ=              1.8313
 Hexadecapole moment (field-independent basis, Debye-Ang**3):
 XXXX=          -2459.8283 YYYY=           -860.7197 ZZZZ=           -101.0389 XXXY=           -107.4254
 XXXZ=              7.9362 YYYX=              6.7237 YYYZ=              1.0047 ZZZX=             -1.3564
 ZZZY=             -1.0104 XXYY=           -462.1479 XXZZ=           -392.1116 YYZZ=           -167.4021
 XXYZ=             -3.9299 YYXZ=              6.7770 ZZXY=             -5.5147
 N-N= 7.782508767791D+02 E-N=-2.974382505241D+03  KE= 6.033195513289D+02
 Calling FoFJK, ICntrl=      2127 FMM=F ISym2X=0 I1Cent= 0 IOpClX= 0 NMat=1 NMatS=1 NMatT=0.
 ***** Axes restored to original set *****
 -------------------------------------------------------------------
 Center     Atomic                   Forces (Hartrees/Bohr)
 Number     Number              X              Y              Z
 -------------------------------------------------------------------
      1        6          -0.001794174    0.004590731   -0.000625459
      2        8           0.010076841    0.007945612   -0.000473850
      3        6          -0.008089380   -0.006491022    0.001764510
      4        6           0.010580763   -0.014420184    0.000033569
      5        6           0.001027364    0.006713800   -0.007243319
      6        6          -0.003325770    0.007822350    0.009503944
      7        6           0.015823258   -0.035027750   -0.003732714
      8        7          -0.006255602    0.016082934    0.009677661
      9        8          -0.003104889   -0.003061567   -0.000244497
     10        6          -0.026311242    0.014927459   -0.009534275
     11        7          -0.009199393   -0.002294560    0.001709473
     12        6           0.024161154   -0.013761530    0.002888912
     13        6          -0.001010193    0.002219618   -0.000552798
     14        1          -0.000618584    0.003475844    0.002321583
     15        1          -0.000649188    0.002992971   -0.002915049
     16        1           0.007670960   -0.002170249    0.000259119
     17        1           0.001820523    0.000024192    0.004062204
     18        1          -0.000777441    0.000375445   -0.001370735
     19        1           0.000947233   -0.000431337    0.000149377
     20        1          -0.001928958   -0.001040725   -0.004704118
     21        1          -0.003523956    0.010731941   -0.000846513
     22        1          -0.001643075    0.002279665    0.000048989
     23        1          -0.003876250   -0.001483638   -0.000176014
 -------------------------------------------------------------------
 Cartesian Forces:  Max     0.035027750 RMS     0.008489531

 GradGradGradGradGradGradGradGradGradGradGradGradGradGradGradGradGradGrad
 Berny optimization.
 FormGI is forming the generalized inverse of G from B-inverse, IUseBI=4.
 Internal  Forces:  Max     0.033131220 RMS     0.005534089
 Search for a local minimum.
 Step number   1 out of a maximum of  129
 All quantities printed in internal units (Hartrees-Bohrs-Radians)
 Mixed Optimization -- RFO/linear search
 Second derivative matrix not updated -- first step.
 ITU=  0
     Eigenvalues ---    0.00471   0.00976   0.01141   0.01385   0.01387
     Eigenvalues ---    0.01942   0.02017   0.02036   0.02077   0.02090
     Eigenvalues ---    0.02100   0.02199   0.02218   0.02269   0.03537
     Eigenvalues ---    0.03970   0.05289   0.05807   0.09095   0.09263
     Eigenvalues ---    0.09582   0.09949   0.10310   0.11953   0.15995
     Eigenvalues ---    0.16000   0.16000   0.16000   0.16000   0.16000
     Eigenvalues ---    0.20659   0.22370   0.22517   0.23884   0.24450
     Eigenvalues ---    0.24958   0.24976   0.24999   0.25000   0.26231
     Eigenvalues ---    0.27487   0.29224   0.34632   0.34644   0.34680
     Eigenvalues ---    0.34683   0.34806   0.34870   0.34875   0.35768
     Eigenvalues ---    0.36336   0.40706   0.41986   0.43100   0.44922
     Eigenvalues ---    0.45920   0.46886   0.46958   0.48901   0.52563
     Eigenvalues ---    0.53887   0.55438   0.93592
 RFO step:  Lambda=-1.07529891D-02 EMin= 4.71031144D-03
 Linear search not attempted -- first point.
 Iteration  1 RMS(Cart)=  0.04306892 RMS(Int)=  0.00067529
 Iteration  2 RMS(Cart)=  0.00094929 RMS(Int)=  0.00028852
 Iteration  3 RMS(Cart)=  0.00000052 RMS(Int)=  0.00028852
 Variable       Old X    -DE/DX   Delta X   Delta X   Delta X     New X
                                 (Linear)    (Quad)   (Total)
    R1        2.68940  -0.00558   0.00000  -0.01296  -0.01296   2.67644
    R2        2.06193   0.00371   0.00000   0.01036   0.01036   2.07229
    R3        2.06198   0.00373   0.00000   0.01042   0.01042   2.07240
    R4        2.05991   0.00043   0.00000   0.00119   0.00119   2.06110
    R5        2.60991  -0.02128   0.00000  -0.04258  -0.04258   2.56733
    R6        2.64776  -0.00756   0.00000  -0.01528  -0.01525   2.63251
    R7        2.65481  -0.00539   0.00000  -0.01096  -0.01106   2.64376
    R8        2.88304  -0.00782   0.00000  -0.02860  -0.02859   2.85445
    R9        2.63953   0.00140   0.00000   0.00314   0.00352   2.64305
   R10        2.94633  -0.01095   0.00000  -0.04428  -0.04447   2.90187
   R11        2.06277   0.00428   0.00000   0.01197   0.01197   2.07474
   R12        2.06257   0.00047   0.00000   0.00131   0.00131   2.06388
   R13        2.92376  -0.01054   0.00000  -0.03539  -0.03566   2.88810
   R14        2.05887   0.00099   0.00000   0.00276   0.00276   2.06162
   R15        2.05878   0.00499   0.00000   0.01388   0.01388   2.07265
   R16        2.53090   0.03313   0.00000   0.05898   0.05899   2.58989
   R17        2.31320  -0.00372   0.00000  -0.00393  -0.00393   2.30927
   R18        2.61346   0.00743   0.00000   0.01718   0.01742   2.63088
   R19        1.89765   0.00852   0.00000   0.01773   0.01773   1.91539
   R20        2.55229  -0.01036   0.00000  -0.01915  -0.01904   2.53325
   R21        2.55863  -0.01649   0.00000  -0.03066  -0.03068   2.52794
   R22        2.63638  -0.00344   0.00000  -0.00745  -0.00757   2.62881
   R23        2.04446   0.00279   0.00000   0.00757   0.00757   2.05203
   R24        2.03560   0.00391   0.00000   0.01045   0.01045   2.04605
    A1        1.94714   0.00031   0.00000   0.00245   0.00230   1.94944
    A2        1.94729   0.00044   0.00000   0.00326   0.00311   1.95040
    A3        1.90677  -0.01112   0.00000  -0.06642  -0.06665   1.84012
    A4        1.90685   0.00051   0.00000   0.00525   0.00516   1.91202
    A5        1.87654   0.00510   0.00000   0.02861   0.02837   1.90491
    A6        1.87655   0.00509   0.00000   0.02863   0.02841   1.90496
    A7        2.08334  -0.01059   0.00000  -0.04061  -0.04061   2.04273
    A8        2.04577  -0.00524   0.00000  -0.02144  -0.02149   2.02428
    A9        2.16344   0.00229   0.00000   0.00742   0.00738   2.17082
   A10        2.07395   0.00295   0.00000   0.01399   0.01407   2.08802
   A11        2.17905  -0.00444   0.00000  -0.01476  -0.01510   2.16395
   A12        2.05418  -0.00605   0.00000  -0.01841  -0.01833   2.03586
   A13        2.04985   0.01048   0.00000   0.03296   0.03309   2.08294
   A14        1.94694   0.00319   0.00000  -0.00195  -0.00230   1.94465
   A15        1.89684  -0.00028   0.00000   0.00810   0.00824   1.90507
   A16        1.93330  -0.00183   0.00000  -0.01076  -0.01069   1.92261
   A17        1.91165  -0.00111   0.00000  -0.00485  -0.00474   1.90691
   A18        1.92555  -0.00126   0.00000  -0.00072  -0.00069   1.92486
   A19        1.84658   0.00119   0.00000   0.01098   0.01096   1.85754
   A20        1.98741   0.00075   0.00000  -0.00683  -0.00741   1.98000
   A21        1.94074  -0.00011   0.00000   0.00095   0.00111   1.94185
   A22        1.92918  -0.00103   0.00000  -0.00495  -0.00482   1.92436
   A23        1.87852  -0.00069   0.00000  -0.00423  -0.00408   1.87444
   A24        1.84908   0.00080   0.00000   0.01306   0.01327   1.86235
   A25        1.87309   0.00031   0.00000   0.00305   0.00298   1.87606
   A26        1.98951   0.00247   0.00000   0.01308   0.01281   2.00231
   A27        2.16822  -0.00386   0.00000  -0.01711  -0.01708   2.15114
   A28        2.12452   0.00137   0.00000   0.00307   0.00308   2.12760
   A29        2.23627  -0.00785   0.00000  -0.02699  -0.02692   2.20936
   A30        1.97964   0.01056   0.00000   0.05288   0.05250   2.03214
   A31        2.06690  -0.00269   0.00000  -0.02490  -0.02527   2.04164
   A32        2.11138  -0.00930   0.00000  -0.03198  -0.03240   2.07897
   A33        2.16987   0.00549   0.00000   0.02024   0.01948   2.18935
   A34        1.99988   0.00397   0.00000   0.01626   0.01496   2.01484
   A35        2.04713  -0.00483   0.00000  -0.02408  -0.02373   2.02340
   A36        2.14208   0.00776   0.00000   0.03066   0.03067   2.17274
   A37        2.02844  -0.00364   0.00000  -0.01396  -0.01397   2.01447
   A38        2.11265  -0.00412   0.00000  -0.01674  -0.01675   2.09590
   A39        2.07911  -0.00533   0.00000  -0.02254  -0.02262   2.05649
   A40        2.12570   0.00127   0.00000   0.00305   0.00307   2.12876
   A41        2.07837   0.00407   0.00000   0.01945   0.01947   2.09784
    D1       -1.07209  -0.00061   0.00000  -0.00568  -0.00555  -1.07763
    D2        1.06620   0.00059   0.00000   0.00522   0.00510   1.07130
    D3        3.13870   0.00002   0.00000   0.00003   0.00001   3.13871
    D4        3.14129   0.00013   0.00000   0.00240   0.00250  -3.13940
    D5        0.00715   0.00016   0.00000   0.00724   0.00714   0.01428
    D6       -0.01465  -0.00050   0.00000  -0.02180  -0.02128  -0.03593
    D7       -3.14055  -0.00006   0.00000  -0.00502  -0.00491   3.13772
    D8        3.11988  -0.00053   0.00000  -0.02640  -0.02570   3.09418
    D9       -0.00601  -0.00009   0.00000  -0.00962  -0.00934  -0.01535
   D10        3.13422  -0.00033   0.00000  -0.01585  -0.01549   3.11873
   D11       -0.00390  -0.00010   0.00000  -0.00477  -0.00466  -0.00856
   D12        0.00019  -0.00026   0.00000  -0.01080  -0.01055  -0.01036
   D13       -3.13793  -0.00003   0.00000   0.00028   0.00028  -3.13765
   D14        2.61581  -0.00057   0.00000   0.01696   0.01697   2.63278
   D15       -1.55797  -0.00014   0.00000   0.01506   0.01506  -1.54291
   D16        0.46359   0.00010   0.00000   0.02704   0.02707   0.49066
   D17       -0.54145  -0.00115   0.00000  -0.00020  -0.00025  -0.54169
   D18        1.56796  -0.00071   0.00000  -0.00210  -0.00216   1.56580
   D19       -2.69367  -0.00047   0.00000   0.00988   0.00986  -2.68381
   D20       -3.06372  -0.00263   0.00000  -0.05607  -0.05577  -3.11950
   D21        0.00511   0.00036   0.00000   0.02423   0.02441   0.02952
   D22        0.09239  -0.00209   0.00000  -0.04015  -0.03979   0.05260
   D23       -3.12196   0.00089   0.00000   0.04014   0.04040  -3.08157
   D24        0.75788   0.00117   0.00000   0.02998   0.03002   0.78790
   D25        2.88358   0.00072   0.00000   0.02015   0.02014   2.90372
   D26       -1.32104   0.00037   0.00000   0.02134   0.02143  -1.29961
   D27       -1.34286   0.00021   0.00000   0.02430   0.02434  -1.31852
   D28        0.78285  -0.00023   0.00000   0.01448   0.01446   0.79730
   D29        2.86141  -0.00058   0.00000   0.01567   0.01575   2.87716
   D30        2.91450   0.00016   0.00000   0.01425   0.01423   2.92873
   D31       -1.24298  -0.00029   0.00000   0.00442   0.00435  -1.23864
   D32        0.83558  -0.00064   0.00000   0.00561   0.00564   0.84122
   D33       -0.53866  -0.00069   0.00000  -0.03514  -0.03494  -0.57361
   D34        2.64884  -0.00024   0.00000  -0.01181  -0.01186   2.63698
   D35       -2.69844  -0.00055   0.00000  -0.02859  -0.02840  -2.72684
   D36        0.48906  -0.00010   0.00000  -0.00525  -0.00531   0.48375
   D37        1.58525  -0.00097   0.00000  -0.03641  -0.03631   1.54894
   D38       -1.51043  -0.00052   0.00000  -0.01307  -0.01323  -1.52366
   D39        0.06757  -0.00034   0.00000  -0.00150  -0.00193   0.06564
   D40       -3.10377   0.00067   0.00000   0.03865   0.03891  -3.06486
   D41       -3.11864  -0.00093   0.00000  -0.02479  -0.02527   3.13927
   D42       -0.00680   0.00008   0.00000   0.01536   0.01557   0.00877
   D43        0.17684   0.00090   0.00000   0.03909   0.03822   0.21507
   D44       -2.89868  -0.00194   0.00000  -0.03422  -0.03455  -2.93323
   D45       -2.93371  -0.00034   0.00000  -0.00392  -0.00396  -2.93767
   D46        0.27395  -0.00318   0.00000  -0.07724  -0.07673   0.19722
   D47        0.00207  -0.00021   0.00000  -0.01617  -0.01662  -0.01455
   D48        3.07506   0.00209   0.00000   0.05769   0.05916   3.13422
   D49       -0.00845  -0.00026   0.00000  -0.00674  -0.00668  -0.01512
   D50        3.13931  -0.00007   0.00000   0.00023   0.00027   3.13958
   D51        0.00741   0.00051   0.00000   0.02003   0.01992   0.02734
   D52       -3.13756   0.00028   0.00000   0.00923   0.00926  -3.12830
   D53       -3.14064   0.00032   0.00000   0.01275   0.01270  -3.12794
   D54       -0.00243   0.00009   0.00000   0.00195   0.00204  -0.00039
         Item               Value     Threshold  Converged?
 Maximum Force            0.033131     0.000450     NO 
 RMS     Force            0.005534     0.000300     NO 
 Maximum Displacement     0.215187     0.001800     NO 
 RMS     Displacement     0.043237     0.001200     NO 
 Predicted change in Energy=-5.719499D-03
 GradGradGradGradGradGradGradGradGradGradGradGradGradGradGradGradGradGrad

                          Input orientation:                          
 ---------------------------------------------------------------------
 Center     Atomic      Atomic             Coordinates (Angstroms)
 Number     Number       Type             X           Y           Z
 ---------------------------------------------------------------------
      1          6           0       -3.067129   -1.522592    0.254136
      2          8           0       -1.657605   -1.384647    0.241589
      3          6           0       -1.161289   -0.125849    0.119884
      4          6           0        0.227371   -0.015909    0.107275
      5          6           0        1.168521   -1.186985    0.263640
      6          6           0        2.495400   -0.941852   -0.469419
      7          6           0        3.071657    0.453853   -0.233441
      8          7           0        2.134795    1.440298   -0.067566
      9          8           0        4.268604    0.698331   -0.262817
     10          6           0        0.753354    1.273569   -0.022279
     11          7           0        0.034169    2.402055   -0.101887
     12          6           0       -1.294740    2.252451   -0.068138
     13          6           0       -1.947427    1.027443    0.024226
     14          1           0       -3.518252   -0.997675    1.104725
     15          1           0       -3.518748   -1.165138   -0.679111
     16          1           0       -3.253128   -2.592590    0.354680
     17          1           0        1.368896   -1.348041    1.331023
     18          1           0        0.696378   -2.100881   -0.103354
     19          1           0        3.254595   -1.663907   -0.165344
     20          1           0        2.355963   -1.046420   -1.552284
     21          1           0        2.486900    2.386539    0.021837
     22          1           0       -1.869066    3.171865   -0.131205
     23          1           0       -3.029320    0.986182    0.033932
 ---------------------------------------------------------------------
                    Distance matrix (angstroms):
                    1          2          3          4          5
     1  C    0.000000
     2  O    1.416314   0.000000
     3  C    2.366673   1.358571   0.000000
     4  C    3.625657   2.333370   1.393062   0.000000
     5  C    4.248936   2.833116   2.564116   1.510508   0.000000
     6  C    5.639372   4.236631   3.792692   2.516725   1.535601
     7  C    6.467515   5.096239   4.287041   2.902883   2.561516
     8  N    5.995183   4.739008   3.654056   2.406112   2.818865
     9  O    7.681974   6.301839   5.505404   4.120519   3.666346
    10  C    4.742469   3.598397   2.375803   1.398641   2.511661
    11  N    5.014743   4.161632   2.805102   2.434671   3.781742
    12  C    4.182842   3.668253   2.389450   2.737343   4.243519
    13  C    2.794506   2.439144   1.399016   2.413551   3.830163
    14  H    1.096609   2.087286   2.699124   3.998558   4.765408
    15  H    1.096669   2.087996   2.697430   3.996566   4.781187
    16  H    1.090688   2.004397   3.242797   4.337553   4.640581
    17  H    4.568202   3.216818   3.059812   2.138975   1.097905
    18  H    3.824422   2.484595   2.720572   2.147427   1.092158
    19  H    6.337202   4.936931   4.684764   3.457501   2.182473
    20  H    5.735836   4.409207   4.001832   2.889117   2.174248
    21  H    6.795771   5.607768   4.430687   3.299171   3.816631
    22  H    4.860223   4.576625   3.382146   3.822803   5.327515
    23  H    2.518703   2.746917   2.175670   3.408166   4.732577
                    6          7          8          9         10
     6  C    0.000000
     7  C    1.528316   0.000000
     8  N    2.442573   1.370510   0.000000
     9  O    2.424281   1.222013   2.267549   0.000000
    10  C    2.853550   2.468006   1.392203   3.570118   0.000000
    11  N    4.168267   3.610974   2.310582   4.567168   1.340539
    12  C    4.972902   4.725220   3.524387   5.779619   2.270463
    13  C    4.884723   5.058320   4.104074   6.231353   2.712372
    14  H    6.216515   6.879283   6.266971   8.085898   4.967425
    15  H    6.021943   6.800970   6.254985   8.018022   4.962820
    16  H    6.037354   7.044828   6.743307   8.233342   5.580428
    17  H    2.162311   2.931512   3.212085   3.890536   3.013828
    18  H    2.171135   3.490779   3.822339   4.541125   3.375905
    19  H    1.090964   2.126738   3.301455   2.572525   3.860757
    20  H    1.096801   2.121881   2.904663   2.892244   3.208055
    21  H    3.364461   2.035285   1.013579   2.470940   2.060541
    22  H    6.007131   5.639928   4.362715   6.618662   3.239210
    23  H    5.873091   6.129990   5.185037   7.309625   3.793991
                   11         12         13         14         15
    11  N    0.000000
    12  C    1.337729   0.000000
    13  C    2.414992   1.391106   0.000000
    14  H    5.062980   4.108884   2.781379   0.000000
    15  H    5.067669   4.123035   2.787677   1.791680   0.000000
    16  H    5.996769   5.242945   3.862472   1.782305   1.782385
    17  H    4.230597   4.692137   4.283532   4.904915   5.288021
    18  H    4.551368   4.787200   4.097852   4.521021   4.355961
    19  H    5.187217   6.003646   5.860064   6.923035   6.811087
    20  H    4.402994   5.139345   5.030453   6.447362   5.940434
    21  H    2.455899   3.785086   4.637932   6.977636   7.012385
    22  H    2.053234   1.085887   2.151475   4.651065   4.672392
    23  H    3.377588   2.150028   1.082722   2.306803   2.318653
                   16         17         18         19         20
    16  H    0.000000
    17  H    4.885208   0.000000
    18  H    4.006267   1.753991   0.000000
    19  H    6.594190   2.427910   2.596009   0.000000
    20  H    6.122831   3.062472   2.442439   1.764208   0.000000
    21  H    7.605947   4.112298   4.833071   4.126804   3.778916
    22  H    5.948164   5.749093   5.863798   7.045408   6.137122
    23  H    3.600080   5.145420   4.840416   6.822776   5.970663
                   21         22         23
    21  H    0.000000
    22  H    4.428837   0.000000
    23  H    5.691206   2.480054   0.000000
 Stoichiometry    C9H10N2O2
 Framework group  C1[X(C9H10N2O2)]
 Deg. of freedom    63
 Full point group                 C1      NOp   1
 Largest Abelian subgroup         C1      NOp   1
 Largest concise Abelian subgroup C1      NOp   1
                         Standard orientation:                         
 ---------------------------------------------------------------------
 Center     Atomic      Atomic             Coordinates (Angstroms)
 Number     Number       Type             X           Y           Z
 ---------------------------------------------------------------------
      1          6           0        3.670636   -1.191279    0.034975
      2          8           0        2.260508   -1.291331   -0.051468
      3          6           0        1.555704   -0.130389   -0.017123
      4          6           0        0.170717   -0.254535   -0.100921
      5          6           0       -0.550390   -1.571187   -0.268450
      6          6           0       -1.948973   -1.529080    0.364214
      7          6           0       -2.729173   -0.257905    0.030816
      8          7           0       -1.958524    0.865959   -0.115223
      9          8           0       -3.949008   -0.216809   -0.029414
     10          6           0       -0.568901    0.931909   -0.062030
     11          7           0       -0.053549    2.166956    0.016169
     12          6           0        1.280741    2.241334    0.076658
     13          6           0        2.131658    1.140833    0.080425
     14          1           0        4.089161   -0.625188   -0.805815
     15          1           0        3.988427   -0.733952    0.979720
     16          1           0        4.037505   -2.217561   -0.006885
     17          1           0       -0.643784   -1.797087   -1.338797
     18          1           0        0.038391   -2.380952    0.167930
     19          1           0       -2.554564   -2.377433    0.042097
     20          1           0       -1.872785   -1.574640    1.457417
     21          1           0       -2.454625    1.736464   -0.268347
     22          1           0        1.689317    3.245563    0.137816
     23          1           0        3.203351    1.281299    0.143917
 ---------------------------------------------------------------------
 Rotational constants (GHZ):           1.6123103           0.5742414           0.4297386
 Standard basis: 6-31G(d,p) (6D, 7F)
 There are   245 symmetry adapted cartesian basis functions of A   symmetry.
 There are   245 symmetry adapted basis functions of A   symmetry.
   245 basis functions,   434 primitive gaussians,   245 cartesian basis functions
    47 alpha electrons       47 beta electrons
       nuclear repulsion energy       782.7489620630 Hartrees.
 NAtoms=   23 NActive=   23 NUniq=   23 SFac= 1.00D+00 NAtFMM=   60 NAOKFM=F Big=F
 Integral buffers will be    131072 words long.
 Raffenetti 2 integral format.
 Two-electron integral symmetry is turned on.
 Nuclear repulsion after empirical dispersion term =      782.7047205795 Hartrees.
 One-electron integrals computed using PRISM.
 NBasis=   245 RedAO= T EigKep=  6.00D-04  NBF=   245
 NBsUse=   245 1.00D-06 EigRej= -1.00D+00 NBFU=   245
 Initial guess from the checkpoint file:  "pyrd12_conf-1.chk"
 B after Tr=    -0.000000   -0.000000   -0.000000
         Rot=    0.999983   -0.000552   -0.000246    0.005856 Ang=  -0.67 deg.
 ExpMin= 1.61D-01 ExpMax= 5.48D+03 ExpMxC= 8.25D+02 IAcc=3 IRadAn=         5 AccDes= 0.00D+00
 Harris functional with IExCor=  402 and IRadAn=       5 diagonalized for initial guess.
 HarFok:  IExCor=  402 AccDes= 0.00D+00 IRadAn=         5 IDoV= 1 UseB2=F ITyADJ=14
 ICtDFT=  3500011 ScaDFX=  1.000000  1.000000  1.000000  1.000000
 FoFCou: FMM=F IPFlag=           0 FMFlag=      100000 FMFlg1=           0
         NFxFlg=           0 DoJE=T BraDBF=F KetDBF=T FulRan=T
         wScrn=  0.000000 ICntrl=       500 IOpCl=  0 I1Cent=   200000004 NGrid=           0
         NMat0=    1 NMatS0=      1 NMatT0=    0 NMatD0=    1 NMtDS0=    0 NMtDT0=    0
 Petite list used in FoFCou.
 Requested convergence on RMS density matrix=1.00D-08 within 128 cycles.
 Requested convergence on MAX density matrix=1.00D-06.
 Requested convergence on             energy=1.00D-06.
 No special actions if energy rises.
 Integral accuracy reduced to 1.0D-05 until final iterations.
 Initial convergence to 1.0D-05 achieved.  Increase integral accuracy.
 SCF Done:  E(RB3LYP) =  -609.011810564     A.U. after   12 cycles
            NFock= 12  Conv=0.92D-08     -V/T= 2.0092
 Calling FoFJK, ICntrl=      2127 FMM=F ISym2X=0 I1Cent= 0 IOpClX= 0 NMat=1 NMatS=1 NMatT=0.
 ***** Axes restored to original set *****
 -------------------------------------------------------------------
 Center     Atomic                   Forces (Hartrees/Bohr)
 Number     Number              X              Y              Z
 -------------------------------------------------------------------
      1        6          -0.003895988   -0.005428586    0.000527816
      2        8           0.001330283    0.003545717   -0.000171256
      3        6          -0.000831585   -0.003517192    0.000712894
      4        6           0.006471527   -0.001311122   -0.001154641
      5        6          -0.001255334    0.000913992   -0.001283296
      6        6          -0.000545538    0.002962927    0.003005056
      7        6           0.006638710   -0.008821204   -0.004816262
      8        7           0.001718795    0.006301445    0.004394850
      9        8          -0.003198205    0.000259088    0.001733917
     10        6          -0.002709608    0.002366836   -0.000787228
     11        7          -0.000592717   -0.002790980    0.000716325
     12        6           0.002493263    0.000748552   -0.000844080
     13        6          -0.003259409    0.002421857    0.000046091
     14        1           0.000310321    0.000282321   -0.000414977
     15        1           0.000360049    0.000410167    0.000344291
     16        1          -0.001003895    0.000166881   -0.000016528
     17        1          -0.000270076    0.000010786    0.000683760
     18        1          -0.000286292   -0.000019270    0.000414515
     19        1           0.000674759    0.000188573   -0.000932975
     20        1          -0.000206977    0.000365787   -0.000501718
     21        1          -0.001519884   -0.000245480   -0.001789408
     22        1          -0.001495401    0.000464624    0.000236285
     23        1           0.001073203    0.000724280   -0.000103431
 -------------------------------------------------------------------
 Cartesian Forces:  Max     0.008821204 RMS     0.002469167

 GradGradGradGradGradGradGradGradGradGradGradGradGradGradGradGradGradGrad
 Berny optimization.
 Using GEDIIS/GDIIS optimizer.
 FormGI is forming the generalized inverse of G from B-inverse, IUseBI=4.
 Internal  Forces:  Max     0.007880182 RMS     0.001447742
 Search for a local minimum.
 Step number   2 out of a maximum of  129
 All quantities printed in internal units (Hartrees-Bohrs-Radians)
 Mixed Optimization -- RFO/linear search
 Update second derivatives using D2CorX and points    1    2
 DE= -5.48D-03 DEPred=-5.72D-03 R= 9.59D-01
 TightC=F SS=  1.41D+00  RLast= 2.54D-01 DXNew= 5.0454D-01 7.6269D-01
 Trust test= 9.59D-01 RLast= 2.54D-01 DXMaxT set to 5.05D-01
 ITU=  1  0
 Use linear search instead of GDIIS.
     Eigenvalues ---    0.00486   0.00975   0.01165   0.01373   0.01385
     Eigenvalues ---    0.01942   0.02017   0.02034   0.02077   0.02092
     Eigenvalues ---    0.02110   0.02201   0.02223   0.02267   0.03598
     Eigenvalues ---    0.04062   0.05309   0.05833   0.09067   0.09174
     Eigenvalues ---    0.09502   0.09987   0.10675   0.11923   0.15550
     Eigenvalues ---    0.15999   0.15999   0.16000   0.16000   0.16451
     Eigenvalues ---    0.20562   0.22008   0.22295   0.23908   0.24446
     Eigenvalues ---    0.24666   0.24926   0.24990   0.25422   0.27011
     Eigenvalues ---    0.28039   0.28828   0.34567   0.34644   0.34681
     Eigenvalues ---    0.34724   0.34806   0.34833   0.34870   0.35722
     Eigenvalues ---    0.36421   0.40599   0.42252   0.43288   0.44961
     Eigenvalues ---    0.45546   0.46333   0.47154   0.50438   0.52713
     Eigenvalues ---    0.53813   0.54001   0.93527
 RFO step:  Lambda=-1.06773430D-03 EMin= 4.86081865D-03
 Quartic linear search produced a step of  0.01491.
 Iteration  1 RMS(Cart)=  0.02248776 RMS(Int)=  0.00026438
 Iteration  2 RMS(Cart)=  0.00035974 RMS(Int)=  0.00007675
 Iteration  3 RMS(Cart)=  0.00000007 RMS(Int)=  0.00007675
 Variable       Old X    -DE/DX   Delta X   Delta X   Delta X     New X
                                 (Linear)    (Quad)   (Total)
    R1        2.67644   0.00466  -0.00019   0.01025   0.01005   2.68650
    R2        2.07229  -0.00032   0.00015  -0.00015   0.00000   2.07229
    R3        2.07240  -0.00031   0.00016  -0.00012   0.00003   2.07244
    R4        2.06110   0.00001   0.00002   0.00011   0.00013   2.06123
    R5        2.56733   0.00203  -0.00063   0.00104   0.00040   2.56773
    R6        2.63251   0.00527  -0.00023   0.01095   0.01073   2.64323
    R7        2.64376   0.00361  -0.00016   0.00777   0.00759   2.65135
    R8        2.85445  -0.00195  -0.00043  -0.00978  -0.01024   2.84420
    R9        2.64305   0.00096   0.00005   0.00273   0.00278   2.64582
   R10        2.90187   0.00029  -0.00066  -0.00405  -0.00475   2.89711
   R11        2.07474   0.00061   0.00018   0.00268   0.00285   2.07759
   R12        2.06388   0.00000   0.00002   0.00010   0.00012   2.06400
   R13        2.88810  -0.00269  -0.00053  -0.01308  -0.01359   2.87451
   R14        2.06162   0.00008   0.00004   0.00045   0.00049   2.06211
   R15        2.07265   0.00049   0.00021   0.00244   0.00265   2.07530
   R16        2.58989   0.00624   0.00088   0.01604   0.01697   2.60686
   R17        2.30927  -0.00312  -0.00006  -0.00367  -0.00373   2.30554
   R18        2.63088   0.00311   0.00026   0.00888   0.00916   2.64005
   R19        1.91539  -0.00091   0.00026  -0.00065  -0.00039   1.91500
   R20        2.53325  -0.00136  -0.00028  -0.00428  -0.00455   2.52870
   R21        2.52794  -0.00039  -0.00046  -0.00330  -0.00376   2.52418
   R22        2.62881   0.00055  -0.00011   0.00069   0.00057   2.62938
   R23        2.05203   0.00117   0.00011   0.00387   0.00398   2.05601
   R24        2.04605  -0.00110   0.00016  -0.00228  -0.00213   2.04392
    A1        1.94944  -0.00069   0.00003  -0.00518  -0.00517   1.94426
    A2        1.95040  -0.00081   0.00005  -0.00585  -0.00583   1.94457
    A3        1.84012   0.00202  -0.00099   0.00965   0.00865   1.84877
    A4        1.91202  -0.00027   0.00008  -0.00451  -0.00448   1.90754
    A5        1.90491  -0.00009   0.00042   0.00332   0.00374   1.90865
    A6        1.90496  -0.00006   0.00042   0.00352   0.00394   1.90890
    A7        2.04273   0.00788  -0.00061   0.02880   0.02820   2.07093
    A8        2.02428  -0.00026  -0.00032  -0.00335  -0.00367   2.02061
    A9        2.17082   0.00168   0.00011   0.00660   0.00671   2.17753
   A10        2.08802  -0.00142   0.00021  -0.00326  -0.00304   2.08498
   A11        2.16395  -0.00101  -0.00023  -0.00387  -0.00415   2.15979
   A12        2.03586   0.00004  -0.00027   0.00075   0.00045   2.03631
   A13        2.08294   0.00096   0.00049   0.00262   0.00304   2.08598
   A14        1.94465   0.00024  -0.00003  -0.00585  -0.00597   1.93868
   A15        1.90507  -0.00005   0.00012  -0.00052  -0.00034   1.90473
   A16        1.92261  -0.00052  -0.00016  -0.00154  -0.00169   1.92093
   A17        1.90691   0.00005  -0.00007   0.00359   0.00353   1.91044
   A18        1.92486   0.00040  -0.00001   0.00491   0.00491   1.92977
   A19        1.85754  -0.00014   0.00016  -0.00032  -0.00018   1.85736
   A20        1.98000   0.00152  -0.00011   0.00310   0.00301   1.98300
   A21        1.94185   0.00044   0.00002   0.01084   0.01086   1.95271
   A22        1.92436  -0.00049  -0.00007  -0.00506  -0.00516   1.91920
   A23        1.87444  -0.00112  -0.00006  -0.00121  -0.00136   1.87308
   A24        1.86235  -0.00044   0.00020  -0.00569  -0.00549   1.85686
   A25        1.87606  -0.00002   0.00004  -0.00284  -0.00279   1.87328
   A26        2.00231  -0.00035   0.00019  -0.00126  -0.00119   2.00113
   A27        2.15114   0.00154  -0.00025   0.00643   0.00584   2.15697
   A28        2.12760  -0.00114   0.00005  -0.00255  -0.00284   2.12476
   A29        2.20936  -0.00184  -0.00040  -0.00928  -0.00979   2.19957
   A30        2.03214   0.00205   0.00078   0.01443   0.01489   2.04703
   A31        2.04164  -0.00022  -0.00038  -0.00552  -0.00620   2.03543
   A32        2.07897  -0.00038  -0.00048  -0.00328  -0.00377   2.07521
   A33        2.18935  -0.00045   0.00029  -0.00156  -0.00132   2.18803
   A34        2.01484   0.00083   0.00022   0.00475   0.00487   2.01972
   A35        2.02340   0.00190  -0.00035   0.00361   0.00328   2.02668
   A36        2.17274   0.00032   0.00046   0.00314   0.00356   2.17630
   A37        2.01447   0.00091  -0.00021   0.00531   0.00507   2.01953
   A38        2.09590  -0.00122  -0.00025  -0.00827  -0.00855   2.08735
   A39        2.05649  -0.00038  -0.00034  -0.00238  -0.00273   2.05376
   A40        2.12876   0.00090   0.00005   0.00501   0.00506   2.13382
   A41        2.09784  -0.00051   0.00029  -0.00264  -0.00235   2.09549
    D1       -1.07763   0.00071  -0.00008   0.00505   0.00493  -1.07270
    D2        1.07130  -0.00076   0.00008  -0.00894  -0.00883   1.06247
    D3        3.13871  -0.00003   0.00000  -0.00200  -0.00200   3.13671
    D4       -3.13940   0.00001   0.00004   0.00112   0.00117  -3.13823
    D5        0.01428   0.00004   0.00011   0.00182   0.00192   0.01620
    D6       -0.03593   0.00002  -0.00032  -0.00694  -0.00721  -0.04315
    D7        3.13772   0.00018  -0.00007   0.01155   0.01147  -3.13399
    D8        3.09418   0.00002  -0.00038  -0.00752  -0.00785   3.08634
    D9       -0.01535   0.00017  -0.00014   0.01097   0.01083  -0.00451
   D10        3.11873  -0.00003  -0.00023  -0.00471  -0.00493   3.11380
   D11       -0.00856  -0.00004  -0.00007  -0.00324  -0.00330  -0.01185
   D12       -0.01036  -0.00000  -0.00016  -0.00400  -0.00415  -0.01451
   D13       -3.13765  -0.00001   0.00000  -0.00252  -0.00252  -3.14017
   D14        2.63278   0.00026   0.00025   0.00648   0.00672   2.63950
   D15       -1.54291   0.00044   0.00022   0.00689   0.00711  -1.53581
   D16        0.49066  -0.00005   0.00040   0.00533   0.00573   0.49639
   D17       -0.54169   0.00009  -0.00000  -0.01251  -0.01251  -0.55421
   D18        1.56580   0.00027  -0.00003  -0.01210  -0.01212   1.55368
   D19       -2.68381  -0.00022   0.00015  -0.01367  -0.01350  -2.69731
   D20       -3.11950  -0.00020  -0.00083  -0.02337  -0.02420   3.13949
   D21        0.02952  -0.00017   0.00036  -0.00776  -0.00741   0.02211
   D22        0.05260  -0.00002  -0.00059  -0.00566  -0.00622   0.04638
   D23       -3.08157   0.00001   0.00060   0.00995   0.01057  -3.07099
   D24        0.78790   0.00041   0.00045   0.01984   0.02032   0.80822
   D25        2.90372   0.00037   0.00030   0.02854   0.02890   2.93262
   D26       -1.29961   0.00031   0.00032   0.02863   0.02897  -1.27064
   D27       -1.31852   0.00029   0.00036   0.02185   0.02222  -1.29629
   D28        0.79730   0.00025   0.00022   0.03055   0.03081   0.82811
   D29        2.87716   0.00019   0.00023   0.03063   0.03088   2.90804
   D30        2.92873   0.00020   0.00021   0.01729   0.01748   2.94621
   D31       -1.23864   0.00016   0.00006   0.02599   0.02606  -1.21257
   D32        0.84122   0.00010   0.00008   0.02607   0.02614   0.86736
   D33       -0.57361   0.00038  -0.00052  -0.00508  -0.00551  -0.57911
   D34        2.63698  -0.00026  -0.00018  -0.04733  -0.04753   2.58945
   D35       -2.72684  -0.00037  -0.00042  -0.02006  -0.02040  -2.74724
   D36        0.48375  -0.00101  -0.00008  -0.06232  -0.06242   0.42132
   D37        1.54894   0.00040  -0.00054  -0.01345  -0.01391   1.53503
   D38       -1.52366  -0.00025  -0.00020  -0.05570  -0.05593  -1.57959
   D39        0.06564  -0.00055  -0.00003  -0.01782  -0.01786   0.04778
   D40       -3.06486   0.00042   0.00058   0.02377   0.02454  -3.04032
   D41        3.13927   0.00020  -0.00038   0.02419   0.02368  -3.12024
   D42        0.00877   0.00117   0.00023   0.06578   0.06608   0.07484
   D43        0.21507   0.00021   0.00057   0.02317   0.02361   0.23868
   D44       -2.93323   0.00018  -0.00052   0.00906   0.00840  -2.92483
   D45       -2.93767  -0.00076  -0.00006  -0.01851  -0.01842  -2.95609
   D46        0.19722  -0.00079  -0.00114  -0.03261  -0.03364   0.16359
   D47       -0.01455  -0.00002  -0.00025  -0.00305  -0.00330  -0.01786
   D48        3.13422   0.00001   0.00088   0.01208   0.01304  -3.13592
   D49       -0.01512   0.00018  -0.00010   0.01100   0.01094  -0.00418
   D50        3.13958  -0.00013   0.00000  -0.00480  -0.00485   3.13473
   D51        0.02734  -0.00019   0.00030  -0.00768  -0.00739   0.01995
   D52       -3.12830  -0.00016   0.00014  -0.00907  -0.00892  -3.13721
   D53       -3.12794   0.00015   0.00019   0.00891   0.00907  -3.11887
   D54       -0.00039   0.00018   0.00003   0.00753   0.00754   0.00716
         Item               Value     Threshold  Converged?
 Maximum Force            0.007880     0.000450     NO 
 RMS     Force            0.001448     0.000300     NO 
 Maximum Displacement     0.095257     0.001800     NO 
 RMS     Displacement     0.022522     0.001200     NO 
 Predicted change in Energy=-5.510710D-04
 GradGradGradGradGradGradGradGradGradGradGradGradGradGradGradGradGradGrad

                          Input orientation:                          
 ---------------------------------------------------------------------
 Center     Atomic      Atomic             Coordinates (Angstroms)
 Number     Number       Type             X           Y           Z
 ---------------------------------------------------------------------
      1          6           0       -3.068206   -1.553835    0.264737
      2          8           0       -1.658204   -1.373777    0.242003
      3          6           0       -1.164121   -0.114709    0.111901
      4          6           0        0.230377   -0.007620    0.092405
      5          6           0        1.161283   -1.178497    0.258984
      6          6           0        2.485661   -0.938722   -0.475101
      7          6           0        3.078102    0.440418   -0.228514
      8          7           0        2.147527    1.443590   -0.053395
      9          8           0        4.276811    0.666992   -0.212409
     10          6           0        0.759961    1.282534   -0.031499
     11          7           0        0.043194    2.409946   -0.107497
     12          6           0       -1.284456    2.265684   -0.080431
[...]
                 (A) (A) (A) (A) (A) (A) (A) (A) (A) (A) (A) (A)
                 (A) (A) (A) (A) (A) (A) (A) (A) (A) (A) (A) (A)
                 (A) (A) (A) (A) (A) (A) (A) (A) (A) (A) (A) (A)
                 (A) (A) (A) (A) (A) (A) (A) (A) (A) (A) (A) (A)
                 (A) (A) (A) (A) (A) (A) (A) (A) (A) (A) (A) (A)
                 (A) (A) (A) (A) (A) (A) (A) (A) (A) (A) (A) (A)
                 (A) (A) (A) (A) (A) (A) (A) (A) (A) (A) (A) (A)
                 (A) (A) (A) (A) (A) (A) (A) (A) (A) (A) (A) (A)
                 (A) (A) (A) (A) (A) (A) (A) (A) (A) (A) (A) (A)
                 (A) (A) (A) (A) (A) (A) (A) (A) (A) (A) (A) (A)
                 (A) (A) (A) (A) (A) (A) (A) (A) (A) (A) (A) (A)
                 (A) (A) (A) (A) (A) (A) (A) (A) (A) (A) (A) (A)
                 (A) (A) (A) (A) (A) (A) (A) (A) (A) (A) (A) (A)
                 (A) (A) (A) (A) (A) (A) (A) (A)
 The electronic state is 1-A.
 Alpha  occ. eigenvalues --  -19.68069 -19.60199 -14.78626 -14.75063 -10.65416
 Alpha  occ. eigenvalues --  -10.63094 -10.62784 -10.60932 -10.58733 -10.56046
 Alpha  occ. eigenvalues --  -10.55888 -10.55573 -10.55269  -1.21470  -1.16865
 Alpha  occ. eigenvalues --   -1.09114  -1.02262  -0.93612  -0.88659  -0.86124
 Alpha  occ. eigenvalues --   -0.82143  -0.76135  -0.73355  -0.71336  -0.65393
 Alpha  occ. eigenvalues --   -0.64116  -0.59746  -0.57720  -0.57010  -0.56099
 Alpha  occ. eigenvalues --   -0.55165  -0.52666  -0.51693  -0.50819  -0.49814
 Alpha  occ. eigenvalues --   -0.49221  -0.48916  -0.45581  -0.44251  -0.43496
 Alpha  occ. eigenvalues --   -0.42710  -0.41378  -0.37771  -0.34475  -0.33749
 Alpha  occ. eigenvalues --   -0.31438  -0.28653
 Alpha virt. eigenvalues --    0.00312   0.01188   0.05322   0.06316   0.07580
 Alpha virt. eigenvalues --    0.08747   0.10318   0.10706   0.11340   0.11486
 Alpha virt. eigenvalues --    0.12737   0.13682   0.14667   0.14862   0.15933
 Alpha virt. eigenvalues --    0.17738   0.18710   0.19389   0.20527   0.20859
 Alpha virt. eigenvalues --    0.21318   0.22143   0.23377   0.24177   0.24472
 Alpha virt. eigenvalues --    0.25237   0.27142   0.27812   0.28440   0.28895
 Alpha virt. eigenvalues --    0.29737   0.31031   0.31838   0.32637   0.33690
 Alpha virt. eigenvalues --    0.33839   0.34518   0.35705   0.36680   0.37410
 Alpha virt. eigenvalues --    0.38881   0.39271   0.40756   0.40928   0.41574
 Alpha virt. eigenvalues --    0.42264   0.42740   0.43398   0.43538   0.44180
 Alpha virt. eigenvalues --    0.44687   0.45441   0.46326   0.47486   0.48445
 Alpha virt. eigenvalues --    0.48779   0.48902   0.49280   0.50251   0.51182
 Alpha virt. eigenvalues --    0.51964   0.52973   0.53607   0.54517   0.55814
 Alpha virt. eigenvalues --    0.57132   0.58443   0.58951   0.59841   0.62118
 Alpha virt. eigenvalues --    0.62757   0.63436   0.65056   0.66048   0.66572
 Alpha virt. eigenvalues --    0.67254   0.67704   0.67906   0.68643   0.69465
 Alpha virt. eigenvalues --    0.71154   0.72352   0.72962   0.74293   0.75827
 Alpha virt. eigenvalues --    0.76469   0.77569   0.79221   0.80383   0.82179
 Alpha virt. eigenvalues --    0.82556   0.84061   0.86260   0.86838   0.88503
 Alpha virt. eigenvalues --    0.89203   0.90089   0.91586   0.92974   0.93223
 Alpha virt. eigenvalues --    0.93924   0.95825   0.97945   0.99093   1.00386
 Alpha virt. eigenvalues --    1.01010   1.03615   1.04180   1.05820   1.07653
 Alpha virt. eigenvalues --    1.09401   1.10354   1.12236   1.13397   1.15841
 Alpha virt. eigenvalues --    1.18593   1.19595   1.21578   1.22037   1.25595
 Alpha virt. eigenvalues --    1.26461   1.27380   1.28589   1.29249   1.32382
 Alpha virt. eigenvalues --    1.33162   1.35018   1.35455   1.37197   1.40127
 Alpha virt. eigenvalues --    1.41009   1.43778   1.44586   1.45649   1.45851
 Alpha virt. eigenvalues --    1.47355   1.49984   1.50719   1.52503   1.54701
 Alpha virt. eigenvalues --    1.55483   1.56011   1.56461   1.57270   1.57956
 Alpha virt. eigenvalues --    1.59136   1.59777   1.61087   1.62641   1.64164
 Alpha virt. eigenvalues --    1.64884   1.65797   1.66483   1.66972   1.68152
 Alpha virt. eigenvalues --    1.70376   1.70841   1.73073   1.73954   1.75346
 Alpha virt. eigenvalues --    1.77746   1.78257   1.79979   1.82396   1.82470
 Alpha virt. eigenvalues --    1.84296   1.85023   1.87260   1.88031   1.88224
 Alpha virt. eigenvalues --    1.89173   1.91119   1.94634   1.96320   1.97992
 Alpha virt. eigenvalues --    1.99783   2.00459   2.01459   2.03403   2.06433
 Alpha virt. eigenvalues --    2.06679   2.07432   2.09245   2.10407   2.11827
 Alpha virt. eigenvalues --    2.12617   2.15281   2.17382   2.17759   2.21017
 Alpha virt. eigenvalues --    2.22376   2.22725   2.25368   2.26095   2.27456
 Alpha virt. eigenvalues --    2.29392   2.30860   2.32381   2.32874   2.35186
 Alpha virt. eigenvalues --    2.37615   2.39038   2.40592   2.41043   2.43492
 Alpha virt. eigenvalues --    2.44665   2.45911   2.47289   2.49164   2.50563
 Alpha virt. eigenvalues --    2.50747   2.51623   2.53165   2.53887   2.55559
 Alpha virt. eigenvalues --    2.58539   2.59406   2.59898   2.62536   2.63684
 Alpha virt. eigenvalues --    2.65373   2.66615   2.66984   2.68150   2.69151
 Alpha virt. eigenvalues --    2.71956   2.73875   2.74698   2.76283   2.77434
 Alpha virt. eigenvalues --    2.79113   2.80094   2.80909   2.81893   2.83171
 Alpha virt. eigenvalues --    2.85395   2.85691   2.87596   2.88816   2.89407
 Alpha virt. eigenvalues --    2.91559   2.93132   2.95196   2.96998   2.97195
 Alpha virt. eigenvalues --    2.98055   2.98516   3.00923   3.03179   3.04142
 Alpha virt. eigenvalues --    3.04322   3.04493   3.05746   3.08177   3.09510
 Alpha virt. eigenvalues --    3.10180   3.12177   3.12340   3.13493   3.14317
 Alpha virt. eigenvalues --    3.15473   3.16572   3.17079   3.18265   3.20366
 Alpha virt. eigenvalues --    3.20849   3.21885   3.23291   3.23707   3.24924
 Alpha virt. eigenvalues --    3.26502   3.26940   3.27982   3.29153   3.30596
 Alpha virt. eigenvalues --    3.31824   3.32125   3.32607   3.34102   3.36043
 Alpha virt. eigenvalues --    3.36530   3.37120   3.37700   3.39032   3.40006
 Alpha virt. eigenvalues --    3.42028   3.44463   3.45119   3.46264   3.47203
 Alpha virt. eigenvalues --    3.48813   3.49696   3.52192   3.52626   3.53955
 Alpha virt. eigenvalues --    3.54631   3.56763   3.58122   3.59467   3.61254
 Alpha virt. eigenvalues --    3.61965   3.64375   3.66088   3.67319   3.69365
 Alpha virt. eigenvalues --    3.71594   3.74870   3.76252   3.79598   3.82211
 Alpha virt. eigenvalues --    3.85861   3.88554   3.89845   3.91188   3.93292
 Alpha virt. eigenvalues --    3.95724   3.97238   4.01227   4.02669   4.05646
 Alpha virt. eigenvalues --    4.08234   4.09558   4.10660   4.11855   4.12817
 Alpha virt. eigenvalues --    4.14072   4.15818   4.16986   4.18306   4.23129
 Alpha virt. eigenvalues --    4.24561   4.25034   4.28891   4.33309   4.33948
 Alpha virt. eigenvalues --    4.36452   4.38639   4.40041   4.43043   4.44843
 Alpha virt. eigenvalues --    4.46059   4.48808   4.52079   4.53984   4.56492
 Alpha virt. eigenvalues --    4.58907   4.62623   4.69797   4.72253   4.73327
 Alpha virt. eigenvalues --    4.75570   4.78369   4.78904   4.81662   4.86657
 Alpha virt. eigenvalues --    4.88552   4.93695   4.95429   5.01958   5.02467
 Alpha virt. eigenvalues --    5.03973   5.11107   5.13011   5.14321   5.18799
 Alpha virt. eigenvalues --    5.19960   5.20939   5.25111   5.27903   5.29191
 Alpha virt. eigenvalues --    5.31887   5.33880   5.35017   5.36330   5.39133
 Alpha virt. eigenvalues --    5.47028   5.53678   5.57984   5.64155   5.66304
 Alpha virt. eigenvalues --    5.73155   5.74475   5.79537   5.82565   5.87781
 Alpha virt. eigenvalues --    5.94310   6.01156   6.12680   6.15096   6.30676
 Alpha virt. eigenvalues --    6.37413   6.40645   6.49944   6.54825   6.61620
 Alpha virt. eigenvalues --    6.72179   6.77702   6.82072   6.82875   7.04111
 Alpha virt. eigenvalues --    7.07240   7.14124   7.36728  22.45493  22.54913
 Alpha virt. eigenvalues --   22.61512  22.66008  22.87680  22.98366  23.23414
 Alpha virt. eigenvalues --   23.41177  23.46719  32.55650  32.79803  44.05225
 Alpha virt. eigenvalues --   44.36689
          Condensed to atoms (all electrons):
               1          2          3          4          5          6
     1  C    4.910213   0.231879  -0.081929   0.007753   0.000096   0.000063
     2  O    0.231879   7.959105   0.397143  -0.137694   0.004017   0.000892
     3  C   -0.081929   0.397143   4.739488   0.405254  -0.091541   0.018385
     4  C    0.007753  -0.137694   0.405254   5.632319   0.163115  -0.033769
     5  C    0.000096   0.004017  -0.091541   0.163115   5.489922   0.036164
     6  C    0.000063   0.000892   0.018385  -0.033769   0.036164   5.508057
     7  C   -0.000007  -0.000054   0.002193  -0.007872  -0.016314   0.262378
     8  N    0.000011  -0.000118  -0.000782  -0.092961   0.062106  -0.150864
     9  O   -0.000000  -0.000000   0.000101  -0.000066   0.008100  -0.106472
    10  C   -0.000608   0.000284  -0.000156   0.337705  -0.107341   0.030192
    11  N    0.000052  -0.000352  -0.039141  -0.059554   0.009493  -0.001908
    12  C   -0.002871   0.003956  -0.024522  -0.040823  -0.001501  -0.000803
    13  C    0.001165  -0.073448   0.456276  -0.023136   0.007746   0.000909
    14  H    0.419045  -0.037722  -0.011116  -0.000516  -0.000393  -0.000023
    15  H    0.417571  -0.037719  -0.008976  -0.001533   0.000280   0.000058
    16  H    0.401161  -0.030820   0.005817   0.000360  -0.000053  -0.000017
    17  H   -0.000024   0.001125   0.004672  -0.057677   0.420614  -0.034760
    18  H    0.000309   0.010769  -0.008394  -0.036871   0.409798  -0.031311
    19  H   -0.000002  -0.000012  -0.001101   0.009019  -0.034337   0.408190
    20  H   -0.000004   0.000113   0.001130  -0.002655  -0.035074   0.395565
    21  H   -0.000000   0.000010   0.000616   0.010467  -0.005021   0.014507
    22  H   -0.000073  -0.000145   0.001053  -0.003003   0.000166  -0.000009
    23  H    0.002157  -0.003899  -0.056199   0.005909  -0.000055   0.000037
               7          8          9         10         11         12
     1  C   -0.000007   0.000011  -0.000000  -0.000608   0.000052  -0.002871
     2  O   -0.000054  -0.000118  -0.000000   0.000284  -0.000352   0.003956
     3  C    0.002193  -0.000782   0.000101  -0.000156  -0.039141  -0.024522
     4  C   -0.007872  -0.092961  -0.000066   0.337705  -0.059554  -0.040823
     5  C   -0.016314   0.062106   0.008100  -0.107341   0.009493  -0.001501
     6  C    0.262378  -0.150864  -0.106472   0.030192  -0.001908  -0.000803
     7  C    4.534132   0.327479   0.712043  -0.027921   0.001365  -0.000275
     8  N    0.327479   6.671437  -0.114444   0.350236  -0.107390   0.004319
     9  O    0.712043  -0.114444   7.832431  -0.003520  -0.000149  -0.000017
    10  C   -0.027921   0.350236  -0.003520   4.785147   0.505493  -0.083800
    11  N    0.001365  -0.107390  -0.000149   0.505493   6.519221   0.555690
    12  C   -0.000275   0.004319  -0.000017  -0.083800   0.555690   4.799886
    13  C   -0.000565   0.001375   0.000000  -0.056279  -0.079325   0.439038
    14  H    0.000001   0.000002   0.000000   0.000152  -0.000054  -0.000616
    15  H   -0.000003  -0.000000  -0.000000  -0.000396  -0.000036  -0.000239
    16  H    0.000001  -0.000000  -0.000000   0.000087   0.000000   0.000148
    17  H   -0.004975   0.001771   0.000204  -0.002463  -0.000263   0.000281
    18  H    0.005190  -0.001410  -0.000401   0.011860  -0.000197  -0.000103
    19  H   -0.037727   0.008356   0.010571  -0.000601   0.000032  -0.000001
    20  H   -0.029286   0.002181   0.002626  -0.001689  -0.000033   0.000024
    21  H   -0.021259   0.357371   0.007515  -0.048676   0.007996   0.001081
    22  H   -0.000032  -0.000088  -0.000001   0.009446  -0.030636   0.436267
    23  H   -0.000015   0.000060   0.000000   0.000611   0.006080  -0.008300
              13         14         15         16         17         18
     1  C    0.001165   0.419045   0.417571   0.401161  -0.000024   0.000309
     2  O   -0.073448  -0.037722  -0.037719  -0.030820   0.001125   0.010769
     3  C    0.456276  -0.011116  -0.008976   0.005817   0.004672  -0.008394
     4  C   -0.023136  -0.000516  -0.001533   0.000360  -0.057677  -0.036871
     5  C    0.007746  -0.000393   0.000280  -0.000053   0.420614   0.409798
     6  C    0.000909  -0.000023   0.000058  -0.000017  -0.034760  -0.031311
     7  C   -0.000565   0.000001  -0.000003   0.000001  -0.004975   0.005190
     8  N    0.001375   0.000002  -0.000000  -0.000000   0.001771  -0.001410
     9  O    0.000000   0.000000  -0.000000  -0.000000   0.000204  -0.000401
    10  C   -0.056279   0.000152  -0.000396   0.000087  -0.002463   0.011860
    11  N   -0.079325  -0.000054  -0.000036   0.000000  -0.000263  -0.000197
    12  C    0.439038  -0.000616  -0.000239   0.000148   0.000281  -0.000103
    13  C    5.248706   0.004045   0.004196  -0.000306   0.000002  -0.000965
    14  H    0.004045   0.546249  -0.055500  -0.018967  -0.000014   0.000204
    15  H    0.004196  -0.055500   0.547368  -0.019037   0.000014  -0.000181
    16  H   -0.000306  -0.018967  -0.019037   0.503365  -0.000001  -0.000155
    17  H    0.000002  -0.000014   0.000014  -0.000001   0.521736  -0.020543
    18  H   -0.000965   0.000204  -0.000181  -0.000155  -0.020543   0.503925
    19  H    0.000041  -0.000000   0.000000  -0.000000  -0.003196  -0.004362
    20  H   -0.000079   0.000001  -0.000002  -0.000000   0.005817  -0.006084
    21  H    0.000250  -0.000000  -0.000000   0.000000   0.000019   0.000136
    22  H   -0.074004  -0.000000   0.000007  -0.000001  -0.000001  -0.000001
    23  H    0.407500  -0.002558  -0.003480   0.000160   0.000001  -0.000052
              19         20         21         22         23
     1  C   -0.000002  -0.000004  -0.000000  -0.000073   0.002157
     2  O   -0.000012   0.000113   0.000010  -0.000145  -0.003899
     3  C   -0.001101   0.001130   0.000616   0.001053  -0.056199
     4  C    0.009019  -0.002655   0.010467  -0.003003   0.005909
     5  C   -0.034337  -0.035074  -0.005021   0.000166  -0.000055
     6  C    0.408190   0.395565   0.014507  -0.000009   0.000037
     7  C   -0.037727  -0.029286  -0.021259  -0.000032  -0.000015
     8  N    0.008356   0.002181   0.357371  -0.000088   0.000060
     9  O    0.010571   0.002626   0.007515  -0.000001   0.000000
    10  C   -0.000601  -0.001689  -0.048676   0.009446   0.000611
    11  N    0.000032  -0.000033   0.007996  -0.030636   0.006080
    12  C   -0.000001   0.000024   0.001081   0.436267  -0.008300
    13  C    0.000041  -0.000079   0.000250  -0.074004   0.407500
    14  H   -0.000000   0.000001  -0.000000  -0.000000  -0.002558
    15  H    0.000000  -0.000002  -0.000000   0.000007  -0.003480
    16  H   -0.000000  -0.000000   0.000000  -0.000001   0.000160
    17  H   -0.003196   0.005817   0.000019  -0.000001   0.000001
    18  H   -0.004362  -0.006084   0.000136  -0.000001  -0.000052
    19  H    0.490524  -0.011099  -0.000461   0.000000  -0.000000
    20  H   -0.011099   0.509174  -0.000619   0.000001  -0.000001
    21  H   -0.000461  -0.000619   0.423571  -0.000202  -0.000014
    22  H    0.000000   0.000001  -0.000202   0.515846   0.000098
    23  H   -0.000000  -0.000001  -0.000014   0.000098   0.495775
 Mulliken charges:
               1
     1  C   -0.305956
     2  O   -0.287313
     3  C    0.291728
     4  C   -0.073772
     5  C   -0.319989
     6  C   -0.315460
     7  C    0.301524
     8  N   -0.318643
     9  O   -0.348522
    10  C    0.302237
    11  N   -0.286387
    12  C   -0.076820
    13  C   -0.263142
    14  H    0.157779
    15  H    0.157609
    16  H    0.158260
    17  H    0.167660
    18  H    0.168839
    19  H    0.166165
    20  H    0.169993
    21  H    0.252714
    22  H    0.145312
    23  H    0.156184
 Sum of Mulliken charges =  -0.00000
 Mulliken charges with hydrogens summed into heavy atoms:
               1
     1  C    0.167692
     2  O   -0.287313
     3  C    0.291728
     4  C   -0.073772
     5  C    0.016510
     6  C    0.020698
     7  C    0.301524
     8  N   -0.065930
     9  O   -0.348522
    10  C    0.302237
    11  N   -0.286387
    12  C    0.068493
    13  C   -0.106958
 Electronic spatial extent (au):  <R**2>=           2508.3499
 Charge=              0.0000 electrons
 Dipole moment (field-independent basis, Debye):
    X=              5.8323    Y=             -1.4270    Z=              0.2408  Tot=              6.0091
 Quadrupole moment (field-independent basis, Debye-Ang):
   XX=            -80.6198   YY=            -73.4472   ZZ=            -76.4933
   XY=             -0.6416   XZ=              0.2171   YZ=             -0.4769
 Traceless Quadrupole moment (field-independent basis, Debye-Ang):
   XX=             -3.7664   YY=              3.4063   ZZ=              0.3601
   XY=             -0.6416   XZ=              0.2171   YZ=             -0.4769
 Octapole moment (field-independent basis, Debye-Ang**2):
  XXX=            144.8372  YYY=            -13.9035  ZZZ=             -0.0558  XYY=              1.5617
  XXY=              2.2284  XXZ=              2.4601  XZZ=             -5.1390  YZZ=             -6.0790
  YYZ=              0.0227  XYZ=              1.6222
 Hexadecapole moment (field-independent basis, Debye-Ang**3):
 XXXX=          -2500.2129 YYYY=           -874.9450 ZZZZ=           -110.6407 XXXY=           -104.2793
 XXXZ=              1.3558 YYYX=              5.5275 YYYZ=              0.1673 ZZZX=             -1.8607
 ZZZY=             -0.9420 XXYY=           -461.7601 XXZZ=           -397.7491 YYZZ=           -173.7349
 XXYZ=             -2.2959 YYXZ=              6.1698 ZZXY=             -5.6540
 N-N= 7.821754049102D+02 E-N=-2.984028027904D+03  KE= 6.058030122363D+02
 Unable to Open any file for archive entry.
 1\1\GINC-COMPUTE-0-32\SP\RM062X\def2TZVP\C9H10N2O2\ZTAN64\14-Aug-2024\
 0\\# M062X/def2tzvp int=(grid=ultrafine) nmr=giao guess=read geom=chec
 k\\pyrd12.xyz\\0,1\C,0,-3.0725427829,-1.5440755528,0.2557519317\O,0,-1
 .6597019674,-1.3792929371,0.2523510015\C,0,-1.1613123944,-0.1234529529
 ,0.1228462226\C,0,0.2332623378,-0.0137806708,0.1141906285\C,0,1.170833
 0636,-1.1808663475,0.2785687017\C,0,2.4803394595,-0.9345738602,-0.4816
 163799\C,0,3.0804385182,0.4396100818,-0.224667031\N,0,2.1491619977,1.4
 396300861,-0.0178107046\O,0,4.2761855788,0.6751350204,-0.2458051633\C,
 0,0.7620803499,1.2766718845,-0.0090057192\N,0,0.0438060307,2.401950897
 ,-0.1005838763\C,0,-1.2847088718,2.2573627594,-0.0841597382\C,0,-1.944
 4051916,1.0355466489,0.0131842896\H,0,-3.5337817134,-1.0150655305,1.09
 76794997\H,0,-3.5179308451,-1.1917663644,-0.6818328247\H,0,-3.24789545
 2,-2.6147995277,0.3607331596\H,0,1.3875025783,-1.324484365,1.346559441
 7\H,0,0.6943236397,-2.100878469,-0.0663840428\H,0,3.242772471,-1.67649
 81718,-0.2391652369\H,0,2.29720499,-0.9955202231,-1.5629146078\H,0,2.4
 928385612,2.3913085743,0.013483692\H,0,-1.863140683,3.1757408466,-0.15
 58629615\H,0,-3.0254296747,1.0021981738,0.0145597174\\Version=ES64L-G1
 6RevC.01\State=1-A\HF=-608.9422404\RMSD=3.743e-09\Dipole=-2.1683527,-0
 .9384477,0.0830052\Quadrupole=-2.7821605,2.5699283,0.2122322,-0.400864
 9,0.3094209,0.3017943\PG=C01 [X(C9H10N2O2)]\\@
 The archive entry for this job was punched.


  THE LARGE PRINT GIVETH,
  AND THE SMALL PRINT TAKETH AWAY.

                     -- TOM WAITS
 Job cpu time:       0 days  0 hours 39 minutes 25.0 seconds.
 Elapsed time:       0 days  0 hours  2 minutes 37.3 seconds.
 File lengths (MBytes):  RWF=    123 Int=      0 D2E=      0 Chk=     20 Scr=      1
 Normal termination of Gaussian 16 at Wed Aug 14 19:07:47 2024.
 
 
-----Kestrel cluster job statistics-----
Time info:

real	13m14.193s
user	207m32.025s
sys	0m19.231s
 
Disk space usage:
20M	/scratch/362959.kestrel.chem.wisc.edu
