 Entering Gaussian System, Link 0=/share/apps/gaussian/g16/g16
 Initial command:
 /share/apps/gaussian/g16/l1.exe "/scratch/362957.kestrel.chem.wisc.edu/Gau-258482.inp" -scrdir="/scratch/362957.kestrel.chem.wisc.edu/"
 Entering Link 1 = /share/apps/gaussian/g16/l1.exe PID=    258483.
  
 Copyright (c) 1988-2019, Gaussian, Inc.  All Rights Reserved.
  
 This is part of the Gaussian(R) 16 program.  It is based on
 the Gaussian(R) 09 system (copyright 2009, Gaussian, Inc.),
 the Gaussian(R) 03 system (copyright 2003, Gaussian, Inc.),
 the Gaussian(R) 98 system (copyright 1998, Gaussian, Inc.),
 the Gaussian(R) 94 system (copyright 1995, Gaussian, Inc.),
 the Gaussian 92(TM) system (copyright 1992, Gaussian, Inc.),
 the Gaussian 90(TM) system (copyright 1990, Gaussian, Inc.),
 the Gaussian 88(TM) system (copyright 1988, Gaussian, Inc.),
 the Gaussian 86(TM) system (copyright 1986, Carnegie Mellon
 University), and the Gaussian 82(TM) system (copyright 1983,
 Carnegie Mellon University). Gaussian is a federally registered
 trademark of Gaussian, Inc.
  
 This software contains proprietary and confidential information,
 including trade secrets, belonging to Gaussian, Inc.
  
 This software is provided under written license and may be
 used, copied, transmitted, or stored only in accord with that
 written license.
  
 The following legend is applicable only to US Government
 contracts under FAR:
  
                    RESTRICTED RIGHTS LEGEND
  
 Use, reproduction and disclosure by the US Government is
 subject to restrictions as set forth in subparagraphs (a)
 and (c) of the Commercial Computer Software - Restricted
 Rights clause in FAR 52.227-19.
  
 Gaussian, Inc.
 340 Quinnipiac St., Bldg. 40, Wallingford CT 06492
  
  
 ---------------------------------------------------------------
 Warning -- This program may not be used in any manner that
 competes with the business of Gaussian, Inc. or will provide
 assistance to any competitor of Gaussian, Inc.  The licensee
 of this program is prohibited from giving any competitor of
 Gaussian, Inc. access to this program.  By using this program,
 the user acknowledges that Gaussian, Inc. is engaged in the
 business of creating and licensing software in the field of
 computational chemistry and represents and warrants to the
 licensee that it is not a competitor of Gaussian, Inc. and that
 it will not use this program in any manner prohibited above.
 ---------------------------------------------------------------
  

 Cite this work as:
 Gaussian 16, Revision C.01,
 M. J. Frisch, G. W. Trucks, H. B. Schlegel, G. E. Scuseria, 
 M. A. Robb, J. R. Cheeseman, G. Scalmani, V. Barone, 
 G. A. Petersson, H. Nakatsuji, X. Li, M. Caricato, A. V. Marenich, 
 J. Bloino, B. G. Janesko, R. Gomperts, B. Mennucci, H. P. Hratchian, 
 J. V. Ortiz, A. F. Izmaylov, J. L. Sonnenberg, D. Williams-Young, 
 F. Ding, F. Lipparini, F. Egidi, J. Goings, B. Peng, A. Petrone, 
 T. Henderson, D. Ranasinghe, V. G. Zakrzewski, J. Gao, N. Rega, 
 G. Zheng, W. Liang, M. Hada, M. Ehara, K. Toyota, R. Fukuda, 
 J. Hasegawa, M. Ishida, T. Nakajima, Y. Honda, O. Kitao, H. Nakai, 
 T. Vreven, K. Throssell, J. A. Montgomery, Jr., J. E. Peralta, 
 F. Ogliaro, M. J. Bearpark, J. J. Heyd, E. N. Brothers, K. N. Kudin, 
 V. N. Staroverov, T. A. Keith, R. Kobayashi, J. Normand, 
 K. Raghavachari, A. P. Rendell, J. C. Burant, S. S. Iyengar, 
 J. Tomasi, M. Cossi, J. M. Millam, M. Klene, C. Adamo, R. Cammi, 
 J. W. Ochterski, R. L. Martin, K. Morokuma, O. Farkas, 
 J. B. Foresman, and D. J. Fox, Gaussian, Inc., Wallingford CT, 2019.
 
 ******************************************
 Gaussian 16:  ES64L-G16RevC.01  3-Jul-2019
                14-Aug-2024 
 ******************************************
 %nprocs=16
 Will use up to   16 processors via shared memory.
 %mem=16GB
 %chk=pyrd11_conf-1.chk
 ----------------------------------------------------------------------
 # B3LYP/6-31G(d,p) symmetry=loose empiricaldispersion=GD3BJ int=(grid=
 ultrafine) opt freq=noraman
 ----------------------------------------------------------------------
 1/18=20,19=15,26=4,38=1/1,3;
 2/9=110,12=2,17=4,18=3,40=1/2;
 3/5=1,6=6,7=101,11=2,25=1,30=1,71=1,74=-5,75=-5,124=41/1,2,3;
 4//1;
 5/5=2,38=5/2;
 6/7=2,8=2,9=2,10=2,28=1/1;
 7//1,2,3,16;
 1/18=20,19=15,26=4/3(2);
 2/9=110/2;
 99//99;
 2/9=110/2;
 3/5=1,6=6,7=101,11=2,25=1,30=1,71=1,74=-5,75=-5,124=41/1,2,3;
 4/5=5,16=3,69=1/1;
 5/5=2,38=5/2;
 7//1,2,3,16;
 1/18=20,19=15,26=4/3(-5);
 2/9=110/2;
 6/7=2,8=2,9=2,10=2,19=2,28=1/1;
 99/9=1/99;
 ----------
 pyrd11.xyz
 ----------
 Symbolic Z-matrix:
 Charge =  0 Multiplicity = 1
 Cl                   -3.8889    0.5635    0.8409 
 C                    -2.3163    0.8308    0.1687 
 C                    -1.2635   -0.0939    0.3194 
 C                    -1.475    -1.3737    1.1355 
 C                    -0.0151    0.2185   -0.2783 
 C                     1.1644   -0.7193   -0.2638 
 O                     2.3564   -0.0679   -0.2163 
 C                     3.5744   -0.7968   -0.1558 
 O                     1.0719   -1.9481   -0.1881 
 N                     0.1641    1.3706   -0.9894 
 C                    -0.8626    2.2424   -1.1112 
 C                    -2.1129    2.007    -0.5506 
 H                    -0.62     -1.5577    1.7865 
 H                    -1.5791   -2.2338    0.4733 
 H                    -2.3386   -1.3306    1.7971 
 H                     3.615    -1.4175    0.7407 
 H                     3.6866   -1.444    -1.0271 
 H                     4.4193   -0.1087   -0.132 
 H                    -0.6637    3.1404   -1.6794 
 H                    -2.9165    2.7188   -0.6698 
 

 GradGradGradGradGradGradGradGradGradGradGradGradGradGradGradGradGradGrad
 Berny optimization.
 Initialization pass.
                           ----------------------------
                           !    Initial Parameters    !
                           ! (Angstroms and Degrees)  !
 --------------------------                            --------------------------
 ! Name  Definition              Value          Derivative Info.                !
 --------------------------------------------------------------------------------
 ! R1    R(1,2)                  1.731          estimate D2E/DX2                !
 ! R2    R(2,3)                  1.4093         estimate D2E/DX2                !
 ! R3    R(2,12)                 1.3936         estimate D2E/DX2                !
 ! R4    R(3,4)                  1.5325         estimate D2E/DX2                !
 ! R5    R(3,5)                  1.4189         estimate D2E/DX2                !
 ! R6    R(4,13)                 1.0903         estimate D2E/DX2                !
 ! R7    R(4,14)                 1.0905         estimate D2E/DX2                !
 ! R8    R(4,15)                 1.0888         estimate D2E/DX2                !
 ! R9    R(5,6)                  1.507          estimate D2E/DX2                !
 ! R10   R(5,10)                 1.3657         estimate D2E/DX2                !
 ! R11   R(6,7)                  1.3592         estimate D2E/DX2                !
 ! R12   R(6,9)                  1.2346         estimate D2E/DX2                !
 ! R13   R(7,8)                  1.4207         estimate D2E/DX2                !
 ! R14   R(8,16)                 1.0912         estimate D2E/DX2                !
 ! R15   R(8,17)                 1.0912         estimate D2E/DX2                !
 ! R16   R(8,18)                 1.0899         estimate D2E/DX2                !
 ! R17   R(10,11)                1.3524         estimate D2E/DX2                !
 ! R18   R(11,12)                1.3903         estimate D2E/DX2                !
 ! R19   R(11,19)                1.0811         estimate D2E/DX2                !
 ! R20   R(12,20)                1.0801         estimate D2E/DX2                !
 ! A1    A(1,2,3)              122.3999         estimate D2E/DX2                !
 ! A2    A(1,2,12)             117.6035         estimate D2E/DX2                !
 ! A3    A(3,2,12)             119.9952         estimate D2E/DX2                !
 ! A4    A(2,3,4)              120.1178         estimate D2E/DX2                !
 ! A5    A(2,3,5)              117.8884         estimate D2E/DX2                !
 ! A6    A(4,3,5)              121.9782         estimate D2E/DX2                !
 ! A7    A(3,4,13)             110.5287         estimate D2E/DX2                !
 ! A8    A(3,4,14)             110.3937         estimate D2E/DX2                !
 ! A9    A(3,4,15)             113.5785         estimate D2E/DX2                !
 ! A10   A(13,4,14)            107.7189         estimate D2E/DX2                !
 ! A11   A(13,4,15)            105.4192         estimate D2E/DX2                !
 ! A12   A(14,4,15)            108.9363         estimate D2E/DX2                !
 ! A13   A(3,5,6)              123.2009         estimate D2E/DX2                !
 ! A14   A(3,5,10)             121.3666         estimate D2E/DX2                !
 ! A15   A(6,5,10)             115.296          estimate D2E/DX2                !
 ! A16   A(5,6,7)              112.8619         estimate D2E/DX2                !
 ! A17   A(5,6,9)              124.1485         estimate D2E/DX2                !
 ! A18   A(7,6,9)              122.7219         estimate D2E/DX2                !
 ! A19   A(6,7,8)              120.4943         estimate D2E/DX2                !
 ! A20   A(7,8,16)             111.0221         estimate D2E/DX2                !
 ! A21   A(7,8,17)             111.0053         estimate D2E/DX2                !
 ! A22   A(7,8,18)             109.975          estimate D2E/DX2                !
 ! A23   A(16,8,17)            108.3507         estimate D2E/DX2                !
 ! A24   A(16,8,18)            108.2008         estimate D2E/DX2                !
 ! A25   A(17,8,18)            108.1914         estimate D2E/DX2                !
 ! A26   A(5,10,11)            119.4124         estimate D2E/DX2                !
 ! A27   A(10,11,12)           122.4974         estimate D2E/DX2                !
 ! A28   A(10,11,19)           116.3025         estimate D2E/DX2                !
 ! A29   A(12,11,19)           121.1987         estimate D2E/DX2                !
 ! A30   A(2,12,11)            118.8337         estimate D2E/DX2                !
 ! A31   A(2,12,20)            120.3023         estimate D2E/DX2                !
 ! A32   A(11,12,20)           120.8638         estimate D2E/DX2                !
 ! D1    D(1,2,3,4)             -1.7728         estimate D2E/DX2                !
 ! D2    D(1,2,3,5)            179.6329         estimate D2E/DX2                !
 ! D3    D(12,2,3,4)           178.6661         estimate D2E/DX2                !
 ! D4    D(12,2,3,5)             0.0718         estimate D2E/DX2                !
 ! D5    D(1,2,12,11)         -179.467          estimate D2E/DX2                !
 ! D6    D(1,2,12,20)            0.3734         estimate D2E/DX2                !
 ! D7    D(3,2,12,11)            0.1149         estimate D2E/DX2                !
 ! D8    D(3,2,12,20)          179.9553         estimate D2E/DX2                !
 ! D9    D(2,3,4,13)          -136.1771         estimate D2E/DX2                !
 ! D10   D(2,3,4,14)           104.7495         estimate D2E/DX2                !
 ! D11   D(2,3,4,15)           -17.935          estimate D2E/DX2                !
 ! D12   D(5,3,4,13)            42.3582         estimate D2E/DX2                !
 ! D13   D(5,3,4,14)           -76.7153         estimate D2E/DX2                !
 ! D14   D(5,3,4,15)           160.6003         estimate D2E/DX2                !
 ! D15   D(2,3,5,6)           -176.1751         estimate D2E/DX2                !
 ! D16   D(2,3,5,10)            -0.6239         estimate D2E/DX2                !
 ! D17   D(4,3,5,6)              5.2584         estimate D2E/DX2                !
 ! D18   D(4,3,5,10)          -179.1905         estimate D2E/DX2                !
 ! D19   D(3,5,6,7)           -147.4128         estimate D2E/DX2                !
 ! D20   D(3,5,6,9)             26.772          estimate D2E/DX2                !
 ! D21   D(10,5,6,7)            36.7883         estimate D2E/DX2                !
 ! D22   D(10,5,6,9)          -149.0269         estimate D2E/DX2                !
 ! D23   D(3,5,10,11)            0.978          estimate D2E/DX2                !
 ! D24   D(6,5,10,11)          176.8612         estimate D2E/DX2                !
 ! D25   D(5,6,7,8)            178.1003         estimate D2E/DX2                !
 ! D26   D(9,6,7,8)              3.8204         estimate D2E/DX2                !
 ! D27   D(6,7,8,16)           -60.7254         estimate D2E/DX2                !
 ! D28   D(6,7,8,17)            59.8621         estimate D2E/DX2                !
 ! D29   D(6,7,8,18)           179.5571         estimate D2E/DX2                !
 ! D30   D(5,10,11,12)          -0.7886         estimate D2E/DX2                !
 ! D31   D(5,10,11,19)         179.642          estimate D2E/DX2                !
 ! D32   D(10,11,12,2)           0.243          estimate D2E/DX2                !
 ! D33   D(10,11,12,20)       -179.5965         estimate D2E/DX2                !
 ! D34   D(19,11,12,2)         179.7917         estimate D2E/DX2                !
 ! D35   D(19,11,12,20)         -0.0478         estimate D2E/DX2                !
 --------------------------------------------------------------------------------
 Trust Radius=3.00D-01 FncErr=1.00D-07 GrdErr=1.00D-06 EigMax=2.50D+02 EigMin=1.00D-04
 Number of steps in this run=     97 maximum allowed number of steps=    120.
 GradGradGradGradGradGradGradGradGradGradGradGradGradGradGradGradGradGrad

                          Input orientation:                          
 ---------------------------------------------------------------------
 Center     Atomic      Atomic             Coordinates (Angstroms)
 Number     Number       Type             X           Y           Z
 ---------------------------------------------------------------------
      1         17           0       -3.888900    0.563500    0.840900
      2          6           0       -2.316300    0.830800    0.168700
      3          6           0       -1.263500   -0.093900    0.319400
      4          6           0       -1.475000   -1.373700    1.135500
      5          6           0       -0.015100    0.218500   -0.278300
      6          6           0        1.164400   -0.719300   -0.263800
      7          8           0        2.356400   -0.067900   -0.216300
      8          6           0        3.574400   -0.796800   -0.155800
      9          8           0        1.071900   -1.948100   -0.188100
     10          7           0        0.164100    1.370600   -0.989400
     11          6           0       -0.862600    2.242400   -1.111200
     12          6           0       -2.112900    2.007000   -0.550600
     13          1           0       -0.620000   -1.557700    1.786500
     14          1           0       -1.579100   -2.233800    0.473300
     15          1           0       -2.338600   -1.330600    1.797100
     16          1           0        3.615000   -1.417500    0.740700
     17          1           0        3.686600   -1.444000   -1.027100
     18          1           0        4.419300   -0.108700   -0.132000
     19          1           0       -0.663700    3.140400   -1.679400
     20          1           0       -2.916500    2.718800   -0.669800
 ---------------------------------------------------------------------
                    Distance matrix (angstroms):
                    1          2          3          4          5
     1  Cl   0.000000
     2  C    1.731003   0.000000
     3  C    2.756241   1.409315   0.000000
     4  C    3.109091   2.549962   1.532527   0.000000
     5  C    4.046969   2.422858   1.418923   2.581712   0.000000
     6  C    5.329332   3.834728   2.574091   3.058220   1.506950
     7  O    6.365541   4.773889   3.659416   4.267564   2.389536
     8  C    7.651449   6.120027   4.911737   5.243731   3.732338
     9  O    5.654778   4.396532   3.024848   2.927209   2.425667
    10  N    4.519759   2.790155   2.428118   3.838363   1.365690
    11  C    3.973398   2.396665   2.768688   4.301032   2.346945
    12  C    2.678459   1.393632   2.427377   3.831316   2.770134
    13  H    4.009907   3.346587   2.170066   1.090267   2.790016
    14  H    3.646257   3.166705   2.168516   1.090467   3.004126
    15  H    2.627806   2.706258   2.206550   1.088750   3.479317
    16  H    7.761631   6.368858   5.072393   5.105476   4.110047
    17  H    8.056530   6.529890   5.304651   5.596775   4.126402
    18  H    8.391935   6.807451   5.700719   6.160321   4.448861
    19  H    4.836759   3.388335   3.849111   5.381354   3.304733
    20  H    2.805903   2.151248   3.409136   4.699530   3.850051
                    6          7          8          9         10
     6  C    0.000000
     7  O    1.359206   0.000000
     8  C    2.413663   1.420732   0.000000
     9  O    1.234600   2.277254   2.754821   0.000000
    10  N    2.427916   2.733705   4.125852   3.532698   0.000000
    11  C    3.687612   4.062055   5.462279   4.706877   1.352399
    12  C    4.272664   4.938786   6.353152   5.090891   2.404637
    13  H    2.844421   3.884542   4.684495   2.629445   4.110398
    14  H    3.219289   4.544759   5.386956   2.747158   4.262621
    15  H    4.109989   5.262244   6.249986   3.994225   4.617854
    16  H    2.738968   2.078784   1.091160   2.758906   4.761876
    17  H    2.733004   2.078576   1.091156   2.791898   4.509035
    18  H    3.314299   2.065025   1.089910   3.819899   4.585869
    19  H    4.499240   4.642721   5.982006   5.579347   2.072087
    20  H    5.351552   5.981207   7.399691   6.157867   3.377852
                   11         12         13         14         15
    11  C    0.000000
    12  C    1.390301   0.000000
    13  H    4.785006   4.516400   0.000000
    14  H    4.802122   4.395190   1.761101   0.000000
    15  H    4.837676   4.086834   1.733572   1.773431   0.000000
    16  H    6.072339   6.797315   4.364468   5.264648   6.047221
    17  H    5.855923   6.765401   5.145491   5.531960   6.655224
    18  H    5.863870   6.879030   5.583439   6.392436   7.133280
    19  H    1.081118   2.158464   5.838366   5.861237   5.906029
    20  H    2.154135   1.080111   5.440200   5.255812   4.776736
                   16         17         18         19         20
    16  H    0.000000
    17  H    1.769448   0.000000
    18  H    1.766766   1.766658   0.000000
    19  H    6.703627   6.353529   6.228000   0.000000
    20  H    7.858688   7.813930   7.880225   2.504425   0.000000
 Stoichiometry    C8H8ClNO2
 Framework group  C1[X(C8H8ClNO2)]
 Deg. of freedom    54
 Full point group                 C1      NOp   1
 Largest Abelian subgroup         C1      NOp   1
 Largest concise Abelian subgroup C1      NOp   1
                         Standard orientation:                         
 ---------------------------------------------------------------------
 Center     Atomic      Atomic             Coordinates (Angstroms)
 Number     Number       Type             X           Y           Z
 ---------------------------------------------------------------------
      1         17           0        3.392182   -0.640757   -0.145565
      2          6           0        1.878990    0.191919   -0.030342
      3          6           0        0.643914   -0.486358   -0.003970
      4          6           0        0.602923   -2.013996   -0.119214
      5          6           0       -0.538291    0.291351    0.100441
      6          6           0       -1.914180   -0.311052    0.222677
      7          8           0       -2.876107    0.444816   -0.369607
      8          6           0       -4.227920    0.007997   -0.386080
      9          8           0       -2.143037   -1.424028    0.705528
     10          7           0       -0.487890    1.653418    0.186133
     11          6           0        0.711583    2.277145    0.151304
     12          6           0        1.911667    1.583039    0.046661
     13          1           0       -0.187042   -2.324740   -0.803375
     14          1           0        0.395823   -2.462971    0.852716
     15          1           0        1.518905   -2.445264   -0.519665
     16          1           0       -4.325591   -0.943012   -0.912076
     17          1           0       -4.610167   -0.119442    0.627955
     18          1           0       -4.850793    0.743795   -0.894543
     19          1           0        0.692554    3.356108    0.216816
     20          1           0        2.855492    2.107892    0.027608
 ---------------------------------------------------------------------
 Rotational constants (GHZ):           1.7575932           0.4733413           0.3831173
 Standard basis: 6-31G(d,p) (6D, 7F)
 There are   224 symmetry adapted cartesian basis functions of A   symmetry.
 There are   224 symmetry adapted basis functions of A   symmetry.
   224 basis functions,   416 primitive gaussians,   224 cartesian basis functions
    48 alpha electrons       48 beta electrons
       nuclear repulsion energy       759.0219852978 Hartrees.
 NAtoms=   20 NActive=   20 NUniq=   20 SFac= 1.00D+00 NAtFMM=   60 NAOKFM=F Big=F
 Integral buffers will be    131072 words long.
 Raffenetti 2 integral format.
 Two-electron integral symmetry is turned on.
 Nuclear repulsion after empirical dispersion term =      758.9831507240 Hartrees.
 One-electron integrals computed using PRISM.
 NBasis=   224 RedAO= T EigKep=  6.89D-04  NBF=   224
 NBsUse=   224 1.00D-06 EigRej= -1.00D+00 NBFU=   224
 ExpMin= 1.43D-01 ExpMax= 2.52D+04 ExpMxC= 3.78D+03 IAcc=3 IRadAn=         5 AccDes= 0.00D+00
 Harris functional with IExCor=  402 and IRadAn=       5 diagonalized for initial guess.
 HarFok:  IExCor=  402 AccDes= 0.00D+00 IRadAn=         5 IDoV= 1 UseB2=F ITyADJ=14
 ICtDFT=  3500011 ScaDFX=  1.000000  1.000000  1.000000  1.000000
 FoFCou: FMM=F IPFlag=           0 FMFlag=      100000 FMFlg1=           0
         NFxFlg=           0 DoJE=T BraDBF=F KetDBF=T FulRan=T
         wScrn=  0.000000 ICntrl=       500 IOpCl=  0 I1Cent=   200000004 NGrid=           0
         NMat0=    1 NMatS0=      1 NMatT0=    0 NMatD0=    1 NMtDS0=    0 NMtDT0=    0
 Petite list used in FoFCou.
 Requested convergence on RMS density matrix=1.00D-08 within 128 cycles.
 Requested convergence on MAX density matrix=1.00D-06.
 Requested convergence on             energy=1.00D-06.
 No special actions if energy rises.
 Integral accuracy reduced to 1.0D-05 until final iterations.
 Initial convergence to 1.0D-05 achieved.  Increase integral accuracy.
 SCF Done:  E(RB3LYP) =  -975.111394202     A.U. after   15 cycles
            NFock= 15  Conv=0.57D-08     -V/T= 2.0067

 **********************************************************************

            Population analysis using the SCF Density.

 **********************************************************************

 Orbital symmetries:
       Occupied  (A) (A) (A) (A) (A) (A) (A) (A) (A) (A) (A) (A)
                 (A) (A) (A) (A) (A) (A) (A) (A) (A) (A) (A) (A)
                 (A) (A) (A) (A) (A) (A) (A) (A) (A) (A) (A) (A)
                 (A) (A) (A) (A) (A) (A) (A) (A) (A) (A) (A) (A)
       Virtual   (A) (A) (A) (A) (A) (A) (A) (A) (A) (A) (A) (A)
                 (A) (A) (A) (A) (A) (A) (A) (A) (A) (A) (A) (A)
                 (A) (A) (A) (A) (A) (A) (A) (A) (A) (A) (A) (A)
                 (A) (A) (A) (A) (A) (A) (A) (A) (A) (A) (A) (A)
                 (A) (A) (A) (A) (A) (A) (A) (A) (A) (A) (A) (A)
                 (A) (A) (A) (A) (A) (A) (A) (A) (A) (A) (A) (A)
                 (A) (A) (A) (A) (A) (A) (A) (A) (A) (A) (A) (A)
                 (A) (A) (A) (A) (A) (A) (A) (A) (A) (A) (A) (A)
                 (A) (A) (A) (A) (A) (A) (A) (A) (A) (A) (A) (A)
                 (A) (A) (A) (A) (A) (A) (A) (A) (A) (A) (A) (A)
                 (A) (A) (A) (A) (A) (A) (A) (A) (A) (A) (A) (A)
                 (A) (A) (A) (A) (A) (A) (A) (A) (A) (A) (A) (A)
                 (A) (A) (A) (A) (A) (A) (A) (A) (A) (A) (A) (A)
                 (A) (A) (A) (A) (A) (A) (A) (A) (A) (A) (A) (A)
                 (A) (A) (A) (A) (A) (A) (A) (A)
 The electronic state is 1-A.
 Alpha  occ. eigenvalues -- -101.56667 -19.19497 -19.14297 -14.34714 -10.32850
 Alpha  occ. eigenvalues --  -10.27566 -10.25489 -10.24358 -10.23933 -10.23684
 Alpha  occ. eigenvalues --  -10.22017 -10.18965  -9.48321  -7.24720  -7.23757
 Alpha  occ. eigenvalues --   -7.23697  -1.09906  -1.01122  -0.95162  -0.89674
 Alpha  occ. eigenvalues --   -0.80415  -0.79094  -0.74151  -0.70499  -0.65556
 Alpha  occ. eigenvalues --   -0.61842  -0.57853  -0.53302  -0.51653  -0.49492
 Alpha  occ. eigenvalues --   -0.48067  -0.46951  -0.45222  -0.44166  -0.43261
 Alpha  occ. eigenvalues --   -0.42179  -0.40198  -0.39927  -0.39474  -0.37895
 Alpha  occ. eigenvalues --   -0.36150  -0.34946  -0.32770  -0.30068  -0.28678
 Alpha  occ. eigenvalues --   -0.27724  -0.26921  -0.26051
 Alpha virt. eigenvalues --   -0.06277  -0.03489   0.01879   0.03183   0.11074
 Alpha virt. eigenvalues --    0.11404   0.12343   0.13032   0.13269   0.15331
 Alpha virt. eigenvalues --    0.16029   0.16658   0.17285   0.18861   0.20722
 Alpha virt. eigenvalues --    0.22797   0.24851   0.27417   0.28740   0.32534
 Alpha virt. eigenvalues --    0.34038   0.34960   0.39142   0.40363   0.42627
 Alpha virt. eigenvalues --    0.43929   0.45373   0.48837   0.50183   0.50747
 Alpha virt. eigenvalues --    0.52044   0.53268   0.53717   0.55972   0.57177
 Alpha virt. eigenvalues --    0.57444   0.58470   0.59907   0.60278   0.62205
 Alpha virt. eigenvalues --    0.63130   0.64856   0.67284   0.67929   0.69158
 Alpha virt. eigenvalues --    0.71851   0.72675   0.74036   0.75887   0.79373
 Alpha virt. eigenvalues --    0.81320   0.82321   0.83195   0.83361   0.84024
 Alpha virt. eigenvalues --    0.84927   0.86061   0.87085   0.89093   0.90503
 Alpha virt. eigenvalues --    0.90793   0.92882   0.94863   0.95810   0.96809
 Alpha virt. eigenvalues --    0.97336   0.98912   1.00279   1.04358   1.06865
 Alpha virt. eigenvalues --    1.09156   1.09973   1.13010   1.14705   1.18114
 Alpha virt. eigenvalues --    1.21547   1.23470   1.24861   1.29714   1.31699
 Alpha virt. eigenvalues --    1.33064   1.35449   1.36744   1.38729   1.40267
 Alpha virt. eigenvalues --    1.44808   1.46554   1.48660   1.50699   1.55140
 Alpha virt. eigenvalues --    1.59997   1.62634   1.66197   1.67802   1.69021
 Alpha virt. eigenvalues --    1.73103   1.76845   1.77694   1.80127   1.80737
 Alpha virt. eigenvalues --    1.84920   1.86903   1.87863   1.88092   1.91501
 Alpha virt. eigenvalues --    1.94493   1.95230   1.97311   1.98696   2.00050
 Alpha virt. eigenvalues --    2.01858   2.02783   2.05106   2.05899   2.07886
 Alpha virt. eigenvalues --    2.09629   2.11816   2.12517   2.14229   2.16048
 Alpha virt. eigenvalues --    2.18620   2.21079   2.27912   2.28802   2.29257
 Alpha virt. eigenvalues --    2.34957   2.36178   2.38316   2.42554   2.44616
 Alpha virt. eigenvalues --    2.46355   2.46864   2.50446   2.51357   2.55218
 Alpha virt. eigenvalues --    2.57709   2.59959   2.62267   2.63460   2.65002
 Alpha virt. eigenvalues --    2.66831   2.68724   2.69750   2.73787   2.77527
 Alpha virt. eigenvalues --    2.83008   2.85197   2.85711   2.87534   2.93161
 Alpha virt. eigenvalues --    2.95459   2.97157   3.07692   3.14983   3.17476
 Alpha virt. eigenvalues --    3.20494   3.21690   3.26970   3.29682   3.41221
 Alpha virt. eigenvalues --    3.43238   3.44191   3.48095   3.66444   3.99029
 Alpha virt. eigenvalues --    4.03385   4.07256   4.14480   4.20008   4.26226
 Alpha virt. eigenvalues --    4.31669   4.35394   4.42923   4.49760   4.53870
 Alpha virt. eigenvalues --    4.70713
          Condensed to atoms (all electrons):
               1          2          3          4          5          6
     1  Cl  16.874865   0.256185  -0.073124  -0.010871   0.004132  -0.000062
     2  C    0.256185   5.112596   0.465518  -0.068793  -0.021987   0.005217
     3  C   -0.073124   0.465518   4.875477   0.374164   0.472063  -0.062363
     4  C   -0.010871  -0.068793   0.374164   4.990454  -0.049122  -0.006441
     5  C    0.004132  -0.021987   0.472063  -0.049122   4.943557   0.319757
     6  C   -0.000062   0.005217  -0.062363  -0.006441   0.319757   4.454175
     7  O    0.000000  -0.000034   0.000981   0.000201  -0.081564   0.268774
     8  C   -0.000000   0.000001  -0.000034  -0.000020   0.006657  -0.018321
     9  O    0.000002   0.000092  -0.006941   0.001339  -0.064446   0.512592
    10  N   -0.000200  -0.054515  -0.031864   0.005547   0.382126  -0.065369
    11  C    0.004836  -0.032309  -0.035632   0.000018  -0.050355   0.003969
    12  C   -0.080597   0.494470  -0.026100   0.006952  -0.041447  -0.000102
    13  H    0.000446   0.004341  -0.022783   0.374331  -0.008434   0.003689
    14  H    0.000889   0.000334  -0.020817   0.375610  -0.004381   0.001514
    15  H    0.005415  -0.011125  -0.022072   0.369539   0.003819   0.000082
    16  H    0.000000   0.000000   0.000001  -0.000004  -0.000500  -0.005089
    17  H    0.000000   0.000000   0.000004  -0.000001   0.000161  -0.004940
    18  H    0.000000  -0.000000   0.000002  -0.000000   0.000007   0.003760
    19  H   -0.000187   0.003162   0.000918   0.000016   0.004041  -0.000173
    20  H   -0.001956  -0.040219   0.004462  -0.000116   0.000612   0.000013
               7          8          9         10         11         12
     1  Cl   0.000000  -0.000000   0.000002  -0.000200   0.004836  -0.080597
     2  C   -0.000034   0.000001   0.000092  -0.054515  -0.032309   0.494470
     3  C    0.000981  -0.000034  -0.006941  -0.031864  -0.035632  -0.026100
     4  C    0.000201  -0.000020   0.001339   0.005547   0.000018   0.006952
     5  C   -0.081564   0.006657  -0.064446   0.382126  -0.050355  -0.041447
     6  C    0.268774  -0.018321   0.512592  -0.065369   0.003969  -0.000102
     7  O    8.199544   0.221211  -0.081087   0.003595   0.000223  -0.000022
     8  C    0.221211   4.709248   0.004976  -0.000271   0.000007   0.000001
     9  O   -0.081087   0.004976   8.103302   0.001231  -0.000061  -0.000002
    10  N    0.003595  -0.000271   0.001231   6.843695   0.450475  -0.020546
    11  C    0.000223   0.000007  -0.000061   0.450475   4.725680   0.472374
    12  C   -0.000022   0.000001  -0.000002  -0.020546   0.472374   4.968433
    13  H   -0.000217   0.000014   0.002070  -0.000011   0.000012  -0.000143
    14  H    0.000021   0.000001   0.002834  -0.000086   0.000028  -0.000194
    15  H    0.000002  -0.000000   0.000520  -0.000074  -0.000013   0.000193
    16  H   -0.032664   0.381537   0.006200   0.000012   0.000001  -0.000000
    17  H   -0.030871   0.383235   0.004307  -0.000043  -0.000001  -0.000000
    18  H   -0.029237   0.391193   0.000341  -0.000013  -0.000000   0.000000
    19  H    0.000008  -0.000001   0.000001  -0.048775   0.390325  -0.062041
    20  H   -0.000000   0.000000  -0.000000   0.004658  -0.030245   0.362844
              13         14         15         16         17         18
     1  Cl   0.000446   0.000889   0.005415   0.000000   0.000000   0.000000
     2  C    0.004341   0.000334  -0.011125   0.000000   0.000000  -0.000000
     3  C   -0.022783  -0.020817  -0.022072   0.000001   0.000004   0.000002
     4  C    0.374331   0.375610   0.369539  -0.000004  -0.000001  -0.000000
     5  C   -0.008434  -0.004381   0.003819  -0.000500   0.000161   0.000007
     6  C    0.003689   0.001514   0.000082  -0.005089  -0.004940   0.003760
     7  O   -0.000217   0.000021   0.000002  -0.032664  -0.030871  -0.029237
     8  C    0.000014   0.000001  -0.000000   0.381537   0.383235   0.391193
     9  O    0.002070   0.002834   0.000520   0.006200   0.004307   0.000341
    10  N   -0.000011  -0.000086  -0.000074   0.000012  -0.000043  -0.000013
    11  C    0.000012   0.000028  -0.000013   0.000001  -0.000001  -0.000000
    12  C   -0.000143  -0.000194   0.000193  -0.000000  -0.000000   0.000000
    13  H    0.575250  -0.026314  -0.033416   0.000027  -0.000001   0.000000
    14  H   -0.026314   0.546439  -0.028924  -0.000001  -0.000000  -0.000000
    15  H   -0.033416  -0.028924   0.592558   0.000000  -0.000000  -0.000000
    16  H    0.000027  -0.000001   0.000000   0.599756  -0.038084  -0.036936
    17  H   -0.000001  -0.000000  -0.000000  -0.038084   0.593463  -0.036136
    18  H    0.000000  -0.000000  -0.000000  -0.036936  -0.036136   0.579602
    19  H    0.000000  -0.000000  -0.000000   0.000000   0.000000  -0.000000
    20  H    0.000002   0.000002  -0.000007   0.000000  -0.000000  -0.000000
              19         20
     1  Cl  -0.000187  -0.001956
     2  C    0.003162  -0.040219
     3  C    0.000918   0.004462
     4  C    0.000016  -0.000116
     5  C    0.004041   0.000612
     6  C   -0.000173   0.000013
     7  O    0.000008  -0.000000
     8  C   -0.000001   0.000000
     9  O    0.000001  -0.000000
    10  N   -0.048775   0.004658
    11  C    0.390325  -0.030245
    12  C   -0.062041   0.362844
    13  H    0.000000   0.000002
    14  H   -0.000000   0.000002
    15  H   -0.000000  -0.000007
    16  H    0.000000   0.000000
    17  H    0.000000  -0.000000
    18  H   -0.000000  -0.000000
    19  H    0.600505  -0.002438
    20  H   -0.002438   0.585490
 Mulliken charges:
               1
     1  Cl   0.020227
     2  C   -0.112935
     3  C    0.108141
     4  C   -0.362804
     5  C    0.185302
     6  C    0.589316
     7  O   -0.438861
     8  C   -0.079433
     9  O   -0.487270
    10  N   -0.469572
    11  C    0.100667
    12  C   -0.074072
    13  H    0.131138
    14  H    0.153045
    15  H    0.123505
    16  H    0.125744
    17  H    0.128907
    18  H    0.127418
    19  H    0.114638
    20  H    0.116899
 Sum of Mulliken charges =  -0.00000
 Mulliken charges with hydrogens summed into heavy atoms:
               1
     1  Cl   0.020227
     2  C   -0.112935
     3  C    0.108141
     4  C    0.044884
     5  C    0.185302
     6  C    0.589316
     7  O   -0.438861
     8  C    0.302636
     9  O   -0.487270
    10  N   -0.469572
    11  C    0.215306
    12  C    0.042827
 Electronic spatial extent (au):  <R**2>=           2729.8691
 Charge=              0.0000 electrons
 Dipole moment (field-independent basis, Debye):
    X=              0.1979    Y=              0.8244    Z=             -0.9363  Tot=              1.2631
 Quadrupole moment (field-independent basis, Debye-Ang):
   XX=            -66.2856   YY=            -74.2879   ZZ=            -76.4466
   XY=              2.1241   XZ=              3.0278   YZ=              2.4260
 Traceless Quadrupole moment (field-independent basis, Debye-Ang):
   XX=              6.0544   YY=             -1.9478   ZZ=             -4.1066
   XY=              2.1241   XZ=              3.0278   YZ=              2.4260
 Octapole moment (field-independent basis, Debye-Ang**2):
  XXX=            -72.4214  YYY=              7.2797  ZZZ=              0.2327  XYY=             19.8299
  XXY=              9.0242  XXZ=             -9.9838  XZZ=             -5.9806  YZZ=             -3.2591
  YYZ=             -3.2298  XYZ=             -4.2428
 Hexadecapole moment (field-independent basis, Debye-Ang**3):
 XXXX=          -2236.8909 YYYY=           -732.2107 ZZZZ=           -120.6180 XXXY=            -13.9076
 XXXZ=             36.3822 YYYX=             11.8678 YYYZ=              4.0295 ZZZX=             -1.0634
 ZZZY=             -3.7830 XXYY=           -561.5358 XXZZ=           -450.1461 YYZZ=           -153.9490
 XXYZ=             10.7812 YYXZ=              9.8620 ZZXY=             -5.1964
 N-N= 7.589831507240D+02 E-N=-3.810644244270D+03  KE= 9.686547383475D+02
 Calling FoFJK, ICntrl=      2127 FMM=F ISym2X=0 I1Cent= 0 IOpClX= 0 NMat=1 NMatS=1 NMatT=0.
 ***** Axes restored to original set *****
 -------------------------------------------------------------------
 Center     Atomic                   Forces (Hartrees/Bohr)
 Number     Number              X              Y              Z
 -------------------------------------------------------------------
      1       17          -0.006818199   -0.002907505    0.003915587
      2        6           0.019201683    0.004373650   -0.009170061
      3        6          -0.003219663   -0.019769456    0.015480812
      4        6           0.006330165    0.007419885   -0.001654797
      5        6          -0.012073965    0.030104640   -0.019680700
      6        6           0.014528306   -0.031263694    0.018177341
      7        8          -0.016400433    0.015254254   -0.004478839
      8        6           0.000969749   -0.015678881   -0.000706875
      9        8           0.000056620    0.030250454   -0.005632156
     10        7          -0.005496963   -0.003841085    0.006901952
     11        6           0.013852502   -0.023370492    0.007424185
     12        6          -0.000589587    0.000476303   -0.000102574
     13        1           0.004075227   -0.001622347   -0.003446596
     14        1           0.000813882   -0.001403330   -0.000399845
     15        1          -0.003720208    0.004197600   -0.004192851
     16        1          -0.002202666   -0.002240258    0.001537663
     17        1          -0.001651629   -0.002132588   -0.001364408
     18        1          -0.006174306    0.007494683   -0.000467004
     19        1           0.000608311    0.002770361   -0.001904505
     20        1          -0.002088825    0.001887807   -0.000236328
 -------------------------------------------------------------------
 Cartesian Forces:  Max     0.031263694 RMS     0.010847349

 GradGradGradGradGradGradGradGradGradGradGradGradGradGradGradGradGradGrad
 Berny optimization.
 FormGI is forming the generalized inverse of G from B-inverse, IUseBI=4.
 Internal  Forces:  Max     0.030457782 RMS     0.007569823
 Search for a local minimum.
 Step number   1 out of a maximum of   97
 All quantities printed in internal units (Hartrees-Bohrs-Radians)
 Mixed Optimization -- RFO/linear search
 Second derivative matrix not updated -- first step.
 ITU=  0
     Eigenvalues ---    0.00336   0.00674   0.01227   0.01259   0.01418
     Eigenvalues ---    0.01511   0.01916   0.02060   0.02125   0.02195
     Eigenvalues ---    0.02231   0.02232   0.02255   0.06677   0.07083
     Eigenvalues ---    0.10110   0.10236   0.16000   0.16000   0.16000
     Eigenvalues ---    0.16000   0.16000   0.16000   0.16000   0.16000
     Eigenvalues ---    0.22417   0.24410   0.24932   0.24952   0.24980
     Eigenvalues ---    0.24992   0.24999   0.25000   0.25000   0.29191
     Eigenvalues ---    0.31659   0.32403   0.34679   0.34679   0.34759
     Eigenvalues ---    0.34782   0.34823   0.34957   0.35860   0.35981
     Eigenvalues ---    0.40596   0.42350   0.42715   0.45131   0.46559
     Eigenvalues ---    0.50669   0.53108   0.53332   0.89196
 RFO step:  Lambda=-1.59521393D-02 EMin= 3.35675541D-03
 Linear search not attempted -- first point.
 Iteration  1 RMS(Cart)=  0.09072911 RMS(Int)=  0.00319164
 Iteration  2 RMS(Cart)=  0.00754068 RMS(Int)=  0.00136964
 Iteration  3 RMS(Cart)=  0.00001809 RMS(Int)=  0.00136962
 Iteration  4 RMS(Cart)=  0.00000002 RMS(Int)=  0.00136962
 Variable       Old X    -DE/DX   Delta X   Delta X   Delta X     New X
                                 (Linear)    (Quad)   (Total)
    R1        3.27112   0.00816   0.00000   0.02401   0.02401   3.29513
    R2        2.66322  -0.00798   0.00000  -0.01605  -0.01601   2.64721
    R3        2.63358  -0.00182   0.00000  -0.00169  -0.00183   2.63176
    R4        2.89606  -0.01337   0.00000  -0.04344  -0.04344   2.85262
    R5        2.68138  -0.01069   0.00000  -0.02506  -0.02488   2.65649
    R6        2.06031   0.00141   0.00000   0.00388   0.00388   2.06419
    R7        2.06068   0.00127   0.00000   0.00350   0.00350   2.06418
    R8        2.05744   0.00057   0.00000   0.00156   0.00156   2.05900
    R9        2.84772  -0.00949   0.00000  -0.02854  -0.02854   2.81918
   R10        2.58078  -0.02228   0.00000  -0.04360  -0.04346   2.53732
   R11        2.56853  -0.02123   0.00000  -0.03881  -0.03881   2.52972
   R12        2.33306  -0.03046   0.00000  -0.03355  -0.03355   2.29951
   R13        2.68479  -0.00137   0.00000  -0.00311  -0.00311   2.68169
   R14        2.06199   0.00246   0.00000   0.00677   0.00677   2.06876
   R15        2.06199   0.00218   0.00000   0.00602   0.00602   2.06801
   R16        2.05963  -0.00007   0.00000  -0.00018  -0.00018   2.05945
   R17        2.55566  -0.02096   0.00000  -0.03847  -0.03851   2.51715
   R18        2.62729   0.00033   0.00000   0.00137   0.00119   2.62848
   R19        2.04302   0.00341   0.00000   0.00912   0.00912   2.05213
   R20        2.04111   0.00282   0.00000   0.00752   0.00752   2.04863
    A1        2.13628  -0.00302   0.00000  -0.01466  -0.01462   2.12167
    A2        2.05257   0.00320   0.00000   0.00875   0.00879   2.06136
    A3        2.09431  -0.00018   0.00000   0.00589   0.00580   2.10011
    A4        2.09645   0.01110   0.00000   0.04119   0.04105   2.13750
    A5        2.05754  -0.01046   0.00000  -0.03794  -0.03774   2.01980
    A6        2.12892  -0.00063   0.00000  -0.00293  -0.00308   2.12584
    A7        1.92909  -0.00045   0.00000   0.00175   0.00183   1.93092
    A8        1.92673   0.00128   0.00000   0.00065   0.00047   1.92720
    A9        1.98232  -0.00765   0.00000  -0.04112  -0.04121   1.94111
   A10        1.88005  -0.00148   0.00000  -0.01315  -0.01316   1.86689
   A11        1.83991   0.00676   0.00000   0.05068   0.05084   1.89076
   A12        1.90130   0.00199   0.00000   0.00405   0.00372   1.90502
   A13        2.15026  -0.01558   0.00000  -0.05554  -0.05588   2.09438
   A14        2.11825   0.01742   0.00000   0.06128   0.06145   2.17969
   A15        2.01229  -0.00178   0.00000  -0.00357  -0.00388   2.00842
   A16        1.96981  -0.00532   0.00000  -0.01401  -0.02119   1.94862
   A17        2.16680   0.00032   0.00000   0.00688  -0.00024   2.16656
   A18        2.14190   0.00555   0.00000   0.02718   0.01990   2.16180
   A19        2.10302  -0.02668   0.00000  -0.10030  -0.10030   2.00272
   A20        1.93770   0.00021   0.00000   0.00198   0.00173   1.93943
   A21        1.93741   0.00090   0.00000   0.00599   0.00578   1.94319
   A22        1.91943  -0.01364   0.00000  -0.07918  -0.07953   1.83989
   A23        1.89108   0.00080   0.00000   0.00763   0.00750   1.89857
   A24        1.88846   0.00628   0.00000   0.03408   0.03369   1.92215
   A25        1.88830   0.00596   0.00000   0.03232   0.03201   1.92030
   A26        2.08414  -0.00710   0.00000  -0.03567  -0.03553   2.04861
   A27        2.13798   0.00393   0.00000   0.01571   0.01550   2.15348
   A28        2.02986  -0.00198   0.00000  -0.00796  -0.00786   2.02201
   A29        2.11532  -0.00194   0.00000  -0.00772  -0.00762   2.10769
   A30        2.07404  -0.00360   0.00000  -0.00906  -0.00937   2.06467
   A31        2.09967   0.00178   0.00000   0.00443   0.00459   2.10426
   A32        2.10947   0.00182   0.00000   0.00463   0.00478   2.11425
    D1       -0.03094   0.00028   0.00000   0.00967   0.00979  -0.02115
    D2        3.13519  -0.00010   0.00000  -0.00461  -0.00452   3.13067
    D3        3.11831   0.00034   0.00000   0.01297   0.01328   3.13159
    D4        0.00125  -0.00004   0.00000  -0.00132  -0.00103   0.00022
    D5       -3.13229   0.00002   0.00000   0.00052   0.00068  -3.13161
    D6        0.00652   0.00006   0.00000   0.00171   0.00176   0.00828
    D7        0.00200  -0.00007   0.00000  -0.00272  -0.00278  -0.00078
    D8        3.14081  -0.00003   0.00000  -0.00153  -0.00171   3.13911
    D9       -2.37674  -0.00184   0.00000  -0.03468  -0.03477  -2.41151
   D10        1.82822  -0.00053   0.00000  -0.01987  -0.01990   1.80833
   D11       -0.31303   0.00142   0.00000   0.00403   0.00368  -0.30934
   D12        0.73929  -0.00158   0.00000  -0.02027  -0.02004   0.71925
   D13       -1.33893  -0.00027   0.00000  -0.00545  -0.00517  -1.34410
   D14        2.80300   0.00168   0.00000   0.01845   0.01841   2.82141
   D15       -3.07484  -0.00075   0.00000  -0.02460  -0.02464  -3.09948
   D16       -0.01089   0.00015   0.00000   0.01075   0.01105   0.00016
   D17        0.09178  -0.00131   0.00000  -0.03981  -0.03951   0.05226
   D18       -3.12746  -0.00041   0.00000  -0.00445  -0.00382  -3.13129
   D19       -2.57284  -0.00309   0.00000  -0.12630  -0.12603  -2.69887
   D20        0.46726   0.00318   0.00000   0.09229   0.09110   0.55836
   D21        0.64208  -0.00477   0.00000  -0.16255  -0.16136   0.48072
   D22       -2.60101   0.00149   0.00000   0.05605   0.05577  -2.54524
   D23        0.01707  -0.00031   0.00000  -0.01661  -0.01701   0.00006
   D24        3.08681  -0.00015   0.00000   0.01360   0.01473   3.10154
   D25        3.10844   0.00355   0.00000   0.12342   0.12411  -3.05064
   D26        0.06668  -0.00228   0.00000  -0.09029  -0.09099  -0.02431
   D27       -1.05986  -0.00084   0.00000  -0.00603  -0.00582  -1.06567
   D28        1.04479   0.00092   0.00000   0.00899   0.00884   1.05363
   D29        3.13386   0.00006   0.00000   0.00167   0.00160   3.13547
   D30       -0.01376   0.00039   0.00000   0.01308   0.01308  -0.00068
   D31        3.13534   0.00027   0.00000   0.00843   0.00831  -3.13953
   D32        0.00424  -0.00008   0.00000  -0.00295  -0.00320   0.00104
   D33       -3.13455  -0.00012   0.00000  -0.00415  -0.00428  -3.13883
   D34        3.13796   0.00004   0.00000   0.00192   0.00181   3.13976
   D35       -0.00083   0.00001   0.00000   0.00072   0.00072  -0.00011
         Item               Value     Threshold  Converged?
 Maximum Force            0.030458     0.000450     NO 
 RMS     Force            0.007570     0.000300     NO 
 Maximum Displacement     0.403125     0.001800     NO 
 RMS     Displacement     0.094000     0.001200     NO 
 Predicted change in Energy=-9.016166D-03
 GradGradGradGradGradGradGradGradGradGradGradGradGradGradGradGradGradGrad

                          Input orientation:                          
 ---------------------------------------------------------------------
 Center     Atomic      Atomic             Coordinates (Angstroms)
 Number     Number       Type             X           Y           Z
 ---------------------------------------------------------------------
      1         17           0       -3.896089    0.498559    0.758676
      2          6           0       -2.294175    0.805886    0.142277
      3          6           0       -1.244666   -0.099765    0.343988
      4          6           0       -1.417896   -1.380197    1.124501
      5          6           0       -0.008284    0.264164   -0.217320
      6          6           0        1.160900   -0.655807   -0.106533
      7          8           0        2.320735    0.008839   -0.177723
      8          6           0        3.476784   -0.813979   -0.195974
      9          8           0        1.075148   -1.869430   -0.084544
     10          7           0        0.217991    1.390833   -0.911752
     11          6           0       -0.808024    2.223602   -1.079269
     12          6           0       -2.081445    1.980282   -0.575396
     13          1           0       -0.558616   -1.552863    1.776410
     14          1           0       -1.480314   -2.234352    0.446501
     15          1           0       -2.315209   -1.347460    1.741696
     16          1           0        3.548888   -1.413287    0.717312
     17          1           0        3.473276   -1.486466   -1.059302
     18          1           0        4.320327   -0.127066   -0.261417
     19          1           0       -0.597995    3.125767   -1.646064
     20          1           0       -2.891434    2.682739   -0.735768
 ---------------------------------------------------------------------
                    Distance matrix (angstroms):
                    1          2          3          4          5
     1  Cl   0.000000
     2  C    1.743710   0.000000
     3  C    2.749546   1.400843   0.000000
     4  C    3.131292   2.551780   1.509541   0.000000
     5  C    4.015287   2.376567   1.405756   2.547825   0.000000
     6  C    5.258734   3.759786   2.509760   2.947944   1.491848
     7  O    6.305995   4.694154   3.605005   4.195542   2.343308
     8  C    7.549395   6.003527   4.805595   5.101191   3.648088
     9  O    5.570601   4.308260   2.949049   2.813611   2.396598
    10  N    4.529032   2.786417   2.436828   3.808025   1.342691
    11  C    3.986221   2.389715   2.759411   4.268010   2.285156
    12  C    2.695957   1.392665   2.423234   3.823972   2.715009
    13  H    4.047573   3.353544   2.152671   1.092320   2.753073
    14  H    3.660905   3.161956   2.150000   1.092319   2.974913
    15  H    2.621697   2.682439   2.157868   1.089574   3.428845
    16  H    7.686648   6.276686   4.984263   4.983558   4.042383
    17  H    7.845566   6.321563   5.113818   5.357597   3.986841
    18  H    8.303101   6.692160   5.597893   6.034758   4.346479
    19  H    4.854113   3.384825   3.844807   5.352753   3.252358
    20  H    2.830784   2.156447   3.408820   4.705248   3.798796
                    6          7          8          9         10
     6  C    0.000000
     7  O    1.338671   0.000000
     8  C    2.323002   1.419087   0.000000
     9  O    1.216847   2.255673   2.625689   0.000000
    10  N    2.392946   2.621115   3.999158   3.471067   0.000000
    11  C    3.621308   3.937905   5.326038   4.613971   1.332018
    12  C    4.204949   4.839827   6.232637   5.002529   2.397496
    13  H    2.703131   3.814212   4.551999   2.496507   4.061364
    14  H    3.126285   4.457526   5.196445   2.635444   4.227417
    15  H    3.997207   5.197663   6.130771   3.886146   4.577787
    16  H    2.637231   2.081320   1.094743   2.640157   4.648852
    17  H    2.635307   2.083618   1.094343   2.616836   4.347125
    18  H    3.207107   2.005951   1.089815   3.687587   4.422229
    19  H    4.445690   4.515556   5.850485   5.494519   2.053056
    20  H    5.288028   5.884545   7.285095   6.072900   3.371723
                   11         12         13         14         15
    11  C    0.000000
    12  C    1.390932   0.000000
    13  H    4.741181   4.509226   0.000000
    14  H    4.759548   4.378215   1.755736   0.000000
    15  H    4.793948   4.061703   1.768903   1.777964   0.000000
    16  H    5.952928   6.699855   4.244144   5.102975   5.953263
    17  H    5.665203   6.565624   4.929687   5.231140   6.432066
    18  H    5.700395   6.747012   5.476287   6.212023   7.037909
    19  H    1.085942   2.158492   5.796935   5.821356   5.868177
    20  H    2.160879   1.084089   5.449166   5.250410   4.765750
                   16         17         18         19         20
    16  H    0.000000
    17  H    1.779728   0.000000
    18  H    1.790920   1.789436   0.000000
    19  H    6.586744   6.179985   6.057066   0.000000
    20  H    7.769597   7.615542   7.754322   2.506946   0.000000
 Stoichiometry    C8H8ClNO2
 Framework group  C1[X(C8H8ClNO2)]
 Deg. of freedom    54
 Full point group                 C1      NOp   1
 Largest Abelian subgroup         C1      NOp   1
 Largest concise Abelian subgroup C1      NOp   1
                         Standard orientation:                         
 ---------------------------------------------------------------------
 Center     Atomic      Atomic             Coordinates (Angstroms)
 Number     Number       Type             X           Y           Z
 ---------------------------------------------------------------------
      1         17           0        3.377630   -0.634751   -0.095866
      2          6           0        1.849159    0.201159   -0.021321
      3          6           0        0.632517   -0.493149   -0.030225
      4          6           0        0.558648   -1.997502   -0.131124
      5          6           0       -0.524260    0.301752    0.048192
      6          6           0       -1.869261   -0.341577    0.100276
      7          8           0       -2.824519    0.472741   -0.364923
      8          6           0       -4.146044   -0.028610   -0.238320
      9          8           0       -2.090846   -1.419753    0.619076
     10          7           0       -0.531097    1.642038    0.128233
     11          6           0        0.648175    2.261362    0.133400
     12          6           0        1.864933    1.591268    0.061525
     13          1           0       -0.242241   -2.298891   -0.810023
     14          1           0        0.331133   -2.434160    0.843928
     15          1           0        1.495386   -2.414467   -0.499681
     16          1           0       -4.269834   -0.960556   -0.799225
     17          1           0       -4.404008   -0.211083    0.809413
     18          1           0       -4.790868    0.746549   -0.651875
     19          1           0        0.613821    3.344660    0.200888
     20          1           0        2.804297    2.132336    0.071026
 ---------------------------------------------------------------------
 Rotational constants (GHZ):           1.7972795           0.4892741           0.3926497
 Standard basis: 6-31G(d,p) (6D, 7F)
 There are   224 symmetry adapted cartesian basis functions of A   symmetry.
 There are   224 symmetry adapted basis functions of A   symmetry.
   224 basis functions,   416 primitive gaussians,   224 cartesian basis functions
    48 alpha electrons       48 beta electrons
       nuclear repulsion energy       767.7836906407 Hartrees.
 NAtoms=   20 NActive=   20 NUniq=   20 SFac= 1.00D+00 NAtFMM=   60 NAOKFM=F Big=F
 Integral buffers will be    131072 words long.
 Raffenetti 2 integral format.
 Two-electron integral symmetry is turned on.
 Nuclear repulsion after empirical dispersion term =      767.7442952097 Hartrees.
 One-electron integrals computed using PRISM.
 NBasis=   224 RedAO= T EigKep=  6.74D-04  NBF=   224
 NBsUse=   224 1.00D-06 EigRej= -1.00D+00 NBFU=   224
 Initial guess from the checkpoint file:  "pyrd11_conf-1.chk"
 B after Tr=     0.000000    0.000000    0.000000
         Rot=    0.999997   -0.000814   -0.000018   -0.002376 Ang=  -0.29 deg.
 ExpMin= 1.43D-01 ExpMax= 2.52D+04 ExpMxC= 3.78D+03 IAcc=3 IRadAn=         5 AccDes= 0.00D+00
 Harris functional with IExCor=  402 and IRadAn=       5 diagonalized for initial guess.
 HarFok:  IExCor=  402 AccDes= 0.00D+00 IRadAn=         5 IDoV= 1 UseB2=F ITyADJ=14
 ICtDFT=  3500011 ScaDFX=  1.000000  1.000000  1.000000  1.000000
 FoFCou: FMM=F IPFlag=           0 FMFlag=      100000 FMFlg1=           0
         NFxFlg=           0 DoJE=T BraDBF=F KetDBF=T FulRan=T
         wScrn=  0.000000 ICntrl=       500 IOpCl=  0 I1Cent=   200000004 NGrid=           0
         NMat0=    1 NMatS0=      1 NMatT0=    0 NMatD0=    1 NMtDS0=    0 NMtDT0=    0
 Petite list used in FoFCou.
 Requested convergence on RMS density matrix=1.00D-08 within 128 cycles.
 Requested convergence on MAX density matrix=1.00D-06.
 Requested convergence on             energy=1.00D-06.
 No special actions if energy rises.
 Integral accuracy reduced to 1.0D-05 until final iterations.
 Initial convergence to 1.0D-05 achieved.  Increase integral accuracy.
 SCF Done:  E(RB3LYP) =  -975.117928923     A.U. after   14 cycles
            NFock= 14  Conv=0.42D-08     -V/T= 2.0063
 Calling FoFJK, ICntrl=      2127 FMM=F ISym2X=0 I1Cent= 0 IOpClX= 0 NMat=1 NMatS=1 NMatT=0.
 ***** Axes restored to original set *****
 -------------------------------------------------------------------
 Center     Atomic                   Forces (Hartrees/Bohr)
 Number     Number              X              Y              Z
 -------------------------------------------------------------------
      1       17          -0.003328464   -0.000879400    0.001623335
      2        6           0.005550252    0.003684794   -0.004531656
      3        6          -0.003951765   -0.007126394    0.005805375
      4        6           0.000082758    0.002383336    0.001923059
      5        6          -0.001253550    0.008215056   -0.000740253
      6        6           0.001297753   -0.004362045   -0.014662243
      7        8          -0.003810787    0.002879030    0.004410452
      8        6           0.010589126   -0.003915792    0.000126013
      9        8           0.001680688    0.000372393    0.005867428
     10        7          -0.001980951   -0.001571701    0.003227657
     11        6           0.002010633   -0.000614393   -0.001103386
     12        6          -0.003118544    0.000897507    0.000480372
     13        1          -0.000567813   -0.001002849   -0.001498294
     14        1          -0.000017939   -0.000479659    0.000405730
     15        1          -0.000890917    0.000431203   -0.001023022
     16        1          -0.000484671    0.000014109   -0.000953057
     17        1          -0.001198089    0.000307549    0.000798212
     18        1           0.000459756   -0.000328142    0.000171204
     19        1          -0.001401568    0.001235258   -0.000458128
     20        1           0.000334093   -0.000139861    0.000131201
 -------------------------------------------------------------------
 Cartesian Forces:  Max     0.014662243 RMS     0.003530912

 GradGradGradGradGradGradGradGradGradGradGradGradGradGradGradGradGradGrad
 Berny optimization.
 Using GEDIIS/GDIIS optimizer.
 FormGI is forming the generalized inverse of G from B-inverse, IUseBI=4.
 Internal  Forces:  Max     0.009903138 RMS     0.002385642
 Search for a local minimum.
 Step number   2 out of a maximum of   97
 All quantities printed in internal units (Hartrees-Bohrs-Radians)
 Mixed Optimization -- RFO/linear search
 Update second derivatives using D2CorX and points    1    2
 DE= -6.53D-03 DEPred=-9.02D-03 R= 7.25D-01
 TightC=F SS=  1.41D+00  RLast= 3.60D-01 DXNew= 5.0454D-01 1.0791D+00
 Trust test= 7.25D-01 RLast= 3.60D-01 DXMaxT set to 5.05D-01
 ITU=  1  0
 Use linear search instead of GDIIS.
     Eigenvalues ---    0.00336   0.00676   0.01237   0.01418   0.01512
     Eigenvalues ---    0.01762   0.01938   0.02062   0.02122   0.02195
     Eigenvalues ---    0.02232   0.02236   0.02254   0.06890   0.07126
     Eigenvalues ---    0.10148   0.10683   0.15237   0.16000   0.16000
     Eigenvalues ---    0.16000   0.16000   0.16000   0.16000   0.16234
     Eigenvalues ---    0.22194   0.22928   0.24614   0.24918   0.24988
     Eigenvalues ---    0.24997   0.24999   0.24999   0.26444   0.28878
     Eigenvalues ---    0.32135   0.33099   0.34679   0.34714   0.34756
     Eigenvalues ---    0.34822   0.34839   0.34956   0.35818   0.35987
     Eigenvalues ---    0.41077   0.42674   0.43505   0.45085   0.46679
     Eigenvalues ---    0.49819   0.53224   0.54037   0.87659
 RFO step:  Lambda=-3.30983848D-03 EMin= 3.35786461D-03
 Quartic linear search produced a step of -0.16703.
 Iteration  1 RMS(Cart)=  0.08021380 RMS(Int)=  0.00405452
 Iteration  2 RMS(Cart)=  0.00742453 RMS(Int)=  0.00214045
 Iteration  3 RMS(Cart)=  0.00001500 RMS(Int)=  0.00214043
 Iteration  4 RMS(Cart)=  0.00000006 RMS(Int)=  0.00214043
 Variable       Old X    -DE/DX   Delta X   Delta X   Delta X     New X
                                 (Linear)    (Quad)   (Total)
    R1        3.29513   0.00379  -0.00401   0.02144   0.01743   3.31256
    R2        2.64721   0.00217   0.00267  -0.00342  -0.00073   2.64648
    R3        2.63176  -0.00094   0.00031  -0.00269  -0.00236   2.62940
    R4        2.85262  -0.00107   0.00726  -0.02423  -0.01697   2.83565
    R5        2.65649   0.00712   0.00416   0.00228   0.00642   2.66291
    R6        2.06419  -0.00118  -0.00065  -0.00096  -0.00161   2.06258
    R7        2.06418   0.00012  -0.00058   0.00200   0.00141   2.06560
    R8        2.05900   0.00017  -0.00026   0.00116   0.00090   2.05989
    R9        2.81918   0.00948   0.00477   0.01113   0.01589   2.83508
   R10        2.53732  -0.00106   0.00726  -0.02258  -0.01536   2.52196
   R11        2.52972   0.00405   0.00648  -0.01233  -0.00585   2.52387
   R12        2.29951  -0.00038   0.00560  -0.01648  -0.01087   2.28864
   R13        2.68169   0.00990   0.00052   0.01808   0.01860   2.70029
   R14        2.06876  -0.00083  -0.00113   0.00128   0.00015   2.06891
   R15        2.06801  -0.00081  -0.00101   0.00096  -0.00005   2.06796
   R16        2.05945   0.00014   0.00003   0.00025   0.00028   2.05973
   R17        2.51715   0.00099   0.00643  -0.01723  -0.01082   2.50633
   R18        2.62848   0.00008  -0.00020   0.00040   0.00021   2.62869
   R19        2.05213   0.00099  -0.00152   0.00674   0.00522   2.05735
   R20        2.04863  -0.00036  -0.00126   0.00281   0.00156   2.05019
    A1        2.12167  -0.00230   0.00244  -0.01493  -0.01251   2.10916
    A2        2.06136  -0.00117  -0.00147   0.00027  -0.00122   2.06014
    A3        2.10011   0.00348  -0.00097   0.01469   0.01375   2.11386
    A4        2.13750  -0.00209  -0.00686   0.01254   0.00567   2.14317
    A5        2.01980  -0.00298   0.00630  -0.02721  -0.02094   1.99885
    A6        2.12584   0.00507   0.00052   0.01481   0.01531   2.14115
    A7        1.93092   0.00121  -0.00031   0.00908   0.00879   1.93971
    A8        1.92720   0.00061  -0.00008   0.00091   0.00080   1.92801
    A9        1.94111  -0.00149   0.00688  -0.02763  -0.02076   1.92036
   A10        1.86689  -0.00107   0.00220  -0.01305  -0.01085   1.85604
   A11        1.89076   0.00097  -0.00849   0.03483   0.02637   1.91712
   A12        1.90502  -0.00022  -0.00062  -0.00302  -0.00369   1.90132
   A13        2.09438   0.00186   0.00933  -0.02163  -0.01226   2.08212
   A14        2.17969  -0.00182  -0.01026   0.02490   0.01456   2.19426
   A15        2.00842  -0.00004   0.00065  -0.00255  -0.00187   2.00654
   A16        1.94862   0.00376   0.00354   0.01051   0.00260   1.95122
   A17        2.16656   0.00064   0.00004   0.00994  -0.00153   2.16503
   A18        2.16180  -0.00360  -0.00332   0.00653  -0.00831   2.15349
   A19        2.00272   0.00282   0.01675  -0.03966  -0.02290   1.97981
   A20        1.93943  -0.00026  -0.00029  -0.00139  -0.00167   1.93777
   A21        1.94319  -0.00178  -0.00097  -0.00739  -0.00836   1.93483
   A22        1.83989   0.00153   0.01328  -0.03001  -0.01670   1.82319
   A23        1.89857  -0.00025  -0.00125  -0.00066  -0.00193   1.89665
   A24        1.92215   0.00017  -0.00563   0.01925   0.01367   1.93582
   A25        1.92030   0.00065  -0.00535   0.02049   0.01514   1.93544
   A26        2.04861   0.00282   0.00593  -0.00798  -0.00215   2.04646
   A27        2.15348  -0.00042  -0.00259   0.00510   0.00248   2.15597
   A28        2.02201   0.00189   0.00131   0.00610   0.00742   2.02942
   A29        2.10769  -0.00147   0.00127  -0.01118  -0.00990   2.09779
   A30        2.06467  -0.00108   0.00156  -0.00950  -0.00790   2.05677
   A31        2.10426   0.00060  -0.00077   0.00500   0.00422   2.10848
   A32        2.11425   0.00048  -0.00080   0.00450   0.00369   2.11794
    D1       -0.02115   0.00023  -0.00164   0.01477   0.01305  -0.00810
    D2        3.13067   0.00008   0.00075  -0.00095  -0.00014   3.13053
    D3        3.13159   0.00010  -0.00222   0.01191   0.00960   3.14119
    D4        0.00022  -0.00005   0.00017  -0.00382  -0.00358  -0.00336
    D5       -3.13161  -0.00014  -0.00011  -0.00475  -0.00487  -3.13648
    D6        0.00828  -0.00008  -0.00029  -0.00174  -0.00205   0.00623
    D7       -0.00078  -0.00002   0.00046  -0.00208  -0.00159  -0.00237
    D8        3.13911   0.00004   0.00028   0.00092   0.00122   3.14033
    D9       -2.41151  -0.00054   0.00581  -0.04034  -0.03456  -2.44606
   D10        1.80833  -0.00035   0.00332  -0.03042  -0.02711   1.78122
   D11       -0.30934   0.00051  -0.00061  -0.00865  -0.00934  -0.31868
   D12        0.71925  -0.00043   0.00335  -0.02391  -0.02052   0.69873
   D13       -1.34410  -0.00025   0.00086  -0.01399  -0.01307  -1.35718
   D14        2.82141   0.00061  -0.00307   0.00778   0.00470   2.82611
   D15       -3.09948   0.00030   0.00412  -0.00294   0.00113  -3.09835
   D16        0.00016   0.00030  -0.00185   0.01900   0.01711   0.01726
   D17        0.05226   0.00021   0.00660  -0.01854  -0.01198   0.04028
   D18       -3.13129   0.00020   0.00064   0.00340   0.00400  -3.12729
   D19       -2.69887   0.00353   0.02105   0.10225   0.12286  -2.57601
   D20        0.55836  -0.00373  -0.01522  -0.14868  -0.16339   0.39497
   D21        0.48072   0.00358   0.02695   0.08168   0.10813   0.58885
   D22       -2.54524  -0.00367  -0.00932  -0.16925  -0.17812  -2.72336
   D23        0.00006  -0.00046   0.00284  -0.02675  -0.02395  -0.02389
   D24        3.10154  -0.00042  -0.00246  -0.00623  -0.00883   3.09271
   D25       -3.05064  -0.00362  -0.02073  -0.11016  -0.13001   3.10253
   D26       -0.02431   0.00394   0.01520   0.14022   0.15454   0.13023
   D27       -1.06567   0.00094   0.00097   0.00632   0.00724  -1.05843
   D28        1.05363  -0.00080  -0.00148  -0.00059  -0.00206   1.05157
   D29        3.13547  -0.00004  -0.00027   0.00195   0.00172   3.13719
   D30       -0.00068   0.00037  -0.00219   0.01961   0.01737   0.01669
   D31       -3.13953   0.00023  -0.00139   0.01231   0.01087  -3.12867
   D32        0.00104  -0.00014   0.00053  -0.00595  -0.00540  -0.00436
   D33       -3.13883  -0.00021   0.00071  -0.00898  -0.00823   3.13612
   D34        3.13976   0.00001  -0.00030   0.00171   0.00138   3.14114
   D35       -0.00011  -0.00005  -0.00012  -0.00131  -0.00146  -0.00157
         Item               Value     Threshold  Converged?
 Maximum Force            0.009903     0.000450     NO 
 RMS     Force            0.002386     0.000300     NO 
 Maximum Displacement     0.277420     0.001800     NO 
 RMS     Displacement     0.079040     0.001200     NO 
 Predicted change in Energy=-2.295974D-03
 GradGradGradGradGradGradGradGradGradGradGradGradGradGradGradGradGradGrad

                          Input orientation:                          
 ---------------------------------------------------------------------
 Center     Atomic      Atomic             Coordinates (Angstroms)
 Number     Number       Type             X           Y           Z
 ---------------------------------------------------------------------
      1         17           0       -3.845468    0.505196    0.872446
      2          6           0       -2.269531    0.815183    0.170231
      3          6           0       -1.221384   -0.100490    0.325822
      4          6           0       -1.367247   -1.379479    1.096921
      5          6           0       -0.018203    0.275059   -0.304283
      6          6           0        1.158380   -0.654367   -0.253338
      7          8           0        2.315842    0.011623   -0.230901
      8          6           0        3.459342   -0.839426   -0.131073
      9          8           0        1.072266   -1.847544   -0.064496
     10          7           0        0.183331    1.401840   -0.990437
     11          6           0       -0.844949    2.230510   -1.112928
     12          6           0       -2.095334    1.991538   -0.552187
     13          1           0       -0.473447   -1.586784    1.688064
     14          1           0       -1.488032   -2.225214    0.415056
     15          1           0       -2.238255   -1.324402    1.750004
     16          1           0        3.430728   -1.429271    0.790824
     17          1           0        3.511257   -1.523838   -0.983375
     18          1           0        4.308185   -0.155704   -0.129332
     19          1           0       -0.666446    3.138701   -1.686168
     20          1           0       -2.911135    2.696871   -0.670552
 ---------------------------------------------------------------------
                    Distance matrix (angstroms):
                    1          2          3          4          5
     1  Cl   0.000000
     2  C    1.752933   0.000000
     3  C    2.747994   1.400456   0.000000
     4  C    3.121533   2.547432   1.500561   0.000000
     5  C    4.010688   2.363340   1.409154   2.553584   0.000000
     6  C    5.258372   3.753606   2.511072   2.954281   1.500258
     7  O    6.278753   4.672501   3.582524   4.154928   2.350011
     8  C    7.495019   5.970637   4.760670   5.009550   3.655872
     9  O    5.531487   4.279348   2.909532   2.742115   2.398346
    10  N    4.528303   2.776301   2.441876   3.807505   1.334563
    11  C    3.990180   2.383083   2.765008   4.264768   2.271828
    12  C    2.702177   1.391418   2.431310   3.822751   2.705962
    13  H    4.051190   3.361425   2.150391   1.091469   2.764626
    14  H    3.636186   3.148760   2.143249   1.093067   2.988179
    15  H    2.588566   2.659790   2.135482   1.090048   3.421550
    16  H    7.529399   6.157569   4.860456   4.807987   3.999890
    17  H    7.853818   6.341872   5.112515   5.305495   4.019239
    18  H    8.241506   6.655728   5.548545   5.933958   4.351299
    19  H    4.856752   3.378585   3.853365   5.352631   3.245038
    20  H    2.838531   2.158546   3.416613   4.703634   3.790565
                    6          7          8          9         10
     6  C    0.000000
     7  O    1.335577   0.000000
     8  C    2.311628   1.428931   0.000000
     9  O    1.211094   2.242917   2.592078   0.000000
    10  N    2.392076   2.656540   4.061285   3.493719   0.000000
    11  C    3.615900   3.961316   5.377310   4.626602   1.326294
    12  C    4.204376   4.845799   6.248690   5.001008   2.394185
    13  H    2.702092   3.743991   4.397116   2.351316   4.066645
    14  H    3.149255   4.459839   5.166737   2.632058   4.233720
    15  H    3.999932   5.142835   6.019656   3.811251   4.561413
    16  H    2.618075   2.088796   1.094820   2.543397   4.661939
    17  H    2.612464   2.086354   1.094319   2.626368   4.431110
    18  H    3.191444   2.001936   1.089961   3.652082   4.492424
    19  H    4.446387   4.559656   5.938514   5.524091   2.054957
    20  H    5.288271   5.892804   7.306121   6.073425   3.369740
                   11         12         13         14         15
    11  C    0.000000
    12  C    1.391044   0.000000
    13  H    4.749243   4.522569   0.000000
    14  H    4.754132   4.368681   1.748578   0.000000
    15  H    4.772325   4.039303   1.785281   1.776621   0.000000
    16  H    5.941353   6.636488   4.009044   4.996892   5.750512
    17  H    5.752255   6.631565   4.797751   5.238362   6.369304
    18  H    5.763356   6.767165   5.311772   6.178622   6.910401
    19  H    1.088705   2.154906   5.809725   5.819083   5.847833
    20  H    2.163866   1.084912   5.463981   5.237431   4.741571
                   16         17         18         19         20
    16  H    0.000000
    17  H    1.778542   0.000000
    18  H    1.799609   1.798965   0.000000
    19  H    6.617302   6.299713   6.166344   0.000000
    20  H    7.705834   7.691512   7.781303   2.503062   0.000000
 Stoichiometry    C8H8ClNO2
 Framework group  C1[X(C8H8ClNO2)]
 Deg. of freedom    54
 Full point group                 C1      NOp   1
 Largest Abelian subgroup         C1      NOp   1
 Largest concise Abelian subgroup C1      NOp   1
                         Standard orientation:                         
 ---------------------------------------------------------------------
 Center     Atomic      Atomic             Coordinates (Angstroms)
 Number     Number       Type             X           Y           Z
 ---------------------------------------------------------------------
      1         17           0        3.348774   -0.688182   -0.143989
      2          6           0        1.836910    0.191366   -0.028068
      3          6           0        0.612134   -0.487011    0.003666
      4          6           0        0.509150   -1.982307   -0.068199
      5          6           0       -0.516973    0.349049    0.112463
      6          6           0       -1.880701   -0.268290    0.212036
      7          8           0       -2.813653    0.494616   -0.363587
      8          6           0       -4.119510   -0.084762   -0.333561
      9          8           0       -2.086968   -1.398812    0.594294
     10          7           0       -0.497028    1.682422    0.165157
     11          6           0        0.689922    2.273607    0.138592
     12          6           0        1.891711    1.580016    0.040421
     13          1           0       -0.331942   -2.289352   -0.692372
     14          1           0        0.324384   -2.400842    0.924517
     15          1           0        1.434876   -2.401763   -0.462274
     16          1           0       -4.137529   -1.040593   -0.867126
     17          1           0       -4.447744   -0.252499    0.696808
     18          1           0       -4.754531    0.649513   -0.829145
     19          1           0        0.688231    3.360850    0.194961
     20          1           0        2.843390    2.100377    0.016595
 ---------------------------------------------------------------------
 Rotational constants (GHZ):           1.7723194           0.4940282           0.3952300
 Standard basis: 6-31G(d,p) (6D, 7F)
 There are   224 symmetry adapted cartesian basis functions of A   symmetry.
 There are   224 symmetry adapted basis functions of A   symmetry.
   224 basis functions,   416 primitive gaussians,   224 cartesian basis functions
    48 alpha electrons       48 beta electrons
       nuclear repulsion energy       768.9860988283 Hartrees.
 NAtoms=   20 NActive=   20 NUniq=   20 SFac= 1.00D+00 NAtFMM=   60 NAOKFM=F Big=F
 Integral buffers will be    131072 words long.
 Raffenetti 2 integral format.
 Two-electron integral symmetry is turned on.
 Nuclear repulsion after empirical dispersion term =      768.9466277932 Hartrees.
 One-electron integrals computed using PRISM.
 NBasis=   224 RedAO= T EigKep=  6.81D-04  NBF=   224
 NBsUse=   224 1.00D-06 EigRej= -1.00D+00 NBFU=   224
 Initial guess from the checkpoint file:  "pyrd11_conf-1.chk"
 B after Tr=    -0.000000   -0.000000   -0.000000
         Rot=    0.999987    0.003127   -0.000075    0.004080 Ang=   0.59 deg.
 ExpMin= 1.43D-01 ExpMax= 2.52D+04 ExpMxC= 3.78D+03 IAcc=3 IRadAn=         5 AccDes= 0.00D+00
 Harris functional with IExCor=  402 and IRadAn=       5 diagonalized for initial guess.
 HarFok:  IExCor=  402 AccDes= 0.00D+00 IRadAn=         5 IDoV= 1 UseB2=F ITyADJ=14
 ICtDFT=  3500011 ScaDFX=  1.000000  1.000000  1.000000  1.000000
 FoFCou: FMM=F IPFlag=           0 FMFlag=      100000 FMFlg1=           0
         NFxFlg=           0 DoJE=T BraDBF=F KetDBF=T FulRan=T
         wScrn=  0.000000 ICntrl=       500 IOpCl=  0 I1Cent=   200000004 NGrid=           0
         NMat0=    1 NMatS0=      1 NMatT0=    0 NMatD0=    1 NMtDS0=    0 NMtDT0=    0
 Petite list used in FoFCou.
 Requested convergence on RMS density matrix=1.00D-08 within 128 cycles.
 Requested convergence on MAX density matrix=1.00D-06.
 Requested convergence on             energy=1.00D-06.
 No special actions if energy rises.
 Integral accuracy reduced to 1.0D-05 until final iterations.
 Initial convergence to 1.0D-05 achieved.  Increase integral accuracy.
 SCF Done:  E(RB3LYP) =  -975.116981045     A.U. after   13 cycles
            NFock= 13  Conv=0.76D-08     -V/T= 2.0062
 Calling FoFJK, ICntrl=      2127 FMM=F ISym2X=0 I1Cent= 0 IOpClX= 0 NMat=1 NMatS=1 NMatT=0.
 ***** Axes restored to original set *****
 -------------------------------------------------------------------
 Center     Atomic                   Forces (Hartrees/Bohr)
 Number     Number              X              Y              Z
 -------------------------------------------------------------------
      1       17          -0.001217019    0.000476841    0.000200595
      2        6          -0.000425550    0.001939615   -0.000283747
      3        6          -0.000239776   -0.000512285   -0.001266504
      4        6          -0.002508299   -0.000232908    0.002647996
      5        6           0.004574862   -0.004779992   -0.005247376
      6        6          -0.006110158    0.008582093    0.021665362
      7        8           0.002130412    0.000417157   -0.007692087
      8        6           0.007552457    0.000833810    0.000536639
      9        8           0.000963320   -0.011488088   -0.008471824
     10        7           0.000205156   -0.000343552   -0.001453636
     11        6          -0.002045884    0.007924772   -0.002283238
     12        6          -0.002427094   -0.000011294    0.000683245
     13        1          -0.001781497    0.000042499   -0.000161899
     14        1          -0.000335728   -0.000316207    0.000353652
     15        1           0.000469523   -0.001224387    0.000421843
     16        1          -0.000311067    0.001041973   -0.001035280
     17        1           0.000178702    0.000858902    0.000889053
     18        1           0.001422090   -0.002129145    0.000010183
     19        1          -0.000912802   -0.000198696    0.000504774
     20        1           0.000818350   -0.000881110   -0.000017747
 -------------------------------------------------------------------
 Cartesian Forces:  Max     0.021665362 RMS     0.004278889

 GradGradGradGradGradGradGradGradGradGradGradGradGradGradGradGradGradGrad
 Berny optimization.
 Using GEDIIS/GDIIS optimizer.
 FormGI is forming the generalized inverse of G from B-inverse, IUseBI=4.
 Internal  Forces:  Max     0.010204479 RMS     0.003453541
 Search for a local minimum.
 Step number   3 out of a maximum of   97
 All quantities printed in internal units (Hartrees-Bohrs-Radians)
 Mixed Optimization -- RFO/linear search
 Update second derivatives using D2CorX and points    1    3    2
 DE=  9.48D-04 DEPred=-2.30D-03 R=-4.13D-01
 Trust test=-4.13D-01 RLast= 3.70D-01 DXMaxT set to 2.52D-01
 ITU= -1  1  0
 Use linear search instead of GDIIS.
     Eigenvalues ---    0.00336   0.00679   0.01231   0.01418   0.01534
     Eigenvalues ---    0.01917   0.02060   0.02120   0.02195   0.02231
     Eigenvalues ---    0.02234   0.02254   0.06639   0.06919   0.07143
     Eigenvalues ---    0.10108   0.10778   0.14995   0.15999   0.16000
     Eigenvalues ---    0.16000   0.16000   0.16000   0.16034   0.16105
     Eigenvalues ---    0.21722   0.22548   0.24626   0.24821   0.24990
     Eigenvalues ---    0.24997   0.24999   0.24999   0.26374   0.28886
     Eigenvalues ---    0.30372   0.32170   0.34679   0.34681   0.34755
     Eigenvalues ---    0.34774   0.34825   0.34957   0.35817   0.35984
     Eigenvalues ---    0.39581   0.41317   0.42665   0.45100   0.46528
     Eigenvalues ---    0.50234   0.53214   0.53224   0.88561
 RFO step:  Lambda=-1.60039213D-03 EMin= 3.35984352D-03
 Quartic linear search produced a step of -0.59445.
 Iteration  1 RMS(Cart)=  0.07353530 RMS(Int)=  0.00150870
 Iteration  2 RMS(Cart)=  0.00293918 RMS(Int)=  0.00060071
 Iteration  3 RMS(Cart)=  0.00000428 RMS(Int)=  0.00060070
 Iteration  4 RMS(Cart)=  0.00000000 RMS(Int)=  0.00060070
 Variable       Old X    -DE/DX   Delta X   Delta X   Delta X     New X
                                 (Linear)    (Quad)   (Total)
    R1        3.31256   0.00109  -0.01036   0.01262   0.00226   3.31483
    R2        2.64648   0.00435   0.00043   0.00754   0.00796   2.65443
    R3        2.62940  -0.00024   0.00140  -0.00240  -0.00102   2.62838
    R4        2.83565   0.00355   0.01009  -0.00052   0.00957   2.84521
    R5        2.66291   0.00770  -0.00382   0.02097   0.01717   2.68008
    R6        2.06258  -0.00155   0.00096  -0.00453  -0.00357   2.05900
    R7        2.06560   0.00006  -0.00084   0.00055  -0.00029   2.06531
    R8        2.05989  -0.00018  -0.00053   0.00028  -0.00025   2.05964
    R9        2.83508   0.00594  -0.00945   0.03182   0.02237   2.85745
   R10        2.52196   0.00643   0.00913   0.00152   0.01068   2.53264
   R11        2.52387   0.00990   0.00348   0.01227   0.01574   2.53962
[...]
     19  H    Isotropic =    22.6318   Anisotropy =     7.1658
   XX=    26.9221   YX=    -1.2688   ZX=    -0.2595
   XY=    -1.9899   YY=    21.8268   ZY=     0.1447
   XZ=    -0.2555   YZ=     0.1811   ZZ=    19.1464
   Eigenvalues:    19.1329    21.3535    27.4090
     20  H    Isotropic =    23.8140   Anisotropy =     9.5546
   XX=    21.8032   YX=    -3.6163   ZX=    -0.2353
   XY=    -2.4353   YY=    29.0516   ZY=     0.5112
   XZ=     0.0021   YZ=     0.6398   ZZ=    20.5873
   Eigenvalues:    20.5134    20.7449    30.1838
 End of Minotr F.D. properties file   721 does not exist.
 End of Minotr F.D. properties file   722 does not exist.
 End of Minotr F.D. properties file   788 does not exist.

 **********************************************************************

            Population analysis using the SCF Density.

 **********************************************************************

 Orbital symmetries:
       Occupied  (A) (A) (A) (A) (A) (A) (A) (A) (A) (A) (A) (A)
                 (A) (A) (A) (A) (A) (A) (A) (A) (A) (A) (A) (A)
                 (A) (A) (A) (A) (A) (A) (A) (A) (A) (A) (A) (A)
                 (A) (A) (A) (A) (A) (A) (A) (A) (A) (A) (A) (A)
       Virtual   (A) (A) (A) (A) (A) (A) (A) (A) (A) (A) (A) (A)
                 (A) (A) (A) (A) (A) (A) (A) (A) (A) (A) (A) (A)
                 (A) (A) (A) (A) (A) (A) (A) (A) (A) (A) (A) (A)
                 (A) (A) (A) (A) (A) (A) (A) (A) (A) (A) (A) (A)
                 (A) (A) (A) (A) (A) (A) (A) (A) (A) (A) (A) (A)
                 (A) (A) (A) (A) (A) (A) (A) (A) (A) (A) (A) (A)
                 (A) (A) (A) (A) (A) (A) (A) (A) (A) (A) (A) (A)
                 (A) (A) (A) (A) (A) (A) (A) (A) (A) (A) (A) (A)
                 (A) (A) (A) (A) (A) (A) (A) (A) (A) (A) (A) (A)
                 (A) (A) (A) (A) (A) (A) (A) (A) (A) (A) (A) (A)
                 (A) (A) (A) (A) (A) (A) (A) (A) (A) (A) (A) (A)
                 (A) (A) (A) (A) (A) (A) (A) (A) (A) (A) (A) (A)
                 (A) (A) (A) (A) (A) (A) (A) (A) (A) (A) (A) (A)
                 (A) (A) (A) (A) (A) (A) (A) (A) (A) (A) (A) (A)
                 (A) (A) (A) (A) (A) (A) (A) (A) (A) (A) (A) (A)
                 (A) (A) (A) (A) (A) (A) (A) (A) (A) (A) (A) (A)
                 (A) (A) (A) (A) (A) (A) (A) (A) (A) (A) (A) (A)
                 (A) (A) (A) (A) (A) (A) (A) (A) (A) (A) (A) (A)
                 (A) (A) (A) (A) (A) (A) (A) (A) (A) (A) (A) (A)
                 (A) (A) (A) (A) (A) (A) (A) (A) (A) (A) (A) (A)
                 (A) (A) (A) (A) (A) (A) (A) (A) (A) (A) (A) (A)
                 (A) (A) (A) (A) (A) (A) (A) (A) (A) (A) (A) (A)
                 (A) (A) (A) (A) (A) (A) (A) (A) (A) (A) (A) (A)
                 (A) (A) (A) (A) (A) (A) (A) (A) (A) (A) (A) (A)
                 (A) (A) (A) (A) (A) (A) (A) (A) (A) (A) (A) (A)
                 (A) (A) (A) (A) (A) (A) (A) (A) (A) (A) (A) (A)
                 (A) (A) (A) (A) (A) (A) (A) (A) (A) (A) (A) (A)
                 (A) (A) (A) (A) (A) (A) (A) (A) (A) (A) (A) (A)
                 (A) (A) (A) (A) (A) (A) (A) (A) (A) (A) (A) (A)
                 (A) (A) (A) (A) (A) (A) (A) (A) (A) (A) (A) (A)
                 (A) (A) (A) (A) (A) (A) (A) (A) (A) (A) (A) (A)
                 (A) (A) (A) (A) (A) (A)
 The electronic state is 1-A.
 Alpha  occ. eigenvalues -- -102.66205 -19.67714 -19.62503 -14.76741 -10.68305
 Alpha  occ. eigenvalues --  -10.63208 -10.60804 -10.59423 -10.59413 -10.58944
 Alpha  occ. eigenvalues --  -10.57439 -10.54160  -9.82449  -7.54645  -7.54141
 Alpha  occ. eigenvalues --   -7.54110  -1.24012  -1.14574  -1.07625  -0.99484
 Alpha  occ. eigenvalues --   -0.91039  -0.89152  -0.83835  -0.80143  -0.74350
 Alpha  occ. eigenvalues --   -0.70632  -0.66115  -0.61831  -0.59937  -0.57377
 Alpha  occ. eigenvalues --   -0.57169  -0.56003  -0.52419  -0.52093  -0.49762
 Alpha  occ. eigenvalues --   -0.48686  -0.47548  -0.47006  -0.46785  -0.45300
 Alpha  occ. eigenvalues --   -0.43679  -0.43187  -0.39472  -0.38190  -0.37264
 Alpha  occ. eigenvalues --   -0.33979  -0.33854  -0.32693
 Alpha virt. eigenvalues --   -0.03341  -0.00899   0.05336   0.06997   0.07444
 Alpha virt. eigenvalues --    0.09070   0.10301   0.11502   0.12565   0.13544
 Alpha virt. eigenvalues --    0.13846   0.14281   0.15093   0.16247   0.18185
 Alpha virt. eigenvalues --    0.18466   0.18830   0.20441   0.21291   0.23524
 Alpha virt. eigenvalues --    0.23733   0.24210   0.24643   0.25652   0.26551
 Alpha virt. eigenvalues --    0.27470   0.28036   0.29425   0.30127   0.31107
 Alpha virt. eigenvalues --    0.32100   0.33037   0.33718   0.34250   0.34514
 Alpha virt. eigenvalues --    0.35246   0.36445   0.37706   0.39207   0.39479
 Alpha virt. eigenvalues --    0.39881   0.40761   0.41604   0.41871   0.42734
 Alpha virt. eigenvalues --    0.42812   0.43449   0.45093   0.46195   0.47353
 Alpha virt. eigenvalues --    0.47500   0.47934   0.49200   0.50016   0.50951
 Alpha virt. eigenvalues --    0.51248   0.52537   0.52929   0.53879   0.54342
 Alpha virt. eigenvalues --    0.55299   0.56244   0.57080   0.58621   0.60572
 Alpha virt. eigenvalues --    0.61869   0.62987   0.63771   0.64157   0.65174
 Alpha virt. eigenvalues --    0.66347   0.67083   0.67733   0.68830   0.70946
 Alpha virt. eigenvalues --    0.71629   0.72898   0.73719   0.74987   0.76165
 Alpha virt. eigenvalues --    0.77586   0.79420   0.79570   0.80514   0.82113
 Alpha virt. eigenvalues --    0.83466   0.85007   0.87476   0.88584   0.90199
 Alpha virt. eigenvalues --    0.90711   0.92167   0.94737   0.94862   0.96391
 Alpha virt. eigenvalues --    0.97868   0.99134   1.01212   1.02184   1.03363
 Alpha virt. eigenvalues --    1.04595   1.07015   1.07285   1.10254   1.11338
 Alpha virt. eigenvalues --    1.12450   1.14036   1.15100   1.19127   1.19628
 Alpha virt. eigenvalues --    1.22385   1.22899   1.25506   1.27427   1.29404
 Alpha virt. eigenvalues --    1.31576   1.33905   1.35325   1.36023   1.38728
 Alpha virt. eigenvalues --    1.39216   1.40835   1.44508   1.46176   1.48622
 Alpha virt. eigenvalues --    1.49416   1.50594   1.53280   1.54119   1.54539
 Alpha virt. eigenvalues --    1.55338   1.56751   1.57610   1.58530   1.59587
 Alpha virt. eigenvalues --    1.59931   1.62820   1.63885   1.64413   1.64829
 Alpha virt. eigenvalues --    1.66328   1.68172   1.69753   1.71462   1.72529
 Alpha virt. eigenvalues --    1.74378   1.75772   1.77481   1.79352   1.81701
 Alpha virt. eigenvalues --    1.82006   1.83204   1.84403   1.85698   1.86607
 Alpha virt. eigenvalues --    1.87473   1.88570   1.91254   1.91438   1.93786
 Alpha virt. eigenvalues --    1.94901   1.95870   1.97594   2.00061   2.02087
 Alpha virt. eigenvalues --    2.02628   2.04079   2.06064   2.07381   2.07863
 Alpha virt. eigenvalues --    2.09058   2.10277   2.11453   2.11566   2.13710
 Alpha virt. eigenvalues --    2.14417   2.15750   2.16188   2.18041   2.20506
 Alpha virt. eigenvalues --    2.22660   2.23184   2.24021   2.25966   2.26417
 Alpha virt. eigenvalues --    2.27064   2.28090   2.29239   2.30216   2.32037
 Alpha virt. eigenvalues --    2.32825   2.34735   2.35087   2.36973   2.37430
 Alpha virt. eigenvalues --    2.41189   2.41465   2.42487   2.44398   2.47820
 Alpha virt. eigenvalues --    2.52054   2.53163   2.53634   2.54205   2.55453
 Alpha virt. eigenvalues --    2.56031   2.57970   2.60548   2.61527   2.62295
 Alpha virt. eigenvalues --    2.63110   2.65402   2.67053   2.71384   2.72619
 Alpha virt. eigenvalues --    2.73479   2.76950   2.77395   2.79264   2.80112
 Alpha virt. eigenvalues --    2.82633   2.83393   2.85072   2.85813   2.88236
 Alpha virt. eigenvalues --    2.90259   2.91205   2.92484   2.95024   2.96336
 Alpha virt. eigenvalues --    2.97951   3.00151   3.01399   3.02139   3.03016
 Alpha virt. eigenvalues --    3.04421   3.05666   3.06505   3.07601   3.08258
 Alpha virt. eigenvalues --    3.10463   3.11427   3.12335   3.13167   3.16374
 Alpha virt. eigenvalues --    3.17052   3.17914   3.19745   3.21444   3.21949
 Alpha virt. eigenvalues --    3.23047   3.24246   3.25151   3.26726   3.28153
 Alpha virt. eigenvalues --    3.29386   3.30966   3.31215   3.31661   3.33344
 Alpha virt. eigenvalues --    3.35320   3.35517   3.37167   3.37772   3.38489
 Alpha virt. eigenvalues --    3.40174   3.40319   3.42340   3.43477   3.45391
 Alpha virt. eigenvalues --    3.46955   3.48847   3.49994   3.50829   3.52281
 Alpha virt. eigenvalues --    3.56113   3.57890   3.58254   3.60146   3.61905
 Alpha virt. eigenvalues --    3.64306   3.65600   3.66531   3.69673   3.71340
 Alpha virt. eigenvalues --    3.75182   3.76114   3.79209   3.83381   3.85204
 Alpha virt. eigenvalues --    3.88935   3.89156   3.94804   3.97725   3.99405
 Alpha virt. eigenvalues --    4.01605   4.06799   4.08127   4.09330   4.11837
 Alpha virt. eigenvalues --    4.15151   4.16218   4.17919   4.21066   4.21850
 Alpha virt. eigenvalues --    4.26847   4.27734   4.31533   4.35755   4.36434
 Alpha virt. eigenvalues --    4.38814   4.42041   4.43009   4.46088   4.47427
 Alpha virt. eigenvalues --    4.51224   4.53782   4.58071   4.59825   4.65932
 Alpha virt. eigenvalues --    4.70441   4.74237   4.80780   4.85753   4.89500
 Alpha virt. eigenvalues --    4.92080   4.97675   4.98574   5.07829   5.15123
 Alpha virt. eigenvalues --    5.15890   5.18879   5.19568   5.24280   5.26616
 Alpha virt. eigenvalues --    5.32172   5.36707   5.38436   5.47380   5.48368
 Alpha virt. eigenvalues --    5.53318   5.59567   5.64341   5.70954   5.75453
 Alpha virt. eigenvalues --    5.84359   5.95045   5.98565   6.05817   6.16088
 Alpha virt. eigenvalues --    6.24701   6.36035   6.38327   6.53128   6.64802
 Alpha virt. eigenvalues --    6.67005   6.77551   6.85363   6.88972   7.00642
 Alpha virt. eigenvalues --    7.11072   7.25582   7.37201  10.80744  10.89237
 Alpha virt. eigenvalues --   11.40745  22.39564  22.44426  22.53044  22.78608
 Alpha virt. eigenvalues --   22.89497  23.04433  23.27120  23.45543  26.00090
 Alpha virt. eigenvalues --   32.64385  44.05224  44.22359
          Condensed to atoms (all electrons):
               1          2          3          4          5          6
     1  Cl  16.838470   0.378631  -0.104342  -0.014429   0.015586  -0.000259
     2  C    0.378631   5.017984   0.325528  -0.090111  -0.039816   0.019156
     3  C   -0.104342   0.325528   5.471129   0.240041   0.270105  -0.002826
     4  C   -0.014429  -0.090111   0.240041   5.122258  -0.046028  -0.016972
     5  C    0.015586  -0.039816   0.270105  -0.046028   5.326024   0.204303
     6  C   -0.000259   0.019156  -0.002826  -0.016972   0.204303   4.561956
     7  O    0.000002   0.000069  -0.001100   0.000576  -0.095416   0.408441
     8  C   -0.000001   0.000077   0.000377  -0.000332   0.003609  -0.052313
     9  O    0.000012   0.000914  -0.002316  -0.012763  -0.081192   0.616510
    10  N   -0.000622  -0.032072  -0.070345   0.005732   0.455005  -0.034687
    11  C    0.006743  -0.030109  -0.033856  -0.000863  -0.096483  -0.002385
    12  C   -0.061097   0.443556   0.016727   0.011936  -0.069715   0.001596
    13  H    0.001366   0.016882  -0.042367   0.426950  -0.030030   0.008936
    14  H    0.001654  -0.004738  -0.033017   0.410989  -0.002487  -0.001427
    15  H    0.004662  -0.024428  -0.040711   0.414080   0.012104  -0.001732
    16  H   -0.000000   0.000025   0.000779  -0.000289  -0.003969  -0.010406
    17  H   -0.000000  -0.000002  -0.000417   0.000060   0.000038  -0.008736
    18  H    0.000000  -0.000008   0.000031   0.000022   0.002351   0.005443
    19  H   -0.000340   0.004855  -0.002208   0.000119   0.008308  -0.000414
    20  H    0.000437  -0.051892   0.016329   0.000477  -0.003542  -0.000021
               7          8          9         10         11         12
     1  Cl   0.000002  -0.000001   0.000012  -0.000622   0.006743  -0.061097
     2  C    0.000069   0.000077   0.000914  -0.032072  -0.030109   0.443556
     3  C   -0.001100   0.000377  -0.002316  -0.070345  -0.033856   0.016727
     4  C    0.000576  -0.000332  -0.012763   0.005732  -0.000863   0.011936
     5  C   -0.095416   0.003609  -0.081192   0.455005  -0.096483  -0.069715
     6  C    0.408441  -0.052313   0.616510  -0.034687  -0.002385   0.001596
     7  O    7.906360   0.215235  -0.077025  -0.022408  -0.001333  -0.000217
     8  C    0.215235   4.855562  -0.001804   0.000326   0.000057   0.000008
     9  O   -0.077025  -0.001804   7.903291   0.001475  -0.000606  -0.000086
    10  N   -0.022408   0.000326   0.001475   6.461171   0.537010  -0.062456
    11  C   -0.001333   0.000057  -0.000606   0.537010   4.809911   0.469786
    12  C   -0.000217   0.000008  -0.000086  -0.062456   0.469786   5.078777
    13  H   -0.000986   0.000263  -0.004269   0.000061   0.000267  -0.000438
    14  H   -0.000024   0.000000  -0.000240  -0.000140   0.000279  -0.001109
    15  H    0.000064  -0.000011   0.001947  -0.000182  -0.000251   0.001600
    16  H   -0.032938   0.419052   0.005498  -0.000155  -0.000000  -0.000000
    17  H   -0.034308   0.421923   0.004004  -0.000239  -0.000013  -0.000003
    18  H   -0.029705   0.393176   0.001756   0.000020   0.000023   0.000002
    19  H    0.000087  -0.000008   0.000002  -0.035928   0.437916  -0.076449
    20  H   -0.000001   0.000000  -0.000003   0.005640  -0.022581   0.402214
              13         14         15         16         17         18
     1  Cl   0.001366   0.001654   0.004662  -0.000000  -0.000000   0.000000
     2  C    0.016882  -0.004738  -0.024428   0.000025  -0.000002  -0.000008
     3  C   -0.042367  -0.033017  -0.040711   0.000779  -0.000417   0.000031
     4  C    0.426950   0.410989   0.414080  -0.000289   0.000060   0.000022
     5  C   -0.030030  -0.002487   0.012104  -0.003969   0.000038   0.002351
     6  C    0.008936  -0.001427  -0.001732  -0.010406  -0.008736   0.005443
     7  O   -0.000986  -0.000024   0.000064  -0.032938  -0.034308  -0.029705
     8  C    0.000263   0.000000  -0.000011   0.419052   0.421923   0.393176
     9  O   -0.004269  -0.000240   0.001947   0.005498   0.004004   0.001756
    10  N    0.000061  -0.000140  -0.000182  -0.000155  -0.000239   0.000020
    11  C    0.000267   0.000279  -0.000251  -0.000000  -0.000013   0.000023
    12  C   -0.000438  -0.001109   0.001600  -0.000000  -0.000003   0.000002
    13  H    0.502339  -0.018199  -0.026338   0.000300  -0.000039   0.000007
    14  H   -0.018199   0.501892  -0.032769   0.000002  -0.000000  -0.000000
    15  H   -0.026338  -0.032769   0.538812  -0.000002  -0.000001  -0.000000
    16  H    0.000300   0.000002  -0.000002   0.538762  -0.042731  -0.024535
    17  H   -0.000039  -0.000000  -0.000001  -0.042731   0.530706  -0.024102
    18  H    0.000007  -0.000000  -0.000000  -0.024535  -0.024102   0.527147
    19  H    0.000003  -0.000000  -0.000003   0.000000  -0.000000   0.000000
    20  H    0.000001  -0.000009  -0.000021   0.000000   0.000000   0.000000
              19         20
     1  Cl  -0.000340   0.000437
     2  C    0.004855  -0.051892
     3  C   -0.002208   0.016329
     4  C    0.000119   0.000477
     5  C    0.008308  -0.003542
     6  C   -0.000414  -0.000021
     7  O    0.000087  -0.000001
     8  C   -0.000008   0.000000
     9  O    0.000002  -0.000003
    10  N   -0.035928   0.005640
    11  C    0.437916  -0.022581
    12  C   -0.076449   0.402214
    13  H    0.000003   0.000001
    14  H   -0.000000  -0.000009
    15  H   -0.000003  -0.000021
    16  H    0.000000   0.000000
    17  H   -0.000000   0.000000
    18  H    0.000000   0.000000
    19  H    0.514553  -0.000116
    20  H   -0.000116   0.489453
 Mulliken charges:
               1
     1  Cl  -0.066474
     2  C    0.065499
     3  C   -0.007541
     4  C   -0.451454
     5  C    0.171243
     6  C    0.305837
     7  O   -0.235373
     8  C   -0.255198
     9  O   -0.355105
    10  N   -0.207205
    11  C   -0.073512
    12  C   -0.154632
    13  H    0.165292
    14  H    0.179344
    15  H    0.153181
    16  H    0.150606
    17  H    0.153861
    18  H    0.148374
    19  H    0.149622
    20  H    0.163636
 Sum of Mulliken charges =  -0.00000
 Mulliken charges with hydrogens summed into heavy atoms:
               1
     1  Cl  -0.066474
     2  C    0.065499
     3  C   -0.007541
     4  C    0.046362
     5  C    0.171243
     6  C    0.305837
     7  O   -0.235373
     8  C    0.197643
     9  O   -0.355105
    10  N   -0.207205
    11  C    0.076110
    12  C    0.009004
 Electronic spatial extent (au):  <R**2>=           2680.4885
 Charge=              0.0000 electrons
 Dipole moment (field-independent basis, Debye):
    X=              0.2782    Y=              0.8150    Z=             -0.7667  Tot=              1.1530
 Quadrupole moment (field-independent basis, Debye-Ang):
   XX=            -68.1238   YY=            -74.9228   ZZ=            -77.9508
   XY=              2.4575   XZ=              2.4526   YZ=              2.4877
 Traceless Quadrupole moment (field-independent basis, Debye-Ang):
   XX=              5.5420   YY=             -1.2570   ZZ=             -4.2850
   XY=              2.4575   XZ=              2.4526   YZ=              2.4877
 Octapole moment (field-independent basis, Debye-Ang**2):
  XXX=            -66.0141  YYY=              9.1271  ZZZ=              0.4038  XYY=             20.4734
  XXY=              7.5975  XXZ=             -7.0536  XZZ=             -4.9662  YZZ=             -3.8329
  YYZ=             -2.6992  XYZ=             -4.2843
 Hexadecapole moment (field-independent basis, Debye-Ang**3):
 XXXX=          -2255.5704 YYYY=           -743.4482 ZZZZ=           -120.5804 XXXY=             -8.4194
 XXXZ=             24.9706 YYYX=             11.8314 YYYZ=              4.4452 ZZZX=             -2.0335
 ZZZY=             -3.6911 XXYY=           -558.5058 XXZZ=           -448.0944 YYZZ=           -157.8258
 XXYZ=             10.6019 YYXZ=             11.1209 ZZXY=             -7.1743
 N-N= 7.653539656622D+02 E-N=-3.826315951883D+03  KE= 9.719874204241D+02
 Unable to Open any file for archive entry.
 1\1\GINC-COMPUTE-0-1\SP\RM062X\def2TZVP\C8H8Cl1N1O2\ZTAN64\14-Aug-2024
 \0\\# M062X/def2tzvp int=(grid=ultrafine) nmr=giao guess=read geom=che
 ck\\pyrd11.xyz\\0,1\Cl,0,-3.8838382185,0.462832182,0.7670771955\C,0,-2
 .2834894788,0.793976042,0.1277055156\C,0,-1.2356791597,-0.1171152571,0
 .3337418708\C,0,-1.4458602978,-1.3774554947,1.1284831203\C,0,-0.002733
 9797,0.258549896,-0.2462995977\C,0,1.1891801015,-0.6592738924,-0.16654
 80781\O,0,2.346150406,0.019520262,-0.1773307236\C,0,3.5260029102,-0.79
 92414235,-0.1562888084\O,0,1.1209108622,-1.87224293,-0.1099146514\N,0,
 0.2033827714,1.393559781,-0.9283595975\C,0,-0.8243397293,2.2231950069,
 -1.0942736676\C,0,-2.0965803498,1.9703668856,-0.5874038021\H,0,-0.5062
 552528,-1.786300784,1.4898789871\H,0,-1.9135108253,-2.1469985815,0.504
 7305351\H,0,-2.1154928785,-1.1863716695,1.9694843503\H,0,3.5469918011,
 -1.4207945244,0.742208671\H,0,3.5567538328,-1.4491736555,-1.0339464747
 \H,0,4.3633491173,-0.1028872988,-0.1635360728\H,0,-0.6301901113,3.1323
 955715,-1.6582922961\H,0,-2.9148515211,2.6634598843,-0.7408164755\\Ver
 sion=ES64L-G16RevC.01\State=1-A\HF=-975.0605076\RMSD=3.322e-09\Dipole=
 0.0111066,0.4354582,0.126674\Quadrupole=3.6613889,-2.0466084,-1.614780
 4,-2.6463338,1.3395682,-2.2772121\PG=C01 [X(C8H8Cl1N1O2)]\\@
 The archive entry for this job was punched.


 CHEMISTRY BEGAN BY SAYING IT WOULD CHANGE THE BASER
 METALS INTO GOLD.  BY NOT DOING THAT IT HAS DONE MUCH
 GREATER THINGS.  --  RALPH WALDO EMERSON
 Job cpu time:       0 days  0 hours 29 minutes 56.6 seconds.
 Elapsed time:       0 days  0 hours  1 minutes 59.3 seconds.
 File lengths (MBytes):  RWF=    107 Int=      0 D2E=      0 Chk=     17 Scr=      1
 Normal termination of Gaussian 16 at Wed Aug 14 19:03:20 2024.
 
 
-----Kestrel cluster job statistics-----
Time info:

real	11m4.960s
user	173m4.665s
sys	0m23.388s
 
Disk space usage:
17M	/scratch/362957.kestrel.chem.wisc.edu
