 Entering Gaussian System, Link 0=/share/apps/gaussian/g16/g16
 Initial command:
 /share/apps/gaussian/g16/l1.exe "/scratch/362972.kestrel.chem.wisc.edu/Gau-3787.inp" -scrdir="/scratch/362972.kestrel.chem.wisc.edu/"
 Entering Link 1 = /share/apps/gaussian/g16/l1.exe PID=      3788.
  
 Copyright (c) 1988-2019, Gaussian, Inc.  All Rights Reserved.
  
 This is part of the Gaussian(R) 16 program.  It is based on
 the Gaussian(R) 09 system (copyright 2009, Gaussian, Inc.),
 the Gaussian(R) 03 system (copyright 2003, Gaussian, Inc.),
 the Gaussian(R) 98 system (copyright 1998, Gaussian, Inc.),
 the Gaussian(R) 94 system (copyright 1995, Gaussian, Inc.),
 the Gaussian 92(TM) system (copyright 1992, Gaussian, Inc.),
 the Gaussian 90(TM) system (copyright 1990, Gaussian, Inc.),
 the Gaussian 88(TM) system (copyright 1988, Gaussian, Inc.),
 the Gaussian 86(TM) system (copyright 1986, Carnegie Mellon
 University), and the Gaussian 82(TM) system (copyright 1983,
 Carnegie Mellon University). Gaussian is a federally registered
 trademark of Gaussian, Inc.
  
 This software contains proprietary and confidential information,
 including trade secrets, belonging to Gaussian, Inc.
  
 This software is provided under written license and may be
 used, copied, transmitted, or stored only in accord with that
 written license.
  
 The following legend is applicable only to US Government
 contracts under FAR:
  
                    RESTRICTED RIGHTS LEGEND
  
 Use, reproduction and disclosure by the US Government is
 subject to restrictions as set forth in subparagraphs (a)
 and (c) of the Commercial Computer Software - Restricted
 Rights clause in FAR 52.227-19.
  
 Gaussian, Inc.
 340 Quinnipiac St., Bldg. 40, Wallingford CT 06492
  
  
 ---------------------------------------------------------------
 Warning -- This program may not be used in any manner that
 competes with the business of Gaussian, Inc. or will provide
 assistance to any competitor of Gaussian, Inc.  The licensee
 of this program is prohibited from giving any competitor of
 Gaussian, Inc. access to this program.  By using this program,
 the user acknowledges that Gaussian, Inc. is engaged in the
 business of creating and licensing software in the field of
 computational chemistry and represents and warrants to the
 licensee that it is not a competitor of Gaussian, Inc. and that
 it will not use this program in any manner prohibited above.
 ---------------------------------------------------------------
  

 Cite this work as:
 Gaussian 16, Revision C.01,
 M. J. Frisch, G. W. Trucks, H. B. Schlegel, G. E. Scuseria, 
 M. A. Robb, J. R. Cheeseman, G. Scalmani, V. Barone, 
 G. A. Petersson, H. Nakatsuji, X. Li, M. Caricato, A. V. Marenich, 
 J. Bloino, B. G. Janesko, R. Gomperts, B. Mennucci, H. P. Hratchian, 
 J. V. Ortiz, A. F. Izmaylov, J. L. Sonnenberg, D. Williams-Young, 
 F. Ding, F. Lipparini, F. Egidi, J. Goings, B. Peng, A. Petrone, 
 T. Henderson, D. Ranasinghe, V. G. Zakrzewski, J. Gao, N. Rega, 
 G. Zheng, W. Liang, M. Hada, M. Ehara, K. Toyota, R. Fukuda, 
 J. Hasegawa, M. Ishida, T. Nakajima, Y. Honda, O. Kitao, H. Nakai, 
 T. Vreven, K. Throssell, J. A. Montgomery, Jr., J. E. Peralta, 
 F. Ogliaro, M. J. Bearpark, J. J. Heyd, E. N. Brothers, K. N. Kudin, 
 V. N. Staroverov, T. A. Keith, R. Kobayashi, J. Normand, 
 K. Raghavachari, A. P. Rendell, J. C. Burant, S. S. Iyengar, 
 J. Tomasi, M. Cossi, J. M. Millam, M. Klene, C. Adamo, R. Cammi, 
 J. W. Ochterski, R. L. Martin, K. Morokuma, O. Farkas, 
 J. B. Foresman, and D. J. Fox, Gaussian, Inc., Wallingford CT, 2019.
 
 ******************************************
 Gaussian 16:  ES64L-G16RevC.01  3-Jul-2019
                14-Aug-2024 
 ******************************************
 %nprocs=16
 Will use up to   16 processors via shared memory.
 %mem=16GB
 %chk=pyrd5_conf-1.chk
 ----------------------------------------------------------------------
 # B3LYP/6-31G(d,p) symmetry=loose empiricaldispersion=GD3BJ int=(grid=
 ultrafine) opt freq=noraman
 ----------------------------------------------------------------------
 1/18=20,19=15,26=4,38=1/1,3;
 2/9=110,12=2,17=4,18=3,40=1/2;
 3/5=1,6=6,7=101,11=2,25=1,30=1,71=1,74=-5,75=-5,124=41/1,2,3;
 4//1;
 5/5=2,38=5/2;
 6/7=2,8=2,9=2,10=2,28=1/1;
 7//1,2,3,16;
 1/18=20,19=15,26=4/3(2);
 2/9=110/2;
 99//99;
 2/9=110/2;
 3/5=1,6=6,7=101,11=2,25=1,30=1,71=1,74=-5,75=-5,124=41/1,2,3;
 4/5=5,16=3,69=1/1;
 5/5=2,38=5/2;
 7//1,2,3,16;
 1/18=20,19=15,26=4/3(-5);
 2/9=110/2;
 6/7=2,8=2,9=2,10=2,19=2,28=1/1;
 99/9=1/99;
 ---------
 pyrd5.xyz
 ---------
 Symbolic Z-matrix:
 Charge =  0 Multiplicity = 1
 Cl                    0.213     3.6524   -0.6101 
 C                     0.0669    1.9576   -0.3256 
 N                    -1.1739    1.4097   -0.2871 
 C                    -1.2897    0.0709   -0.0648 
 C                    -2.7181   -0.4827   -0.0362 
 F                    -2.733    -1.7994    0.1863 
 F                    -3.42      0.1066    0.9332 
 F                    -3.3224   -0.2555   -1.2036 
 C                    -0.1684   -0.7495    0.1253 
 C                     1.1049   -0.1742    0.0887 
 C                     2.3408   -1.0328    0.2755 
 C                     1.2239    1.1985   -0.1444 
 H                    -0.285    -1.8099    0.2992 
 H                     3.1988   -0.6084   -0.2473 
 H                     2.5843   -1.1298    1.3338 
 H                     2.1869   -2.0299   -0.1388 
 H                     2.1911    1.6767   -0.1843 
 

 GradGradGradGradGradGradGradGradGradGradGradGradGradGradGradGradGradGrad
 Berny optimization.
 Initialization pass.
                           ----------------------------
                           !    Initial Parameters    !
                           ! (Angstroms and Degrees)  !
 --------------------------                            --------------------------
 ! Name  Definition              Value          Derivative Info.                !
 --------------------------------------------------------------------------------
 ! R1    R(1,2)                  1.7247         estimate D2E/DX2                !
 ! R2    R(2,3)                  1.3569         estimate D2E/DX2                !
 ! R3    R(2,12)                 1.3956         estimate D2E/DX2                !
 ! R4    R(3,4)                  1.3621         estimate D2E/DX2                !
 ! R5    R(4,5)                  1.5322         estimate D2E/DX2                !
 ! R6    R(4,9)                  1.4023         estimate D2E/DX2                !
 ! R7    R(5,6)                  1.3355         estimate D2E/DX2                !
 ! R8    R(5,7)                  1.334          estimate D2E/DX2                !
 ! R9    R(5,8)                  1.334          estimate D2E/DX2                !
 ! R10   R(9,10)                 1.3977         estimate D2E/DX2                !
 ! R11   R(9,13)                 1.0809         estimate D2E/DX2                !
 ! R12   R(10,11)                1.5164         estimate D2E/DX2                !
 ! R13   R(10,12)                1.3974         estimate D2E/DX2                !
 ! R14   R(11,14)                1.0907         estimate D2E/DX2                !
 ! R15   R(11,15)                1.0903         estimate D2E/DX2                !
 ! R16   R(11,16)                1.0907         estimate D2E/DX2                !
 ! R17   R(12,17)                1.0797         estimate D2E/DX2                !
 ! A1    A(1,2,3)              118.6146         estimate D2E/DX2                !
 ! A2    A(1,2,12)             119.0569         estimate D2E/DX2                !
 ! A3    A(3,2,12)             122.3284         estimate D2E/DX2                !
 ! A4    A(2,3,4)              118.6368         estimate D2E/DX2                !
 ! A5    A(3,4,5)              115.9411         estimate D2E/DX2                !
 ! A6    A(3,4,9)              121.9502         estimate D2E/DX2                !
 ! A7    A(5,4,9)              122.1087         estimate D2E/DX2                !
 ! A8    A(4,5,6)              111.7002         estimate D2E/DX2                !
 ! A9    A(4,5,7)              110.1489         estimate D2E/DX2                !
 ! A10   A(4,5,8)              110.1472         estimate D2E/DX2                !
 ! A11   A(6,5,7)              107.9747         estimate D2E/DX2                !
 ! A12   A(6,5,8)              107.9789         estimate D2E/DX2                !
 ! A13   A(7,5,8)              108.8038         estimate D2E/DX2                !
 ! A14   A(4,9,10)             118.9522         estimate D2E/DX2                !
 ! A15   A(4,9,13)             120.6306         estimate D2E/DX2                !
 ! A16   A(10,9,13)            120.4171         estimate D2E/DX2                !
 ! A17   A(9,10,11)            120.4104         estimate D2E/DX2                !
 ! A18   A(9,10,12)            119.0952         estimate D2E/DX2                !
 ! A19   A(11,10,12)           120.4859         estimate D2E/DX2                !
 ! A20   A(10,11,14)           111.2092         estimate D2E/DX2                !
 ! A21   A(10,11,15)           110.6078         estimate D2E/DX2                !
 ! A22   A(10,11,16)           110.8446         estimate D2E/DX2                !
 ! A23   A(14,11,15)           108.9172         estimate D2E/DX2                !
 ! A24   A(14,11,16)           106.5384         estimate D2E/DX2                !
 ! A25   A(15,11,16)           108.5964         estimate D2E/DX2                !
 ! A26   A(2,12,10)            119.0359         estimate D2E/DX2                !
 ! A27   A(2,12,17)            119.7984         estimate D2E/DX2                !
 ! A28   A(10,12,17)           121.1656         estimate D2E/DX2                !
 ! D1    D(1,2,3,4)            179.8857         estimate D2E/DX2                !
 ! D2    D(12,2,3,4)            -0.0667         estimate D2E/DX2                !
 ! D3    D(1,2,12,10)          179.8754         estimate D2E/DX2                !
 ! D4    D(1,2,12,17)           -0.0216         estimate D2E/DX2                !
 ! D5    D(3,2,12,10)           -0.1724         estimate D2E/DX2                !
 ! D6    D(3,2,12,17)          179.9306         estimate D2E/DX2                !
 ! D7    D(2,3,4,5)           -179.8927         estimate D2E/DX2                !
 ! D8    D(2,3,4,9)              0.0689         estimate D2E/DX2                !
 ! D9    D(3,4,5,6)            179.9695         estimate D2E/DX2                !
 ! D10   D(3,4,5,7)            -60.0436         estimate D2E/DX2                !
 ! D11   D(3,4,5,8)             59.9784         estimate D2E/DX2                !
 ! D12   D(9,4,5,6)              0.008          estimate D2E/DX2                !
 ! D13   D(9,4,5,7)            119.9949         estimate D2E/DX2                !
 ! D14   D(9,4,5,8)           -119.9831         estimate D2E/DX2                !
 ! D15   D(3,4,9,10)             0.1677         estimate D2E/DX2                !
 ! D16   D(3,4,9,13)          -179.9364         estimate D2E/DX2                !
 ! D17   D(5,4,9,10)          -179.8731         estimate D2E/DX2                !
 ! D18   D(5,4,9,13)             0.0229         estimate D2E/DX2                !
 ! D19   D(4,9,10,11)         -179.3491         estimate D2E/DX2                !
 ! D20   D(4,9,10,12)           -0.4024         estimate D2E/DX2                !
 ! D21   D(13,9,10,11)           0.7548         estimate D2E/DX2                !
 ! D22   D(13,9,10,12)         179.7015         estimate D2E/DX2                !
 ! D23   D(9,10,11,14)         151.4473         estimate D2E/DX2                !
 ! D24   D(9,10,11,15)         -87.3912         estimate D2E/DX2                !
 ! D25   D(9,10,11,16)          33.1219         estimate D2E/DX2                !
 ! D26   D(12,10,11,14)        -27.4846         estimate D2E/DX2                !
 ! D27   D(12,10,11,15)         93.6768         estimate D2E/DX2                !
 ! D28   D(12,10,11,16)       -145.81           estimate D2E/DX2                !
 ! D29   D(9,10,12,2)            0.405          estimate D2E/DX2                !
 ! D30   D(9,10,12,17)        -179.6995         estimate D2E/DX2                !
 ! D31   D(11,10,12,2)         179.3509         estimate D2E/DX2                !
 ! D32   D(11,10,12,17)         -0.7537         estimate D2E/DX2                !
 --------------------------------------------------------------------------------
 Trust Radius=3.00D-01 FncErr=1.00D-07 GrdErr=1.00D-06 EigMax=2.50D+02 EigMin=1.00D-04
 Number of steps in this run=     87 maximum allowed number of steps=    102.
 GradGradGradGradGradGradGradGradGradGradGradGradGradGradGradGradGradGrad

                          Input orientation:                          
 ---------------------------------------------------------------------
 Center     Atomic      Atomic             Coordinates (Angstroms)
 Number     Number       Type             X           Y           Z
 ---------------------------------------------------------------------
      1         17           0        0.213000    3.652400   -0.610100
      2          6           0        0.066900    1.957600   -0.325600
      3          7           0       -1.173900    1.409700   -0.287100
      4          6           0       -1.289700    0.070900   -0.064800
      5          6           0       -2.718100   -0.482700   -0.036200
      6          9           0       -2.733000   -1.799400    0.186300
      7          9           0       -3.420000    0.106600    0.933200
      8          9           0       -3.322400   -0.255500   -1.203600
      9          6           0       -0.168400   -0.749500    0.125300
     10          6           0        1.104900   -0.174200    0.088700
     11          6           0        2.340800   -1.032800    0.275500
     12          6           0        1.223900    1.198500   -0.144400
     13          1           0       -0.285000   -1.809900    0.299200
     14          1           0        3.198800   -0.608400   -0.247300
     15          1           0        2.584300   -1.129800    1.333800
     16          1           0        2.186900   -2.029900   -0.138800
     17          1           0        2.191100    1.676700   -0.184300
 ---------------------------------------------------------------------
                    Distance matrix (angstroms):
                    1          2          3          4          5
     1  Cl   0.000000
     2  C    1.724712   0.000000
     3  N    2.656600   1.356931   0.000000
     4  C    3.922066   2.338379   1.362062   0.000000
     5  C    5.100957   3.714168   2.455337   1.532194   0.000000
     6  F    6.247823   4.713441   3.599059   2.375750   1.335450
     7  F    5.305955   4.143579   2.869175   2.352755   1.334044
     8  F    5.303110   4.141986   2.868609   2.352716   1.334024
     9  C    4.479174   2.754463   2.417281   1.402322   2.568703
    10  C    3.990824   2.407002   2.800517   2.412000   3.837460
    11  C    5.221391   3.804528   4.316879   3.809788   5.098258
    12  C    2.694517   1.395606   2.411310   2.756085   4.286899
    13  H    5.559816   3.835136   3.391123   2.163175   2.791761
    14  H    5.215462   4.049603   4.816100   4.543279   5.921999
    15  H    5.680779   4.315432   4.816684   4.290179   5.514625
    16  H    6.033816   4.519895   4.811218   4.062707   5.144257
    17  H    2.827999   2.147346   3.377141   3.835211   5.365183
                    6          7          8          9         10
     6  F    0.000000
     7  F    2.159320   0.000000
     8  F    2.159361   2.169460   0.000000
     9  C    2.771856   3.458108   3.457995   0.000000
    10  C    4.168966   4.611589   4.612769   1.397713   0.000000
    11  C    5.132161   5.909113   5.904555   2.529605   1.516422
    12  C    4.975322   4.890734   4.889260   2.409552   1.397427
    13  H    2.450625   3.728693   3.728319   1.080872   2.156768
    14  H    6.065702   6.761163   6.600386   3.390690   2.164681
    15  H    5.480766   6.143353   6.487827   3.030257   2.156866
    16  H    4.936014   6.095174   5.885124   2.693810   2.160116
    17  H    6.038822   5.932829   5.930519   3.398461   2.163375
                   11         12         13         14         15
    11  C    0.000000
    12  C    2.530312   0.000000
    13  H    2.738480   3.394706   0.000000
    14  H    1.090687   2.678751   3.725470   0.000000
    15  H    1.090275   3.075182   3.125031   1.774640   0.000000
    16  H    1.090659   3.368971   2.520027   1.748249   1.771061
    17  H    2.752311   1.079696   4.303629   2.498221   3.214915
                   16         17
    16  H    0.000000
    17  H    3.706882   0.000000
 Stoichiometry    C7H5ClF3N
 Framework group  C1[X(C7H5ClF3N)]
 Deg. of freedom    45
 Full point group                 C1      NOp   1
 Largest Abelian subgroup         C1      NOp   1
 Largest concise Abelian subgroup C1      NOp   1
                         Standard orientation:                         
 ---------------------------------------------------------------------
 Center     Atomic      Atomic             Coordinates (Angstroms)
 Number     Number       Type             X           Y           Z
 ---------------------------------------------------------------------
      1         17           0       -2.670131   -1.905857   -0.001859
      2          6           0       -1.523504   -0.617499    0.001720
      3          7           0       -0.201640   -0.923991    0.001594
      4          6           0        0.704284    0.093120    0.002035
      5          6           0        2.178951   -0.322772   -0.000716
      6          9           0        2.990997    0.737421   -0.000733
      7          9           0        2.452985   -1.051216    1.082773
      8          9           0        2.449587   -1.048756   -1.086683
      9          6           0        0.309316    1.438670    0.004041
     10          6           0       -1.054762    1.743408    0.009213
     11          6           0       -1.518828    3.187023   -0.003343
     12          6           0       -1.984181    0.699880    0.003656
     13          1           0        1.046613    2.229036    0.003321
     14          1           0       -2.492860    3.284208   -0.484402
     15          1           0       -1.585746    3.577443    1.012429
     16          1           0       -0.828357    3.811710   -0.571281
     17          1           0       -3.045713    0.897087    0.002546
 ---------------------------------------------------------------------
 Rotational constants (GHZ):           1.0655550           0.5647693           0.3959064
 Standard basis: 6-31G(d,p) (6D, 7F)
 There are   209 symmetry adapted cartesian basis functions of A   symmetry.
 There are   209 symmetry adapted basis functions of A   symmetry.
   209 basis functions,   395 primitive gaussians,   209 cartesian basis functions
    49 alpha electrons       49 beta electrons
       nuclear repulsion energy       794.2637332680 Hartrees.
 NAtoms=   17 NActive=   17 NUniq=   17 SFac= 1.00D+00 NAtFMM=   60 NAOKFM=F Big=F
 Integral buffers will be    131072 words long.
 Raffenetti 2 integral format.
 Two-electron integral symmetry is turned on.
 Nuclear repulsion after empirical dispersion term =      794.2315337761 Hartrees.
 One-electron integrals computed using PRISM.
 NBasis=   209 RedAO= T EigKep=  7.51D-04  NBF=   209
 NBsUse=   209 1.00D-06 EigRej= -1.00D+00 NBFU=   209
 ExpMin= 1.43D-01 ExpMax= 2.52D+04 ExpMxC= 3.78D+03 IAcc=3 IRadAn=         5 AccDes= 0.00D+00
 Harris functional with IExCor=  402 and IRadAn=       5 diagonalized for initial guess.
 HarFok:  IExCor=  402 AccDes= 0.00D+00 IRadAn=         5 IDoV= 1 UseB2=F ITyADJ=14
 ICtDFT=  3500011 ScaDFX=  1.000000  1.000000  1.000000  1.000000
 FoFCou: FMM=F IPFlag=           0 FMFlag=      100000 FMFlg1=           0
         NFxFlg=           0 DoJE=T BraDBF=F KetDBF=T FulRan=T
         wScrn=  0.000000 ICntrl=       500 IOpCl=  0 I1Cent=   200000004 NGrid=           0
         NMat0=    1 NMatS0=      1 NMatT0=    0 NMatD0=    1 NMtDS0=    0 NMtDT0=    0
 Petite list used in FoFCou.
 Requested convergence on RMS density matrix=1.00D-08 within 128 cycles.
 Requested convergence on MAX density matrix=1.00D-06.
 Requested convergence on             energy=1.00D-06.
 No special actions if energy rises.
 Integral accuracy reduced to 1.0D-05 until final iterations.
 Initial convergence to 1.0D-05 achieved.  Increase integral accuracy.
 SCF Done:  E(RB3LYP) =  -1084.27243831     A.U. after   14 cycles
            NFock= 14  Conv=0.59D-08     -V/T= 2.0061

 **********************************************************************

            Population analysis using the SCF Density.

 **********************************************************************

 Orbital symmetries:
       Occupied  (A) (A) (A) (A) (A) (A) (A) (A) (A) (A) (A) (A)
                 (A) (A) (A) (A) (A) (A) (A) (A) (A) (A) (A) (A)
                 (A) (A) (A) (A) (A) (A) (A) (A) (A) (A) (A) (A)
                 (A) (A) (A) (A) (A) (A) (A) (A) (A) (A) (A) (A)
                 (A)
       Virtual   (A) (A) (A) (A) (A) (A) (A) (A) (A) (A) (A) (A)
                 (A) (A) (A) (A) (A) (A) (A) (A) (A) (A) (A) (A)
                 (A) (A) (A) (A) (A) (A) (A) (A) (A) (A) (A) (A)
                 (A) (A) (A) (A) (A) (A) (A) (A) (A) (A) (A) (A)
                 (A) (A) (A) (A) (A) (A) (A) (A) (A) (A) (A) (A)
                 (A) (A) (A) (A) (A) (A) (A) (A) (A) (A) (A) (A)
                 (A) (A) (A) (A) (A) (A) (A) (A) (A) (A) (A) (A)
                 (A) (A) (A) (A) (A) (A) (A) (A) (A) (A) (A) (A)
                 (A) (A) (A) (A) (A) (A) (A) (A) (A) (A) (A) (A)
                 (A) (A) (A) (A) (A) (A) (A) (A) (A) (A) (A) (A)
                 (A) (A) (A) (A) (A) (A) (A) (A) (A) (A) (A) (A)
                 (A) (A) (A) (A) (A) (A) (A) (A) (A) (A) (A) (A)
                 (A) (A) (A) (A) (A) (A) (A) (A) (A) (A) (A) (A)
                 (A) (A) (A) (A)
 The electronic state is 1-A.
 Alpha  occ. eigenvalues -- -101.56069 -24.73506 -24.72502 -24.72493 -14.35993
 Alpha  occ. eigenvalues --  -10.43786 -10.29996 -10.26316 -10.24148 -10.22390
 Alpha  occ. eigenvalues --  -10.22205 -10.21028  -9.47776  -7.24172  -7.23212
 Alpha  occ. eigenvalues --   -7.23139  -1.31401  -1.22581  -1.22076  -0.97118
 Alpha  occ. eigenvalues --   -0.87599  -0.84318  -0.78211  -0.73459  -0.71288
 Alpha  occ. eigenvalues --   -0.64862  -0.62250  -0.58776  -0.58740  -0.56584
 Alpha  occ. eigenvalues --   -0.51928  -0.51460  -0.47318  -0.46431  -0.45868
 Alpha  occ. eigenvalues --   -0.45397  -0.43139  -0.42739  -0.42189  -0.41483
 Alpha  occ. eigenvalues --   -0.41393  -0.40264  -0.40143  -0.37474  -0.34957
 Alpha  occ. eigenvalues --   -0.32585  -0.29601  -0.28432  -0.27094
 Alpha virt. eigenvalues --   -0.05266  -0.03991   0.03364   0.08719   0.09867
 Alpha virt. eigenvalues --    0.12030   0.12857   0.14572   0.16207   0.16864
 Alpha virt. eigenvalues --    0.21195   0.22341   0.22598   0.22801   0.26877
 Alpha virt. eigenvalues --    0.27449   0.30252   0.32918   0.37923   0.39378
 Alpha virt. eigenvalues --    0.41378   0.43706   0.45232   0.46194   0.47865
 Alpha virt. eigenvalues --    0.48468   0.50913   0.51269   0.53324   0.53736
 Alpha virt. eigenvalues --    0.54241   0.58019   0.59419   0.60584   0.62172
 Alpha virt. eigenvalues --    0.63756   0.66786   0.68151   0.69439   0.70931
 Alpha virt. eigenvalues --    0.72854   0.76558   0.79019   0.80560   0.82170
 Alpha virt. eigenvalues --    0.82333   0.84729   0.85297   0.85887   0.86743
 Alpha virt. eigenvalues --    0.90781   0.91628   0.91884   0.94024   0.96431
 Alpha virt. eigenvalues --    1.03903   1.06547   1.07079   1.08862   1.09012
 Alpha virt. eigenvalues --    1.09959   1.10864   1.13169   1.18133   1.21801
 Alpha virt. eigenvalues --    1.22998   1.27645   1.29219   1.32418   1.33439
 Alpha virt. eigenvalues --    1.33768   1.36605   1.37086   1.37709   1.38074
 Alpha virt. eigenvalues --    1.41203   1.42737   1.44752   1.49074   1.52834
 Alpha virt. eigenvalues --    1.56905   1.62574   1.64677   1.65214   1.69387
 Alpha virt. eigenvalues --    1.70292   1.71403   1.72565   1.77494   1.79629
 Alpha virt. eigenvalues --    1.82256   1.82866   1.85301   1.86005   1.89725
 Alpha virt. eigenvalues --    1.95174   1.96627   1.98988   1.99404   1.99869
 Alpha virt. eigenvalues --    1.99971   2.02316   2.03383   2.03848   2.06429
 Alpha virt. eigenvalues --    2.07146   2.08749   2.10615   2.10810   2.12037
 Alpha virt. eigenvalues --    2.17632   2.18106   2.18732   2.25264   2.28412
 Alpha virt. eigenvalues --    2.32720   2.33881   2.38337   2.42060   2.44072
 Alpha virt. eigenvalues --    2.45732   2.48568   2.50193   2.56566   2.60348
 Alpha virt. eigenvalues --    2.62224   2.62811   2.65012   2.67678   2.72627
 Alpha virt. eigenvalues --    2.76253   2.77849   2.81525   2.83014   2.84643
 Alpha virt. eigenvalues --    2.87717   2.92874   3.02933   3.03583   3.03927
 Alpha virt. eigenvalues --    3.11669   3.17249   3.17815   3.21145   3.37392
 Alpha virt. eigenvalues --    3.40735   3.44230   3.64557   4.06279   4.06664
 Alpha virt. eigenvalues --    4.16616   4.17963   4.25531   4.34948   4.35042
 Alpha virt. eigenvalues --    4.43656   4.53328   4.65351   4.80840   5.67956
          Condensed to atoms (all electrons):
               1          2          3          4          5          6
     1  Cl  16.846194   0.265763  -0.070411   0.004481  -0.000072   0.000000
     2  C    0.265763   4.917416   0.411559  -0.039220   0.003583  -0.000013
     3  N   -0.070411   0.411559   6.896852   0.388305  -0.038723   0.001347
     4  C    0.004481  -0.039220   0.388305   5.057283   0.288758  -0.051822
     5  C   -0.000072   0.003583  -0.038723   0.288758   4.082796   0.301492
     6  F    0.000000  -0.000013   0.001347  -0.051822   0.301492   9.074711
     7  F    0.000002   0.000130  -0.000184  -0.045664   0.295346  -0.039499
     8  F    0.000002   0.000141  -0.000122  -0.045642   0.295081  -0.039487
     9  C    0.000513  -0.048665  -0.054130   0.415685  -0.048401   0.006791
    10  C    0.003953  -0.018024  -0.037839  -0.013842   0.003113   0.000864
    11  C   -0.000167   0.007085   0.000165   0.006437  -0.000117  -0.000001
    12  C   -0.082193   0.449455  -0.034099  -0.042716   0.000223  -0.000012
    13  H    0.000016  -0.000004   0.004676  -0.040220  -0.002543   0.006887
    14  H   -0.000008   0.000177   0.000009  -0.000187   0.000001  -0.000000
    15  H    0.000004  -0.000190   0.000015  -0.000164   0.000002  -0.000000
    16  H    0.000003  -0.000211   0.000011   0.000204   0.000001  -0.000000
    17  H    0.000734  -0.041320   0.004848   0.000068   0.000010  -0.000000
               7          8          9         10         11         12
     1  Cl   0.000002   0.000002   0.000513   0.003953  -0.000167  -0.082193
     2  C    0.000130   0.000141  -0.048665  -0.018024   0.007085   0.449455
     3  N   -0.000184  -0.000122  -0.054130  -0.037839   0.000165  -0.034099
     4  C   -0.045664  -0.045642   0.415685  -0.013842   0.006437  -0.042716
     5  C    0.295346   0.295081  -0.048401   0.003113  -0.000117   0.000223
     6  F   -0.039499  -0.039487   0.006791   0.000864  -0.000001  -0.000012
     7  F    9.074611  -0.038822   0.002255  -0.000029   0.000000  -0.000009
     8  F   -0.038822   9.074786   0.002192  -0.000032   0.000000  -0.000010
     9  C    0.002255   0.002192   5.083491   0.481168  -0.058994  -0.025527
    10  C   -0.000029  -0.000032   0.481168   4.725641   0.361506   0.515511
    11  C    0.000000   0.000000  -0.058994   0.361506   5.010926  -0.059703
    12  C   -0.000009  -0.000010  -0.025527   0.515511  -0.059703   5.001373
    13  H    0.000132   0.000134   0.363433  -0.040253  -0.008259   0.006795
    14  H   -0.000000  -0.000000   0.003132  -0.028597   0.377989  -0.003445
    15  H   -0.000000  -0.000000  -0.001674  -0.025411   0.375342  -0.001293
    16  H    0.000000  -0.000000  -0.003768  -0.028842   0.378722   0.002766
    17  H   -0.000000  -0.000000   0.006592  -0.040986  -0.009094   0.367153
              13         14         15         16         17
     1  Cl   0.000016  -0.000008   0.000004   0.000003   0.000734
     2  C   -0.000004   0.000177  -0.000190  -0.000211  -0.041320
     3  N    0.004676   0.000009   0.000015   0.000011   0.004848
     4  C   -0.040220  -0.000187  -0.000164   0.000204   0.000068
     5  C   -0.002543   0.000001   0.000002   0.000001   0.000010
     6  F    0.006887  -0.000000  -0.000000  -0.000000  -0.000000
     7  F    0.000132  -0.000000  -0.000000   0.000000  -0.000000
     8  F    0.000134  -0.000000  -0.000000  -0.000000  -0.000000
     9  C    0.363433   0.003132  -0.001674  -0.003768   0.006592
    10  C   -0.040253  -0.028597  -0.025411  -0.028842  -0.040986
    11  C   -0.008259   0.377989   0.375342   0.378722  -0.009094
    12  C    0.006795  -0.003445  -0.001293   0.002766   0.367153
    13  H    0.593020   0.000044   0.000652   0.003951  -0.000085
    14  H    0.000044   0.574936  -0.026552  -0.029677   0.004469
    15  H    0.000652  -0.026552   0.561282  -0.027086   0.000527
    16  H    0.003951  -0.029677  -0.027086   0.573618   0.000066
    17  H   -0.000085   0.004469   0.000527   0.000066   0.594233
 Mulliken charges:
               1
     1  Cl   0.031188
     2  C    0.092337
     3  N   -0.472279
     4  C    0.118254
     5  C    0.819449
     6  F   -0.261257
     7  F   -0.248270
     8  F   -0.248220
     9  C   -0.124094
    10  C    0.142097
    11  C   -0.381838
    12  C   -0.094272
    13  H    0.111624
    14  H    0.127709
    15  H    0.144546
    16  H    0.130242
    17  H    0.112786
 Sum of Mulliken charges =  -0.00000
 Mulliken charges with hydrogens summed into heavy atoms:
               1
     1  Cl   0.031188
     2  C    0.092337
     3  N   -0.472279
     4  C    0.118254
     5  C    0.819449
     6  F   -0.261257
     7  F   -0.248270
     8  F   -0.248220
     9  C   -0.012470
    10  C    0.142097
    11  C    0.020658
    12  C    0.018514
 Electronic spatial extent (au):  <R**2>=           2576.4457
 Charge=             -0.0000 electrons
 Dipole moment (field-independent basis, Debye):
    X=             -1.8707    Y=              4.2366    Z=              0.0339  Tot=              4.6314
 Quadrupole moment (field-independent basis, Debye-Ang):
   XX=            -72.5447   YY=            -68.9936   ZZ=            -73.6932
   XY=             -2.6918   XZ=             -0.0305   YZ=              0.0762
 Traceless Quadrupole moment (field-independent basis, Debye-Ang):
   XX=             -0.8009   YY=              2.7503   ZZ=             -1.9494
   XY=             -2.6918   XZ=             -0.0305   YZ=              0.0762
 Octapole moment (field-independent basis, Debye-Ang**2):
  XXX=             28.2318  YYY=              5.7039  ZZZ=              0.5632  XYY=              7.8135
  XXY=              2.9316  XXZ=             -0.4704  XZZ=             15.3060  YZZ=             -4.6262
  YYZ=              0.1469  XYZ=             -0.2275
 Hexadecapole moment (field-independent basis, Debye-Ang**3):
 XXXX=          -1743.0440 YYYY=          -1069.3153 ZZZZ=           -138.3277 XXXY=            -17.5949
 XXXZ=              2.4564 YYYX=             -8.4936 YYYZ=              0.0715 ZZZX=             -1.0397
 ZZZY=              2.2545 XXYY=           -459.5510 XXZZ=           -322.8713 YYZZ=           -209.8302
 XXYZ=             -1.2303 YYXZ=             -1.2443 ZZXY=             -0.5020
 N-N= 7.942315337761D+02 E-N=-4.148049831104D+03  KE= 1.077742906287D+03
 Calling FoFJK, ICntrl=      2127 FMM=F ISym2X=0 I1Cent= 0 IOpClX= 0 NMat=1 NMatS=1 NMatT=0.
 ***** Axes restored to original set *****
 -------------------------------------------------------------------
 Center     Atomic                   Forces (Hartrees/Bohr)
 Number     Number              X              Y              Z
 -------------------------------------------------------------------
      1       17          -0.002989966    0.009202888   -0.001798200
      2        6          -0.027492515   -0.037298861    0.005817100
      3        7           0.012065385   -0.001690363    0.000438286
      4        6           0.019691865    0.017733178   -0.001463578
      5        6           0.020447764    0.014743963   -0.001726711
      6        9           0.001686018   -0.012295192    0.002167831
      7        9          -0.007790973    0.003883498    0.005860212
      8        9          -0.007279071    0.001603203   -0.007486703
      9        6          -0.011603537    0.006394527   -0.000645276
     10        6           0.007564567   -0.002373946   -0.002530472
     11        6          -0.005214959    0.003396149   -0.005346436
     12        6          -0.003013858   -0.001321791    0.000938800
     13        1          -0.000931750   -0.001826002   -0.000075154
     14        1           0.001626593    0.002673212    0.001713519
     15        1           0.001696470   -0.000815517    0.002666809
     16        1          -0.001725979   -0.002414405    0.001754734
     17        1           0.003263948    0.000405459   -0.000284760
 -------------------------------------------------------------------
 Cartesian Forces:  Max     0.037298861 RMS     0.009418673

 GradGradGradGradGradGradGradGradGradGradGradGradGradGradGradGradGradGrad
 Berny optimization.
 FormGI is forming the generalized inverse of G from B-inverse, IUseBI=4.
 Internal  Forces:  Max     0.033374333 RMS     0.006669404
 Search for a local minimum.
 Step number   1 out of a maximum of   87
 All quantities printed in internal units (Hartrees-Bohrs-Radians)
 Mixed Optimization -- RFO/linear search
 Second derivative matrix not updated -- first step.
 ITU=  0
     Eigenvalues ---    0.00340   0.00549   0.01307   0.01490   0.02086
     Eigenvalues ---    0.02101   0.02131   0.02135   0.02182   0.02205
     Eigenvalues ---    0.07089   0.07178   0.10802   0.11037   0.16000
     Eigenvalues ---    0.16000   0.16000   0.16000   0.16000   0.23488
     Eigenvalues ---    0.23523   0.24996   0.25000   0.25000   0.25000
     Eigenvalues ---    0.25000   0.25000   0.25000   0.29222   0.30714
     Eigenvalues ---    0.33073   0.34733   0.34737   0.34781   0.35889
     Eigenvalues ---    0.36031   0.42068   0.43815   0.45666   0.46166
     Eigenvalues ---    0.51189   0.52619   0.58237   0.58561   0.58565
 RFO step:  Lambda=-8.43072643D-03 EMin= 3.40086829D-03
 Linear search not attempted -- first point.
 Iteration  1 RMS(Cart)=  0.03245142 RMS(Int)=  0.00033639
 Iteration  2 RMS(Cart)=  0.00046139 RMS(Int)=  0.00009189
 Iteration  3 RMS(Cart)=  0.00000012 RMS(Int)=  0.00009189
 Variable       Old X    -DE/DX   Delta X   Delta X   Delta X     New X
                                 (Linear)    (Quad)   (Total)
    R1        3.25923   0.00909   0.00000   0.02679   0.02679   3.28603
    R2        2.56423  -0.03337   0.00000  -0.06336  -0.06339   2.50083
    R3        2.63731   0.00149   0.00000   0.00346   0.00344   2.64076
    R4        2.57392  -0.02696   0.00000  -0.05292  -0.05293   2.52099
    R5        2.89543  -0.00947   0.00000  -0.03151  -0.03151   2.86391
    R6        2.65001  -0.01050   0.00000  -0.02325  -0.02323   2.62677
    R7        2.52364   0.01246   0.00000   0.02110   0.02110   2.54473
    R8        2.52098   0.01007   0.00000   0.01696   0.01696   2.53794
    R9        2.52094   0.01012   0.00000   0.01704   0.01704   2.53798
   R10        2.64130  -0.00231   0.00000  -0.00255  -0.00252   2.63878
   R11        2.04255   0.00188   0.00000   0.00512   0.00512   2.04767
   R12        2.86562  -0.00446   0.00000  -0.01413  -0.01413   2.85149
   R13        2.64075  -0.00560   0.00000  -0.00920  -0.00918   2.63157
   R14        2.06110   0.00150   0.00000   0.00421   0.00421   2.06531
   R15        2.06032   0.00304   0.00000   0.00853   0.00853   2.06886
   R16        2.06105   0.00178   0.00000   0.00502   0.00502   2.06606
   R17        2.04033   0.00311   0.00000   0.00844   0.00844   2.04877
    A1        2.07022  -0.01151   0.00000  -0.04316  -0.04315   2.02706
    A2        2.07794   0.00081   0.00000   0.00452   0.00453   2.08246
    A3        2.13503   0.01070   0.00000   0.03864   0.03861   2.17365
    A4        2.07060  -0.00774   0.00000  -0.04273  -0.04277   2.02784
    A5        2.02355  -0.00891   0.00000  -0.03204  -0.03206   1.99150
    A6        2.12843   0.01302   0.00000   0.04556   0.04558   2.17401
    A7        2.13120  -0.00412   0.00000  -0.01352  -0.01353   2.11767
    A8        1.94954  -0.00474   0.00000  -0.01895  -0.01887   1.93067
    A9        1.92246   0.00444   0.00000   0.01743   0.01738   1.93984
   A10        1.92243   0.00464   0.00000   0.01830   0.01826   1.94069
   A11        1.88451  -0.00010   0.00000  -0.00110  -0.00102   1.88349
   A12        1.88459  -0.00014   0.00000  -0.00103  -0.00095   1.88364
   A13        1.89898  -0.00432   0.00000  -0.01553  -0.01570   1.88328
   A14        2.07611  -0.00270   0.00000  -0.00654  -0.00648   2.06963
   A15        2.10540   0.00058   0.00000  -0.00127  -0.00131   2.10409
   A16        2.10168   0.00212   0.00000   0.00782   0.00779   2.10946
   A17        2.10156   0.00527   0.00000   0.01529   0.01512   2.11668
   A18        2.07860  -0.00985   0.00000  -0.02746  -0.02752   2.05108
   A19        2.10288   0.00459   0.00000   0.01266   0.01249   2.11537
   A20        1.94097  -0.00057   0.00000  -0.00095  -0.00100   1.93996
   A21        1.93047   0.00098   0.00000   0.00005   0.00003   1.93050
   A22        1.93460  -0.00033   0.00000   0.00140   0.00136   1.93596
   A23        1.90096  -0.00144   0.00000  -0.01477  -0.01479   1.88617
   A24        1.85945   0.00262   0.00000   0.02671   0.02665   1.88609
   A25        1.89536  -0.00127   0.00000  -0.01219  -0.01220   1.88317
   A26        2.07757  -0.00343   0.00000  -0.00742  -0.00741   2.07016
   A27        2.09088   0.00278   0.00000   0.01000   0.00999   2.10087
   A28        2.11474   0.00066   0.00000  -0.00257  -0.00258   2.11216
    D1        3.13960  -0.00003   0.00000   0.00021   0.00022   3.13981
    D2       -0.00116   0.00014   0.00000   0.00536   0.00532   0.00415
    D3        3.13942   0.00011   0.00000   0.00475   0.00475  -3.13901
    D4       -0.00038   0.00009   0.00000   0.00335   0.00335   0.00297
    D5       -0.00301  -0.00006   0.00000  -0.00045  -0.00052  -0.00353
    D6        3.14038  -0.00009   0.00000  -0.00185  -0.00193   3.13846
    D7       -3.13972  -0.00002   0.00000  -0.00134  -0.00127  -3.14099
    D8        0.00120  -0.00010   0.00000  -0.00453  -0.00450  -0.00330
    D9        3.14106  -0.00001   0.00000  -0.00152  -0.00149   3.13957
   D10       -1.04796  -0.00026   0.00000  -0.00358  -0.00365  -1.05160
   D11        1.04682   0.00015   0.00000  -0.00013   0.00001   1.04683
   D12        0.00014   0.00006   0.00000   0.00164   0.00161   0.00175
   D13        2.09431  -0.00018   0.00000  -0.00042  -0.00055   2.09375
   D14       -2.09410   0.00023   0.00000   0.00303   0.00310  -2.09100
   D15        0.00293  -0.00000   0.00000  -0.00116  -0.00108   0.00185
   D16       -3.14048   0.00004   0.00000   0.00078   0.00082  -3.13966
   D17       -3.13938  -0.00009   0.00000  -0.00455  -0.00454   3.13927
   D18        0.00040  -0.00005   0.00000  -0.00260  -0.00264  -0.00224
   D19       -3.13023  -0.00063   0.00000  -0.02403  -0.02391   3.12904
   D20       -0.00702   0.00013   0.00000   0.00618   0.00602  -0.00100
   D21        0.01317  -0.00068   0.00000  -0.02596  -0.02582  -0.01264
   D22        3.13638   0.00009   0.00000   0.00425   0.00412   3.14050
   D23        2.64325   0.00176   0.00000   0.03543   0.03565   2.67891
   D24       -1.52526   0.00022   0.00000   0.01611   0.01633  -1.50894
   D25        0.57809  -0.00094   0.00000   0.00175   0.00193   0.58002
   D26       -0.47970   0.00114   0.00000   0.00522   0.00503  -0.47467
   D27        1.63497  -0.00040   0.00000  -0.01409  -0.01429   1.62068
   D28       -2.54486  -0.00156   0.00000  -0.02846  -0.02869  -2.57356
   D29        0.00707  -0.00010   0.00000  -0.00543  -0.00531   0.00176
   D30       -3.13635  -0.00008   0.00000  -0.00400  -0.00388  -3.14023
   D31        3.13026   0.00067   0.00000   0.02483   0.02463  -3.12829
   D32       -0.01315   0.00069   0.00000   0.02626   0.02606   0.01291
         Item               Value     Threshold  Converged?
 Maximum Force            0.033374     0.000450     NO 
 RMS     Force            0.006669     0.000300     NO 
 Maximum Displacement     0.143104     0.001800     NO 
 RMS     Displacement     0.032556     0.001200     NO 
 Predicted change in Energy=-4.334097D-03
 GradGradGradGradGradGradGradGradGradGradGradGradGradGradGradGradGradGrad

                          Input orientation:                          
 ---------------------------------------------------------------------
 Center     Atomic      Atomic             Coordinates (Angstroms)
 Number     Number       Type             X           Y           Z
 ---------------------------------------------------------------------
      1         17           0        0.137273    3.629538   -0.602228
      2          6           0        0.035106    1.917009   -0.318423
      3          7           0       -1.184096    1.403552   -0.283013
      4          6           0       -1.263417    0.089427   -0.067433
      5          6           0       -2.679968   -0.448387   -0.036922
      6          9           0       -2.678140   -1.777104    0.181892
      7          9           0       -3.396915    0.130258    0.940244
      8          9           0       -3.310424   -0.222047   -1.200990
      9          6           0       -0.168412   -0.747558    0.113109
     10          6           0        1.111703   -0.191296    0.071198
     11          6           0        2.342039   -1.040685    0.275467
     12          6           0        1.210488    1.179682   -0.152192
     13          1           0       -0.308127   -1.808658    0.282494
     14          1           0        3.209893   -0.604742   -0.225782
     15          1           0        2.575361   -1.131000    1.341287
     16          1           0        2.191472   -2.047978   -0.122055
     17          1           0        2.176264    1.670288   -0.196853
 ---------------------------------------------------------------------
                    Distance matrix (angstroms):
                    1          2          3          4          5
     1  Cl   0.000000
     2  C    1.738890   0.000000
     3  N    2.608242   1.323385   0.000000
     4  C    3.844518   2.255928   1.334051   0.000000
     5  C    4.988576   3.611921   2.393298   1.515517   0.000000
     6  F    6.145988   4.610693   3.544697   2.355322   1.346615
     7  F    5.207174   4.068844   2.830937   2.359850   1.343018
     8  F    5.203828   4.067807   2.829580   2.360552   1.343041
     9  C    4.445684   2.706945   2.411597   1.390027   2.533758
    10  C    4.000223   2.399127   2.817747   2.395666   3.801914
    11  C    5.238542   3.797709   4.326642   3.793949   5.066454
    12  C    2.712216   1.397428   2.408582   2.704819   4.218951
    13  H    5.527666   3.789394   3.377191   2.153545   2.752815
    14  H    5.245172   4.055500   4.831528   4.529618   5.894962
    15  H    5.690715   4.300916   4.816204   4.267335   5.475756
    16  H    6.056772   4.517698   4.830469   4.062972   5.128047
    17  H    2.856654   2.158751   3.372032   3.787780   5.300694
                    6          7          8          9         10
     6  F    0.000000
     7  F    2.174803   0.000000
     8  F    2.174936   2.171746   0.000000
     9  C    2.713564   3.446439   3.446050   0.000000
    10  C    4.109738   4.602854   4.601588   1.396380   0.000000
    11  C    5.074768   5.894797   5.899189   2.532715   1.508945
    12  C    4.896491   4.850038   4.848037   2.384534   1.392566
    13  H    2.372356   3.705757   3.705650   1.083580   2.162505
    14  H    6.017437   6.749055   6.603939   3.398262   2.159059
    15  H    5.418571   6.117163   6.475479   3.030468   2.153709
    16  H    4.886601   6.091244   5.896523   2.704708   2.156506
    17  H    5.966004   5.892793   5.890074   3.382242   2.161166
                   11         12         13         14         15
    11  C    0.000000
    12  C    2.528503   0.000000
    13  H    2.759206   3.380136   0.000000
    14  H    1.092916   2.680896   3.752895   0.000000
    15  H    1.094791   3.071255   3.145595   1.770673   0.000000
    16  H    1.093313   3.373578   2.543409   1.769426   1.769064
    17  H    2.756799   1.084165   4.301749   2.498997   3.220616
                   16         17
    16  H    0.000000
    17  H    3.719050   0.000000
 Stoichiometry    C7H5ClF3N
 Framework group  C1[X(C7H5ClF3N)]
 Deg. of freedom    45
 Full point group                 C1      NOp   1
 Largest Abelian subgroup         C1      NOp   1
 Largest concise Abelian subgroup C1      NOp   1
                         Standard orientation:                         
 ---------------------------------------------------------------------
 Center     Atomic      Atomic             Coordinates (Angstroms)
 Number     Number       Type             X           Y           Z
 ---------------------------------------------------------------------
      1         17           0       -2.580719   -1.952275    0.000432
      2          6           0       -1.470790   -0.613697    0.001762
      3          7           0       -0.184093   -0.923146    0.001922
      4          6           0        0.668221    0.103134    0.000812
      5          6           0        2.127875   -0.304542    0.000215
      6          9           0        2.923650    0.781782   -0.003442
      7          9           0        2.427915   -1.032810    1.088010
      8          9           0        2.426351   -1.039215   -1.083726
      9          6           0        0.291402    1.441102   -0.004244
     10          6           0       -1.069994    1.751702   -0.006245
     11          6           0       -1.546939    3.183248    0.004487
     12          6           0       -1.971994    0.690743   -0.004249
     13          1           0        1.040239    2.224290   -0.006657
     14          1           0       -2.535371    3.273054   -0.453118
     15          1           0       -1.612163    3.560024    1.030330
     16          1           0       -0.858009    3.828450   -0.547260
     17          1           0       -3.041745    0.866922   -0.006908
 ---------------------------------------------------------------------
 Rotational constants (GHZ):           1.0521645           0.5860212           0.4043200
 Standard basis: 6-31G(d,p) (6D, 7F)
 There are   209 symmetry adapted cartesian basis functions of A   symmetry.
 There are   209 symmetry adapted basis functions of A   symmetry.
   209 basis functions,   395 primitive gaussians,   209 cartesian basis functions
    49 alpha electrons       49 beta electrons
       nuclear repulsion energy       798.9818458084 Hartrees.
 NAtoms=   17 NActive=   17 NUniq=   17 SFac= 1.00D+00 NAtFMM=   60 NAOKFM=F Big=F
 Integral buffers will be    131072 words long.
 Raffenetti 2 integral format.
 Two-electron integral symmetry is turned on.
 Nuclear repulsion after empirical dispersion term =      798.9495175057 Hartrees.
 One-electron integrals computed using PRISM.
 NBasis=   209 RedAO= T EigKep=  7.32D-04  NBF=   209
 NBsUse=   209 1.00D-06 EigRej= -1.00D+00 NBFU=   209
 Initial guess from the checkpoint file:  "pyrd5_conf-1.chk"
 B after Tr=     0.000000    0.000000    0.000000
         Rot=    0.999978    0.000251    0.000018   -0.006689 Ang=   0.77 deg.
 ExpMin= 1.43D-01 ExpMax= 2.52D+04 ExpMxC= 3.78D+03 IAcc=3 IRadAn=         5 AccDes= 0.00D+00
 Harris functional with IExCor=  402 and IRadAn=       5 diagonalized for initial guess.
 HarFok:  IExCor=  402 AccDes= 0.00D+00 IRadAn=         5 IDoV= 1 UseB2=F ITyADJ=14
 ICtDFT=  3500011 ScaDFX=  1.000000  1.000000  1.000000  1.000000
 FoFCou: FMM=F IPFlag=           0 FMFlag=      100000 FMFlg1=           0
         NFxFlg=           0 DoJE=T BraDBF=F KetDBF=T FulRan=T
         wScrn=  0.000000 ICntrl=       500 IOpCl=  0 I1Cent=   200000004 NGrid=           0
         NMat0=    1 NMatS0=      1 NMatT0=    0 NMatD0=    1 NMtDS0=    0 NMtDT0=    0
 Petite list used in FoFCou.
 Requested convergence on RMS density matrix=1.00D-08 within 128 cycles.
 Requested convergence on MAX density matrix=1.00D-06.
 Requested convergence on             energy=1.00D-06.
 No special actions if energy rises.
 Integral accuracy reduced to 1.0D-05 until final iterations.
 Initial convergence to 1.0D-05 achieved.  Increase integral accuracy.
 SCF Done:  E(RB3LYP) =  -1084.27664068     A.U. after   12 cycles
            NFock= 12  Conv=0.75D-08     -V/T= 2.0059
 Calling FoFJK, ICntrl=      2127 FMM=F ISym2X=0 I1Cent= 0 IOpClX= 0 NMat=1 NMatS=1 NMatT=0.
 ***** Axes restored to original set *****
 -------------------------------------------------------------------
 Center     Atomic                   Forces (Hartrees/Bohr)
 Number     Number              X              Y              Z
 -------------------------------------------------------------------
      1       17           0.001911217    0.007253078   -0.001074875
      2        6          -0.003770350   -0.006354628    0.000711690
      3        7           0.004937421    0.002764495   -0.000092989
      4        6          -0.002195592   -0.003596344    0.000478113
      5        6           0.004912935    0.002470161   -0.000224010
      6        9          -0.002147769   -0.005332693    0.000782177
      7        9          -0.001695514    0.000465028    0.001147837
      8        9          -0.001520476    0.000022956   -0.001295475
      9        6          -0.003946407   -0.001675718    0.000413218
     10        6           0.004519514   -0.000774998    0.000203411
     11        6          -0.001675260    0.000998622   -0.002457126
     12        6           0.001504380    0.002747245   -0.000148296
     13        1          -0.000598758    0.000680939   -0.000342435
     14        1           0.000197852    0.000324372    0.000876366
     15        1           0.000218077   -0.000159596    0.000466935
     16        1          -0.000136019   -0.000154130    0.000836475
     17        1          -0.000515249    0.000321210   -0.000281018
 -------------------------------------------------------------------
 Cartesian Forces:  Max     0.007253078 RMS     0.002415262

 GradGradGradGradGradGradGradGradGradGradGradGradGradGradGradGradGradGrad
 Berny optimization.
 Using GEDIIS/GDIIS optimizer.
 FormGI is forming the generalized inverse of G from B-inverse, IUseBI=4.
 Internal  Forces:  Max     0.007430848 RMS     0.001632511
 Search for a local minimum.
 Step number   2 out of a maximum of   87
 All quantities printed in internal units (Hartrees-Bohrs-Radians)
 Mixed Optimization -- RFO/linear search
 Update second derivatives using D2CorX and points    1    2
 DE= -4.20D-03 DEPred=-4.33D-03 R= 9.70D-01
 TightC=F SS=  1.41D+00  RLast= 1.68D-01 DXNew= 5.0454D-01 5.0368D-01
 Trust test= 9.70D-01 RLast= 1.68D-01 DXMaxT set to 5.04D-01
 ITU=  1  0
 Use linear search instead of GDIIS.
     Eigenvalues ---    0.00340   0.00549   0.01338   0.01479   0.02085
     Eigenvalues ---    0.02101   0.02130   0.02135   0.02182   0.02204
     Eigenvalues ---    0.07017   0.07164   0.10774   0.10873   0.15942
     Eigenvalues ---    0.16000   0.16000   0.16000   0.16035   0.23427
     Eigenvalues ---    0.23528   0.24064   0.24998   0.25000   0.25000
     Eigenvalues ---    0.25000   0.25000   0.27526   0.29281   0.30569
     Eigenvalues ---    0.32133   0.34735   0.34753   0.34785   0.35915
     Eigenvalues ---    0.36082   0.41997   0.42810   0.45426   0.46157
     Eigenvalues ---    0.51406   0.55217   0.58140   0.58563   0.59486
 RFO step:  Lambda=-5.78036154D-04 EMin= 3.40087379D-03
 Quartic linear search produced a step of -0.02472.
 Iteration  1 RMS(Cart)=  0.00979406 RMS(Int)=  0.00005179
 Iteration  2 RMS(Cart)=  0.00005499 RMS(Int)=  0.00001160
 Iteration  3 RMS(Cart)=  0.00000000 RMS(Int)=  0.00001160
 Variable       Old X    -DE/DX   Delta X   Delta X   Delta X     New X
                                 (Linear)    (Quad)   (Total)
    R1        3.28603   0.00743  -0.00066   0.02438   0.02372   3.30974
    R2        2.50083  -0.00101   0.00157  -0.00795  -0.00639   2.49445
    R3        2.64076  -0.00040  -0.00009  -0.00077  -0.00085   2.63990
    R4        2.52099   0.00467   0.00131   0.00372   0.00503   2.52602
    R5        2.86391   0.00127   0.00078   0.00128   0.00206   2.86597
    R6        2.62677  -0.00132   0.00057  -0.00478  -0.00420   2.62257
    R7        2.54473   0.00539  -0.00052   0.01097   0.01044   2.55518
    R8        2.53794   0.00194  -0.00042   0.00480   0.00438   2.54232
    R9        2.53798   0.00184  -0.00042   0.00464   0.00422   2.54220
   R10        2.63878   0.00475   0.00006   0.01008   0.01015   2.64892
   R11        2.04767  -0.00064  -0.00013  -0.00127  -0.00139   2.04628
   R12        2.85149  -0.00174   0.00035  -0.00685  -0.00650   2.84499
   R13        2.63157   0.00236   0.00023   0.00415   0.00438   2.63595
   R14        2.06531  -0.00012  -0.00010   0.00007  -0.00003   2.06528
   R15        2.06886   0.00051  -0.00021   0.00224   0.00203   2.07088
   R16        2.06606  -0.00014  -0.00012   0.00007  -0.00006   2.06601
   R17        2.04877  -0.00030  -0.00021  -0.00003  -0.00024   2.04854
    A1        2.02706   0.00265   0.00107   0.00665   0.00771   2.03478
    A2        2.08246  -0.00221  -0.00011  -0.00779  -0.00790   2.07456
    A3        2.17365  -0.00044  -0.00095   0.00116   0.00020   2.17385
    A4        2.02784   0.00271   0.00106   0.00584   0.00690   2.03473
    A5        1.99150   0.00228   0.00079   0.00562   0.00641   1.99791
    A6        2.17401  -0.00218  -0.00113  -0.00376  -0.00488   2.16913
    A7        2.11767  -0.00009   0.00033  -0.00186  -0.00153   2.11614
    A8        1.93067   0.00357   0.00047   0.01340   0.01383   1.94450
    A9        1.93984   0.00049  -0.00043   0.00294   0.00249   1.94233
   A10        1.94069   0.00043  -0.00045   0.00272   0.00225   1.94294
   A11        1.88349  -0.00182   0.00003  -0.00589  -0.00590   1.87760
   A12        1.88364  -0.00182   0.00002  -0.00603  -0.00604   1.87760
   A13        1.88328  -0.00110   0.00039  -0.00814  -0.00775   1.87553
   A14        2.06963  -0.00023   0.00016  -0.00053  -0.00037   2.06927
   A15        2.10409  -0.00060   0.00003  -0.00450  -0.00447   2.09963
   A16        2.10946   0.00083  -0.00019   0.00503   0.00483   2.11429
   A17        2.11668  -0.00024  -0.00037   0.00013  -0.00025   2.11642
   A18        2.05108   0.00057   0.00068   0.00018   0.00085   2.05193
   A19        2.11537  -0.00032  -0.00031  -0.00043  -0.00075   2.11462
   A20        1.93996   0.00030   0.00002   0.00293   0.00293   1.94289
   A21        1.93050  -0.00016  -0.00000  -0.00344  -0.00345   1.92705
   A22        1.93596   0.00031  -0.00003   0.00330   0.00325   1.93921
   A23        1.88617  -0.00047   0.00037  -0.00671  -0.00635   1.87982
   A24        1.88609   0.00045  -0.00066   0.00996   0.00927   1.89536
   A25        1.88317  -0.00046   0.00030  -0.00627  -0.00597   1.87720
   A26        2.07016  -0.00042   0.00018  -0.00288  -0.00270   2.06746
   A27        2.10087  -0.00037  -0.00025  -0.00144  -0.00169   2.09917
   A28        2.11216   0.00078   0.00006   0.00432   0.00439   2.11655
    D1        3.13981   0.00001  -0.00001   0.00121   0.00122   3.14104
    D2        0.00415  -0.00008  -0.00013  -0.00291  -0.00304   0.00111
    D3       -3.13901  -0.00007  -0.00012  -0.00225  -0.00236  -3.14137
    D4        0.00297  -0.00011  -0.00008  -0.00416  -0.00424  -0.00127
    D5       -0.00353   0.00004   0.00001   0.00204   0.00205  -0.00148
    D6        3.13846   0.00000   0.00005   0.00012   0.00017   3.13863
    D7       -3.14099   0.00005   0.00003   0.00155   0.00158  -3.13941
    D8       -0.00330   0.00006   0.00011   0.00199   0.00210  -0.00120
    D9        3.13957  -0.00000   0.00004   0.00166   0.00169   3.14127
   D10       -1.05160   0.00040   0.00009   0.00506   0.00516  -1.04644
   D11        1.04683  -0.00037  -0.00000  -0.00144  -0.00146   1.04537
   D12        0.00175  -0.00001  -0.00004   0.00124   0.00120   0.00294
   D13        2.09375   0.00039   0.00001   0.00464   0.00467   2.09842
   D14       -2.09100  -0.00037  -0.00008  -0.00186  -0.00195  -2.09296
   D15        0.00185   0.00001   0.00003  -0.00023  -0.00020   0.00165
   D16       -3.13966   0.00003  -0.00002   0.00131   0.00128  -3.13837
   D17        3.13927   0.00002   0.00011   0.00026   0.00037   3.13964
   D18       -0.00224   0.00005   0.00007   0.00179   0.00186  -0.00038
   D19        3.12904  -0.00017   0.00059  -0.01169  -0.01110   3.11794
   D20       -0.00100  -0.00006  -0.00015  -0.00074  -0.00089  -0.00188
   D21       -0.01264  -0.00019   0.00064  -0.01323  -0.01260  -0.02524
   D22        3.14050  -0.00008  -0.00010  -0.00228  -0.00238   3.13812
   D23        2.67891   0.00059  -0.00088   0.02148   0.02061   2.69951
   D24       -1.50894   0.00009  -0.00040   0.01267   0.01226  -1.49667
   D25        0.58002  -0.00039  -0.00005   0.00472   0.00465   0.58467
   D26       -0.47467   0.00048  -0.00012   0.01014   0.01003  -0.46463
   D27        1.62068  -0.00002   0.00035   0.00133   0.00169   1.62237
   D28       -2.57356  -0.00050   0.00071  -0.00662  -0.00592  -2.57948
   D29        0.00176   0.00004   0.00013  -0.00008   0.00004   0.00180
   D30       -3.14023   0.00007   0.00010   0.00184   0.00194  -3.13829
   D31       -3.12829   0.00015  -0.00061   0.01085   0.01025  -3.11805
   D32        0.01291   0.00018  -0.00064   0.01278   0.01214   0.02505
         Item               Value     Threshold  Converged?
 Maximum Force            0.007431     0.000450     NO 
 RMS     Force            0.001633     0.000300     NO 
 Maximum Displacement     0.032044     0.001800     NO 
 RMS     Displacement     0.009794     0.001200     NO 
 Predicted change in Energy=-2.913175D-04
 GradGradGradGradGradGradGradGradGradGradGradGradGradGradGradGradGradGrad

                          Input orientation:                          
 ---------------------------------------------------------------------
 Center     Atomic      Atomic             Coordinates (Angstroms)
 Number     Number       Type             X           Y           Z
 ---------------------------------------------------------------------
      1         17           0        0.151074    3.642271   -0.598877
      2          6           0        0.038191    1.916865   -0.319997
      3          7           0       -1.177122    1.403241   -0.279792
      4          6           0       -1.263190    0.086288   -0.067599
      5          6           0       -2.680157   -0.453277   -0.033467
      6          9           0       -2.695096   -1.787750    0.183894
      7          9           0       -3.399856    0.125777    0.944622
      8          9           0       -3.319143   -0.223616   -1.194809
      9          6           0       -0.169870   -0.750436    0.107161
     10          6           0        1.115141   -0.192162    0.062705
     11          6           0        2.342291   -1.038176    0.274618
     12          6           0        1.214901    1.181422   -0.158694
     13          1           0       -0.314319   -1.810813    0.272347
     14          1           0        3.217161   -0.597684   -0.210144
     15          1           0        2.564080   -1.128752    1.343974
     16          1           0        2.197172   -2.047865   -0.118750
     17          1           0        2.178843    1.674969   -0.207392
 ---------------------------------------------------------------------
                    Distance matrix (angstroms):
                    1          2          3          4          5
     1  Cl   0.000000
     2  C    1.751440   0.000000
     3  N    2.622818   1.320005   0.000000
     4  C    3.863601   2.260157   1.336712   0.000000
     5  C    5.010895   3.617885   2.401343   1.516605   0.000000
     6  F    6.180497   4.631300   3.563941   2.371840   1.352142
     7  F    5.230413   4.077674   2.841065   2.364634   1.345337
     8  F    5.229017   4.076598   2.841157   2.365076   1.345274
     9  C    4.460647   2.709290   2.408862   1.387803   2.531722
    10  C    4.008739   2.398807   2.813731   2.398119   3.805485
    11  C    5.241280   3.794037   4.319046   3.792233   5.065768
    12  C    2.716849   1.396977   2.405337   2.710822   4.226038
    13  H    5.541818   3.790873   3.373341   2.148235   2.744743
    14  H    5.246830   4.054735   4.828901   4.534500   5.901731
    15  H    5.688579   4.292401   4.800438   4.256391   5.464031
    16  H    6.065862   4.518936   4.829278   4.065874   5.132087
    17  H    2.852259   2.157217   3.367726   3.793552   5.307500
                    6          7          8          9         10
     6  F    0.000000
     7  F    2.176460   0.000000
     8  F    2.176413   2.169276   0.000000
     9  C    2.731057   3.449913   3.448272   0.000000
    10  C    4.132614   4.611297   4.609252   1.401749   0.000000
    11  C    5.093659   5.897113   5.905468   2.534125   1.505505
    12  C    4.921527   4.860831   4.858521   2.391725   1.394883
    13  H    2.382532   3.704440   3.701447   1.082844   2.169640
    14  H    6.043701   6.755872   6.620632   3.405290   2.158098
    15  H    5.425772   6.107525   6.471245   3.024453   2.149018
    16  H    4.908517   6.097721   5.908935   2.708735   2.155772
    17  H    5.991562   5.903306   5.899785   3.390868   2.165777
                   11         12         13         14         15
    11  C    0.000000
    12  C    2.526931   0.000000
    13  H    2.766685   3.387887   0.000000
    14  H    1.092898   2.678975   3.765081   0.000000
    15  H    1.095863   3.068419   3.146231   1.767437   0.000000
    16  H    1.093284   3.375610   2.552790   1.775318   1.766056
    17  H    2.760472   1.084040   4.312387   2.498613   3.227383
                   16         17
    16  H    0.000000
    17  H    3.723934   0.000000
 Stoichiometry    C7H5ClF3N
 Framework group  C1[X(C7H5ClF3N)]
 Deg. of freedom    45
 Full point group                 C1      NOp   1
 Largest Abelian subgroup         C1      NOp   1
 Largest concise Abelian subgroup C1      NOp   1
                         Standard orientation:                         
 ---------------------------------------------------------------------
 Center     Atomic      Atomic             Coordinates (Angstroms)
 Number     Number       Type             X           Y           Z
 ---------------------------------------------------------------------
      1         17           0       -2.605955   -1.943826    0.002270
      2          6           0       -1.474874   -0.606595   -0.001143
      3          7           0       -0.192109   -0.917902    0.002557
      4          6           0        0.671095    0.102719   -0.000711
      5          6           0        2.130748   -0.308984    0.000757
      6          9           0        2.947557    0.768559   -0.003111
      7          9           0        2.430365   -1.042044    1.088315
      8          9           0        2.430995   -1.050290   -1.080945
      9          6           0        0.300345    1.440058   -0.008993
     10          6           0       -1.065116    1.756929   -0.012332
     11          6           0       -1.535369    3.186945    0.009172
     12          6           0       -1.973466    0.698350   -0.009400
     13          1           0        1.055342    2.216267   -0.014225
     14          1           0       -2.530852    3.284530   -0.431189
     15          1           0       -1.589080    3.556167    1.039564
     16          1           0       -0.846802    3.836128   -0.538282
     17          1           0       -3.043054    0.874691   -0.014782
 ---------------------------------------------------------------------
 Rotational constants (GHZ):           1.0529102           0.5808759           0.4019039
 Standard basis: 6-31G(d,p) (6D, 7F)
 There are   209 symmetry adapted cartesian basis functions of A   symmetry.
 There are   209 symmetry adapted basis functions of A   symmetry.
   209 basis functions,   395 primitive gaussians,   209 cartesian basis functions
    49 alpha electrons       49 beta electrons
       nuclear repulsion energy       797.3505007385 Hartrees.
 NAtoms=   17 NActive=   17 NUniq=   17 SFac= 1.00D+00 NAtFMM=   60 NAOKFM=F Big=F
 Integral buffers will be    131072 words long.
 Raffenetti 2 integral format.
 Two-electron integral symmetry is turned on.
 Nuclear repulsion after empirical dispersion term =      797.3182093598 Hartrees.
 One-electron integrals computed using PRISM.
 NBasis=   209 RedAO= T EigKep=  7.36D-04  NBF=   209
 NBsUse=   209 1.00D-06 EigRej= -1.00D+00 NBFU=   209
 Initial guess from the checkpoint file:  "pyrd5_conf-1.chk"
 B after Tr=    -0.000000    0.000000   -0.000000
         Rot=    0.999997    0.000017    0.000016    0.002356 Ang=   0.27 deg.
 ExpMin= 1.43D-01 ExpMax= 2.52D+04 ExpMxC= 3.78D+03 IAcc=3 IRadAn=         5 AccDes= 0.00D+00
 Harris functional with IExCor=  402 and IRadAn=       5 diagonalized for initial guess.
 HarFok:  IExCor=  402 AccDes= 0.00D+00 IRadAn=         5 IDoV= 1 UseB2=F ITyADJ=14
 ICtDFT=  3500011 ScaDFX=  1.000000  1.000000  1.000000  1.000000
 FoFCou: FMM=F IPFlag=           0 FMFlag=      100000 FMFlg1=           0
         NFxFlg=           0 DoJE=T BraDBF=F KetDBF=T FulRan=T
         wScrn=  0.000000 ICntrl=       500 IOpCl=  0 I1Cent=   200000004 NGrid=           0
         NMat0=    1 NMatS0=      1 NMatT0=    0 NMatD0=    1 NMtDS0=    0 NMtDT0=    0
 Petite list used in FoFCou.
 Requested convergence on RMS density matrix=1.00D-08 within 128 cycles.
 Requested convergence on MAX density matrix=1.00D-06.
 Requested convergence on             energy=1.00D-06.
 No special actions if energy rises.
 Integral accuracy reduced to 1.0D-05 until final iterations.
 Initial convergence to 1.0D-05 achieved.  Increase integral accuracy.
 SCF Done:  E(RB3LYP) =  -1084.27695682     A.U. after   11 cycles
            NFock= 11  Conv=0.68D-08     -V/T= 2.0060
 Calling FoFJK, ICntrl=      2127 FMM=F ISym2X=0 I1Cent= 0 IOpClX= 0 NMat=1 NMatS=1 NMatT=0.
 ***** Axes restored to original set *****
 -------------------------------------------------------------------
 Center     Atomic                   Forces (Hartrees/Bohr)
 Number     Number              X              Y              Z
 -------------------------------------------------------------------
      1       17           0.000659840    0.002064041   -0.000344226
      2        6          -0.002534930   -0.002779859    0.000457248
      3        7           0.001457073    0.002129967   -0.000271043
      4        6          -0.001669689   -0.002397267    0.000247936
      5        6          -0.001026040    0.000984112   -0.000173109
      6        9           0.000787051   -0.000395091    0.000098381
      7        9           0.000544916    0.000100676    0.000587039
      8        9           0.000596101   -0.000085770   -0.000557550
      9        6          -0.000251693   -0.000092139    0.000016068
     10        6           0.000752539    0.000650349    0.000374072
     11        6          -0.000307353    0.000069518   -0.000697213
     12        6           0.001080334   -0.000003455   -0.000104236
     13        1           0.000052737    0.000037885   -0.000057846
     14        1          -0.000036795   -0.000148702    0.000214103
     15        1          -0.000023554   -0.000077481    0.000115726
     16        1           0.000194108    0.000089345    0.000152813
     17        1          -0.000274644   -0.000146128   -0.000058161
 -------------------------------------------------------------------
 Cartesian Forces:  Max     0.002779859 RMS     0.000906389

 GradGradGradGradGradGradGradGradGradGradGradGradGradGradGradGradGradGrad
 Berny optimization.
 Using GEDIIS/GDIIS optimizer.
 FormGI is forming the generalized inverse of G from B-inverse, IUseBI=4.
 Internal  Forces:  Max     0.002130708 RMS     0.000499302
 Search for a local minimum.
 Step number   3 out of a maximum of   87
 All quantities printed in internal units (Hartrees-Bohrs-Radians)
 Mixed Optimization -- En-DIIS/RFO-DIIS
 Update second derivatives using D2CorX and points    1    2    3
 DE= -3.16D-04 DEPred=-2.91D-04 R= 1.09D+00
 TightC=F SS=  1.41D+00  RLast= 5.65D-02 DXNew= 8.4709D-01 1.6956D-01
 Trust test= 1.09D+00 RLast= 5.65D-02 DXMaxT set to 5.04D-01
 ITU=  1  1  0
 Use linear search instead of GDIIS.
     Eigenvalues ---    0.00340   0.00545   0.01335   0.01493   0.02082
     Eigenvalues ---    0.02100   0.02119   0.02135   0.02185   0.02202
     Eigenvalues ---    0.06769   0.07199   0.10689   0.11009   0.15829
     Eigenvalues ---    0.16000   0.16000   0.16019   0.16062   0.21022
     Eigenvalues ---    0.23487   0.23918   0.24993   0.25000   0.25000
     Eigenvalues ---    0.25000   0.26118   0.27028   0.28085   0.30894
     Eigenvalues ---    0.33111   0.34736   0.34755   0.34781   0.35946
     Eigenvalues ---    0.36062   0.41956   0.43548   0.45364   0.46483
     Eigenvalues ---    0.50417   0.55291   0.58288   0.58562   0.59432
 RFO step:  Lambda=-8.01385119D-05 EMin= 3.40041769D-03
 Quartic linear search produced a step of  0.10445.
 Iteration  1 RMS(Cart)=  0.00535691 RMS(Int)=  0.00002338
 Iteration  2 RMS(Cart)=  0.00002417 RMS(Int)=  0.00000394
 Iteration  3 RMS(Cart)=  0.00000000 RMS(Int)=  0.00000394
 Variable       Old X    -DE/DX   Delta X   Delta X   Delta X     New X
                                 (Linear)    (Quad)   (Total)
    R1        3.30974   0.00213   0.00248   0.00851   0.01099   3.32073
    R2        2.49445  -0.00112  -0.00067  -0.00358  -0.00425   2.49020
    R3        2.63990   0.00058  -0.00009   0.00129   0.00120   2.64110
    R4        2.52602   0.00171   0.00053   0.00307   0.00359   2.52961
    R5        2.86597  -0.00106   0.00021  -0.00443  -0.00421   2.86175
    R6        2.62257   0.00019  -0.00044   0.00006  -0.00038   2.62219
    R7        2.55518   0.00040   0.00109   0.00149   0.00258   2.55776
    R8        2.54232   0.00018   0.00046   0.00077   0.00123   2.54355
    R9        2.54220   0.00018   0.00044   0.00078   0.00122   2.54342
   R10        2.64892   0.00056   0.00106   0.00174   0.00280   2.65172
   R11        2.04628  -0.00005  -0.00015  -0.00014  -0.00029   2.04599
   R12        2.84499  -0.00013  -0.00068  -0.00096  -0.00164   2.84335
   R13        2.63595  -0.00039   0.00046  -0.00099  -0.00053   2.63542
   R14        2.06528  -0.00018  -0.00000  -0.00053  -0.00053   2.06475
   R15        2.07088   0.00011   0.00021   0.00058   0.00079   2.07167
   R16        2.06601  -0.00016  -0.00001  -0.00045  -0.00045   2.06556
   R17        2.04854  -0.00031  -0.00002  -0.00083  -0.00085   2.04769
    A1        2.03478   0.00060   0.00081   0.00243   0.00323   2.03801
    A2        2.07456  -0.00113  -0.00083  -0.00515  -0.00598   2.06858
    A3        2.17385   0.00054   0.00002   0.00272   0.00274   2.17659
    A4        2.03473  -0.00013   0.00072  -0.00084  -0.00012   2.03461
    A5        1.99791   0.00046   0.00067   0.00162   0.00229   2.00020
    A6        2.16913  -0.00050  -0.00051  -0.00137  -0.00188   2.16725
    A7        2.11614   0.00004  -0.00016  -0.00025  -0.00041   2.11573
    A8        1.94450  -0.00126   0.00144  -0.00668  -0.00524   1.93925
    A9        1.94233  -0.00060   0.00026  -0.00162  -0.00137   1.94096
   A10        1.94294  -0.00062   0.00024  -0.00173  -0.00150   1.94144
   A11        1.87760   0.00072  -0.00062   0.00166   0.00104   1.87863
   A12        1.87760   0.00072  -0.00063   0.00166   0.00102   1.87862
   A13        1.87553   0.00121  -0.00081   0.00738   0.00657   1.88210
   A14        2.06927   0.00019  -0.00004   0.00113   0.00109   2.07036
   A15        2.09963  -0.00005  -0.00047  -0.00051  -0.00098   2.09864
   A16        2.11429  -0.00014   0.00050  -0.00062  -0.00011   2.11418
   A17        2.11642  -0.00018  -0.00003  -0.00049  -0.00052   2.11591
   A18        2.05193  -0.00001   0.00009  -0.00055  -0.00046   2.05147
   A19        2.11462   0.00019  -0.00008   0.00110   0.00102   2.11564
   A20        1.94289   0.00021   0.00031   0.00184   0.00214   1.94503
   A21        1.92705  -0.00012  -0.00036  -0.00142  -0.00178   1.92527
   A22        1.93921   0.00026   0.00034   0.00215   0.00248   1.94170
   A23        1.87982  -0.00009  -0.00066  -0.00143  -0.00209   1.87773
   A24        1.89536  -0.00014   0.00097   0.00062   0.00158   1.89693
   A25        1.87720  -0.00015  -0.00062  -0.00197  -0.00259   1.87461
   A26        2.06746  -0.00009  -0.00028  -0.00110  -0.00138   2.06608
   A27        2.09917   0.00004  -0.00018   0.00048   0.00030   2.09947
   A28        2.11655   0.00005   0.00046   0.00062   0.00108   2.11762
    D1        3.14104  -0.00006   0.00013  -0.00323  -0.00311   3.13793
    D2        0.00111  -0.00001  -0.00032  -0.00050  -0.00082   0.00029
    D3       -3.14137   0.00002  -0.00025   0.00070   0.00045  -3.14092
    D4       -0.00127   0.00000  -0.00044  -0.00006  -0.00050  -0.00177
    D5       -0.00148  -0.00004   0.00021  -0.00208  -0.00187  -0.00335
    D6        3.13863  -0.00005   0.00002  -0.00284  -0.00282   3.13581
    D7       -3.13941   0.00002   0.00016   0.00094   0.00111  -3.13830
    D8       -0.00120   0.00003   0.00022   0.00154   0.00176   0.00056
    D9        3.14127   0.00001   0.00018   0.00189   0.00207  -3.13985
   D10       -1.04644  -0.00034   0.00054  -0.00161  -0.00107  -1.04751
   D11        1.04537   0.00036  -0.00015   0.00548   0.00532   1.05069
   D12        0.00294  -0.00000   0.00012   0.00132   0.00144   0.00439
   D13        2.09842  -0.00035   0.00049  -0.00219  -0.00169   2.09672
   D14       -2.09296   0.00036  -0.00020   0.00491   0.00470  -2.08826
   D15        0.00165  -0.00000  -0.00002   0.00006   0.00004   0.00168
   D16       -3.13837   0.00002   0.00013   0.00102   0.00116  -3.13722
   D17        3.13964   0.00001   0.00004   0.00069   0.00073   3.14037
   D18       -0.00038   0.00003   0.00019   0.00166   0.00185   0.00147
   D19        3.11794   0.00003  -0.00116   0.00102  -0.00014   3.11779
   D20       -0.00188  -0.00004  -0.00009  -0.00263  -0.00273  -0.00461
   D21       -0.02524   0.00001  -0.00132   0.00005  -0.00127  -0.02651
   D22        3.13812  -0.00006  -0.00025  -0.00361  -0.00386   3.13427
   D23        2.69951   0.00008   0.00215   0.00944   0.01159   2.71111
   D24       -1.49667   0.00002   0.00128   0.00790   0.00918  -1.48749
   D25        0.58467  -0.00007   0.00049   0.00590   0.00638   0.59104
   D26       -0.46463   0.00014   0.00105   0.01320   0.01425  -0.45038
   D27        1.62237   0.00009   0.00018   0.01166   0.01184   1.63421
   D28       -2.57948  -0.00000  -0.00062   0.00966   0.00904  -2.57044
   D29        0.00180   0.00006   0.00000   0.00355   0.00355   0.00535
   D30       -3.13829   0.00007   0.00020   0.00431   0.00451  -3.13378
   D31       -3.11805  -0.00000   0.00107  -0.00008   0.00099  -3.11706
   D32        0.02505   0.00001   0.00127   0.00069   0.00195   0.02700
         Item               Value     Threshold  Converged?
 Maximum Force            0.002131     0.000450     NO 
 RMS     Force            0.000499     0.000300     NO 
 Maximum Displacement     0.020214     0.001800     NO 
 RMS     Displacement     0.005361     0.001200     NO 
 Predicted change in Energy=-4.260608D-05
 GradGradGradGradGradGradGradGradGradGradGradGradGradGradGradGradGradGrad

                          Input orientation:                          
 ---------------------------------------------------------------------
 Center     Atomic      Atomic             Coordinates (Angstroms)
 Number     Number       Type             X           Y           Z
 ---------------------------------------------------------------------
      1         17           0        0.157863    3.646486   -0.601887
      2          6           0        0.036278    1.916342   -0.319467
      3          7           0       -1.177768    1.405604   -0.278037
      4          6           0       -1.265701    0.086656   -0.067017
      5          6           0       -2.680091   -0.453368   -0.032263
      6          9           0       -2.686711   -1.789025    0.186749
      7          9           0       -3.397924    0.124351    0.948879
      8          9           0       -3.316778   -0.227861   -1.196425
      9          6           0       -0.172044   -0.749525    0.106651
     10          6           0        1.114614   -0.191278    0.062798
     11          6           0        2.340157   -1.038268    0.273948
     12          6           0        1.214554    1.181719   -0.160377
     13          1           0       -0.316868   -1.810042    0.269604
     14          1           0        3.219049   -0.594128   -0.199447
     15          1           0        2.554793   -1.136794    1.344489
     16          1           0        2.198946   -2.045927   -0.125337
     17          1           0        2.177731    1.675358   -0.213060
 ---------------------------------------------------------------------
                    Distance matrix (angstroms):
                    1          2          3          4          5
     1  Cl   0.000000
     2  C    1.757254   0.000000
     3  N    2.628753   1.317755   0.000000
     4  C    3.871048   2.259786   1.338613   0.000000
     5  C    5.018691   3.616169   2.402740   1.514375   0.000000
     6  F    6.185332   4.626086   3.563508   2.366822   1.353510
     7  F    5.239649   4.075988   2.841834   2.362168   1.345988
     8  F    5.238051   4.075494   2.843767   2.362499   1.345919
     9  C    4.464950   2.707734   2.409158   1.387604   2.529289
    10  C    4.010687   2.398124   2.814465   2.400000   3.804933
    11  C    5.241795   3.793379   4.318911   3.792615   5.063474
    12  C    2.717831   1.397610   2.405654   2.712848   4.225894
    13  H    5.546040   3.789149   3.373638   2.147338   2.741625
    14  H    5.245535   4.055478   4.830849   4.538061   5.903188
    15  H    5.693279   4.293403   4.798790   4.252688   5.455871
    16  H    6.066028   4.518229   4.831002   4.068795   5.133216
    17  H    2.848930   2.157595   3.366951   3.795066   5.306845
                    6          7          8          9         10
     6  F    0.000000
     7  F    2.178916   0.000000
     8  F    2.178850   2.175539   0.000000
     9  C    2.722228   3.446637   3.443761   0.000000
    10  C    4.125316   4.609529   4.606975   1.403229   0.000000
    11  C    5.083369   5.893453   5.900820   2.534269   1.504637
    12  C    4.915861   4.860393   4.857292   2.392418   1.394602
    13  H    2.371384   3.700837   3.694861   1.082693   2.170785
    14  H    6.037792   6.754199   6.621568   3.408425   2.158636
    15  H    5.407322   6.097691   6.462024   3.019580   2.147288
    16  H    4.902350   6.098278   5.905574   2.712208   2.156593
    17  H    5.985365   5.902851   5.897362   3.391713   2.165790
                   11         12         13         14         15
    11  C    0.000000
    12  C    2.526651   0.000000
    13  H    2.766846   3.388329   0.000000
    14  H    1.092618   2.678276   3.768444   0.000000
    15  H    1.096281   3.071867   3.139280   1.766199   0.000000
    16  H    1.093045   3.374605   2.557526   1.775901   1.764522
    17  H    2.761761   1.083589   4.313236   2.497018   3.236716
                   16         17
    16  H    0.000000
    17  H    3.722380   0.000000
 Stoichiometry    C7H5ClF3N
[...]
   Eigenvalues:   152.5578   235.6775   336.2817
      8  F    Isotropic =   241.3821   Anisotropy =   142.2902
   XX=   177.2168   YX=   -17.3749   ZX=   -60.4274
   XY=    -7.1977   YY=   261.9351   ZY=    41.9713
   XZ=   -53.4515   YZ=    44.3905   ZZ=   284.9944
   Eigenvalues:   152.3631   235.5410   336.2422
      9  C    Isotropic =    45.1659   Anisotropy =   194.6061
   XX=   -10.6143   YX=   -51.5302   ZX=    -0.0165
   XY=   -53.6912   YY=   -28.7913   ZY=    -0.0008
   XZ=     0.0188   YZ=     0.0013   ZZ=   174.9033
   Eigenvalues:   -73.0928    33.6872   174.9033
     10  C    Isotropic =     7.1887   Anisotropy =   252.3535
   XX=   -52.5648   YX=    22.7471   ZX=    -0.0273
   XY=    25.9349   YY=  -101.2935   ZY=     0.0028
   XZ=    -0.0255   YZ=     0.0362   ZZ=   175.4244
   Eigenvalues:  -111.3690   -42.4893   175.4244
     11  C    Isotropic =   163.0518   Anisotropy =    40.6370
   XX=   160.9371   YX=   -11.0802   ZX=     0.0026
   XY=   -15.2940   YY=   184.1889   ZY=     0.0027
   XZ=     0.0038   YZ=    -0.0014   ZZ=   144.0294
   Eigenvalues:   144.0294   154.9829   190.1431
     12  C    Isotropic =    37.0728   Anisotropy =   159.0691
   XX=   -64.2898   YX=    30.7884   ZX=    -0.0356
   XY=    42.4641   YY=    32.3892   ZY=     0.0140
   XZ=    -0.0366   YZ=     0.0144   ZZ=   143.1188
   Eigenvalues:   -76.5984    44.6978   143.1188
     13  H    Isotropic =    23.6864   Anisotropy =    11.6808
   XX=    26.4834   YX=    -5.1925   ZX=     0.0022
   XY=    -6.4569   YY=    24.6748   ZY=    -0.0009
   XZ=     0.0041   YZ=     0.0004   ZZ=    19.9008
   Eigenvalues:    19.6846    19.9009    31.4736
     14  H    Isotropic =    29.6481   Anisotropy =     7.6340
   XX=    34.2398   YX=    -0.1147   ZX=     0.0002
   XY=    -2.9150   YY=    30.1269   ZY=    -0.0000
   XZ=    -0.0004   YZ=     0.0008   ZZ=    24.5777
   Eigenvalues:    24.5777    29.6292    34.7375
     15  H    Isotropic =    29.3087   Anisotropy =     8.0841
   XX=    28.1155   YX=    -0.3437   ZX=     1.2890
   XY=     0.7811   YY=    31.0803   ZY=     3.7352
   XZ=     1.5486   YZ=     5.2132   ZZ=    28.7302
   Eigenvalues:    24.9575    28.2704    34.6981
     16  H    Isotropic =    29.3087   Anisotropy =     8.0840
   XX=    28.1156   YX=    -0.3424   ZX=    -1.2880
   XY=     0.7817   YY=    31.0811   ZY=    -3.7356
   XZ=    -1.5478   YZ=    -5.2123   ZZ=    28.7294
   Eigenvalues:    24.9583    28.2698    34.6980
     17  H    Isotropic =    23.9631   Anisotropy =    10.5506
   XX=    20.9912   YX=     1.5623   ZX=    -0.0001
   XY=     2.6869   YY=    30.5457   ZY=    -0.0001
   XZ=    -0.0001   YZ=    -0.0003   ZZ=    20.3524
   Eigenvalues:    20.3524    20.5400    30.9968
 End of Minotr F.D. properties file   721 does not exist.
 End of Minotr F.D. properties file   722 does not exist.
 End of Minotr F.D. properties file   788 does not exist.

 **********************************************************************

            Population analysis using the SCF Density.

 **********************************************************************

 Orbital symmetries:
       Occupied  (A) (A) (A) (A) (A) (A) (A) (A) (A) (A) (A) (A)
                 (A) (A) (A) (A) (A) (A) (A) (A) (A) (A) (A) (A)
                 (A) (A) (A) (A) (A) (A) (A) (A) (A) (A) (A) (A)
                 (A) (A) (A) (A) (A) (A) (A) (A) (A) (A) (A) (A)
                 (A)
       Virtual   (A) (A) (A) (A) (A) (A) (A) (A) (A) (A) (A) (A)
                 (A) (A) (A) (A) (A) (A) (A) (A) (A) (A) (A) (A)
                 (A) (A) (A) (A) (A) (A) (A) (A) (A) (A) (A) (A)
                 (A) (A) (A) (A) (A) (A) (A) (A) (A) (A) (A) (A)
                 (A) (A) (A) (A) (A) (A) (A) (A) (A) (A) (A) (A)
                 (A) (A) (A) (A) (A) (A) (A) (A) (A) (A) (A) (A)
                 (A) (A) (A) (A) (A) (A) (A) (A) (A) (A) (A) (A)
                 (A) (A) (A) (A) (A) (A) (A) (A) (A) (A) (A) (A)
                 (A) (A) (A) (A) (A) (A) (A) (A) (A) (A) (A) (A)
                 (A) (A) (A) (A) (A) (A) (A) (A) (A) (A) (A) (A)
                 (A) (A) (A) (A) (A) (A) (A) (A) (A) (A) (A) (A)
                 (A) (A) (A) (A) (A) (A) (A) (A) (A) (A) (A) (A)
                 (A) (A) (A) (A) (A) (A) (A) (A) (A) (A) (A) (A)
                 (A) (A) (A) (A) (A) (A) (A) (A) (A) (A) (A) (A)
                 (A) (A) (A) (A) (A) (A) (A) (A) (A) (A) (A) (A)
                 (A) (A) (A) (A) (A) (A) (A) (A) (A) (A) (A) (A)
                 (A) (A) (A) (A) (A) (A) (A) (A) (A) (A) (A) (A)
                 (A) (A) (A) (A) (A) (A) (A) (A) (A) (A) (A) (A)
                 (A) (A) (A) (A) (A) (A) (A) (A) (A) (A) (A) (A)
                 (A) (A) (A) (A) (A) (A) (A) (A) (A) (A) (A) (A)
                 (A) (A) (A) (A) (A) (A) (A) (A) (A) (A) (A) (A)
                 (A) (A) (A) (A) (A) (A) (A) (A) (A) (A) (A) (A)
                 (A) (A) (A) (A) (A) (A) (A) (A) (A) (A) (A) (A)
                 (A) (A) (A) (A) (A) (A) (A) (A) (A) (A) (A) (A)
                 (A) (A) (A) (A) (A) (A) (A) (A) (A) (A) (A) (A)
                 (A) (A) (A) (A) (A) (A) (A) (A) (A) (A) (A) (A)
                 (A) (A) (A) (A) (A) (A) (A) (A) (A) (A) (A) (A)
                 (A) (A) (A) (A) (A) (A) (A) (A) (A) (A) (A) (A)
                 (A) (A) (A) (A) (A) (A) (A) (A) (A) (A) (A) (A)
                 (A) (A) (A) (A) (A) (A) (A) (A) (A) (A) (A)
 The electronic state is 1-A.
 Alpha  occ. eigenvalues -- -102.65576 -25.28611 -25.28002 -25.28000 -14.78496
 Alpha  occ. eigenvalues --  -10.80450 -10.66069 -10.62393 -10.60265 -10.58316
 Alpha  occ. eigenvalues --  -10.58133 -10.56629  -9.81840  -7.54034  -7.53527
 Alpha  occ. eigenvalues --   -7.53495  -1.46438  -1.37637  -1.37284  -1.10517
 Alpha  occ. eigenvalues --   -0.97264  -0.95687  -0.89233  -0.83643  -0.82256
 Alpha  occ. eigenvalues --   -0.75213  -0.71715  -0.69237  -0.68666  -0.66275
 Alpha  occ. eigenvalues --   -0.60572  -0.59904  -0.57707  -0.57198  -0.54368
 Alpha  occ. eigenvalues --   -0.54217  -0.53121  -0.52867  -0.51657  -0.50215
 Alpha  occ. eigenvalues --   -0.50079  -0.49219  -0.48162  -0.44797  -0.41900
 Alpha  occ. eigenvalues --   -0.39191  -0.36894  -0.36446  -0.33403
 Alpha virt. eigenvalues --   -0.03023  -0.02038   0.05562   0.06193   0.09996
 Alpha virt. eigenvalues --    0.10494   0.11306   0.11690   0.14101   0.15309
 Alpha virt. eigenvalues --    0.15669   0.16769   0.17504   0.19286   0.20651
 Alpha virt. eigenvalues --    0.21268   0.21366   0.23744   0.23878   0.24788
 Alpha virt. eigenvalues --    0.26620   0.26936   0.28836   0.29021   0.29198
 Alpha virt. eigenvalues --    0.29905   0.31463   0.31563   0.32639   0.33619
 Alpha virt. eigenvalues --    0.33985   0.35292   0.36318   0.37231   0.38320
 Alpha virt. eigenvalues --    0.39282   0.39400   0.39774   0.40253   0.42598
 Alpha virt. eigenvalues --    0.45190   0.45240   0.46244   0.47236   0.47574
 Alpha virt. eigenvalues --    0.47897   0.49404   0.50096   0.50445   0.52973
 Alpha virt. eigenvalues --    0.54254   0.54405   0.56543   0.57088   0.57657
 Alpha virt. eigenvalues --    0.59058   0.60355   0.62745   0.63858   0.64912
 Alpha virt. eigenvalues --    0.65443   0.66373   0.66716   0.69922   0.69937
 Alpha virt. eigenvalues --    0.71431   0.72577   0.75072   0.75564   0.77158
 Alpha virt. eigenvalues --    0.78474   0.79754   0.80474   0.80709   0.83101
 Alpha virt. eigenvalues --    0.83319   0.85268   0.86221   0.86864   0.89281
 Alpha virt. eigenvalues --    0.89769   0.91768   0.93317   0.94336   0.94653
 Alpha virt. eigenvalues --    0.97130   1.00870   1.01685   1.03258   1.03730
 Alpha virt. eigenvalues --    1.05930   1.06627   1.10873   1.11814   1.12716
 Alpha virt. eigenvalues --    1.15701   1.16326   1.19022   1.21315   1.22019
 Alpha virt. eigenvalues --    1.23604   1.26998   1.27638   1.31157   1.32925
 Alpha virt. eigenvalues --    1.34077   1.34731   1.36247   1.40701   1.41873
 Alpha virt. eigenvalues --    1.44830   1.46778   1.48458   1.50063   1.51788
 Alpha virt. eigenvalues --    1.52821   1.53732   1.54795   1.56031   1.57586
 Alpha virt. eigenvalues --    1.57761   1.62440   1.64508   1.66274   1.68225
 Alpha virt. eigenvalues --    1.71879   1.72725   1.74529   1.75258   1.78699
 Alpha virt. eigenvalues --    1.79572   1.81217   1.82561   1.84557   1.86051
 Alpha virt. eigenvalues --    1.87809   1.88033   1.89716   1.91014   1.93675
 Alpha virt. eigenvalues --    1.94461   1.96365   1.97539   1.98447   1.99102
 Alpha virt. eigenvalues --    1.99697   2.01867   2.02348   2.03872   2.09531
 Alpha virt. eigenvalues --    2.09635   2.11344   2.11981   2.13595   2.14188
 Alpha virt. eigenvalues --    2.15899   2.17098   2.17457   2.18759   2.19750
 Alpha virt. eigenvalues --    2.22275   2.24550   2.25555   2.25899   2.26744
 Alpha virt. eigenvalues --    2.30110   2.30829   2.32493   2.34989   2.35042
 Alpha virt. eigenvalues --    2.37436   2.37756   2.41575   2.41882   2.42724
 Alpha virt. eigenvalues --    2.44552   2.47578   2.49850   2.50100   2.51390
 Alpha virt. eigenvalues --    2.52309   2.55674   2.56334   2.56795   2.58650
 Alpha virt. eigenvalues --    2.62803   2.63552   2.66275   2.66916   2.68048
 Alpha virt. eigenvalues --    2.73125   2.73430   2.76324   2.76519   2.78003
 Alpha virt. eigenvalues --    2.80220   2.84421   2.87155   2.87660   2.88743
 Alpha virt. eigenvalues --    2.90788   2.91317   2.93189   2.97497   2.98064
 Alpha virt. eigenvalues --    2.99529   3.01173   3.02531   3.02731   3.05232
 Alpha virt. eigenvalues --    3.06024   3.06591   3.06631   3.08758   3.12179
 Alpha virt. eigenvalues --    3.13431   3.13735   3.16395   3.17346   3.18569
 Alpha virt. eigenvalues --    3.18806   3.19908   3.20237   3.22425   3.24499
 Alpha virt. eigenvalues --    3.24846   3.25758   3.27367   3.29628   3.29912
 Alpha virt. eigenvalues --    3.31606   3.32471   3.35148   3.35585   3.36164
 Alpha virt. eigenvalues --    3.37413   3.38161   3.39236   3.40602   3.42333
 Alpha virt. eigenvalues --    3.43012   3.46259   3.50883   3.54065   3.56863
 Alpha virt. eigenvalues --    3.57714   3.64131   3.65185   3.65760   3.70390
 Alpha virt. eigenvalues --    3.72934   3.73302   3.74720   3.79128   3.81446
 Alpha virt. eigenvalues --    3.83795   3.85181   3.86125   3.88157   3.92970
 Alpha virt. eigenvalues --    3.94043   3.96454   3.96837   3.98739   3.99152
 Alpha virt. eigenvalues --    3.99623   4.00821   4.02258   4.02558   4.04492
 Alpha virt. eigenvalues --    4.10260   4.13271   4.14241   4.19693   4.19805
 Alpha virt. eigenvalues --    4.22908   4.26435   4.29712   4.30509   4.36353
 Alpha virt. eigenvalues --    4.36391   4.45674   4.46962   4.48549   4.54560
 Alpha virt. eigenvalues --    4.58114   4.62660   4.73085   4.75333   4.83195
 Alpha virt. eigenvalues --    4.85761   4.90409   4.97369   4.98502   5.04282
 Alpha virt. eigenvalues --    5.06316   5.12670   5.16181   5.16709   5.26624
 Alpha virt. eigenvalues --    5.34513   5.34616   5.36506   5.48935   5.54769
 Alpha virt. eigenvalues --    5.67539   5.72981   6.01086   6.83107   6.87426
 Alpha virt. eigenvalues --    6.88145   6.88523   6.89029   6.89045   6.89586
 Alpha virt. eigenvalues --    6.89809   6.91112   6.98538   6.99619   7.02092
 Alpha virt. eigenvalues --    7.05749   7.07176   7.13860   7.34976   7.36147
 Alpha virt. eigenvalues --    7.38205   7.49830   7.55975   7.58137   8.29295
 Alpha virt. eigenvalues --    8.31685   8.32823   8.45121   8.47047   8.55356
 Alpha virt. eigenvalues --    8.68110   8.75498   8.77501   8.87363   8.92815
 Alpha virt. eigenvalues --    8.98262   9.00109   9.05214   9.11045  10.80619
 Alpha virt. eigenvalues --   10.86847  11.39070  22.39885  22.49873  22.77906
 Alpha virt. eigenvalues --   22.83948  22.88834  23.12211  23.21784  25.88454
 Alpha virt. eigenvalues --   32.65617  57.30438  57.38639  57.46696
          Condensed to atoms (all electrons):
               1          2          3          4          5          6
     1  Cl  16.845605   0.361398  -0.081491   0.002978  -0.001082   0.000001
     2  C    0.361398   4.720160   0.535111  -0.050170  -0.005939   0.000098
     3  N   -0.081491   0.535111   6.437918   0.487001  -0.010543   0.000778
     4  C    0.002978  -0.050170   0.487001   5.011698   0.421869  -0.073737
     5  C   -0.001082  -0.005939  -0.010543   0.421869   4.098773   0.323657
     6  F    0.000001   0.000098   0.000778  -0.073737   0.323657   9.004889
     7  F    0.000004  -0.000062  -0.009310  -0.062675   0.353390  -0.046254
     8  F    0.000004  -0.000062  -0.009280  -0.062730   0.353328  -0.046268
     9  C    0.000285  -0.065315  -0.103006   0.371330  -0.041520   0.012002
    10  C    0.012597  -0.041066  -0.002715  -0.034168  -0.002458   0.003302
    11  C   -0.000642   0.008311  -0.001448   0.005162  -0.000115  -0.000031
    12  C   -0.077999   0.414766  -0.053076  -0.063941   0.005696  -0.000205
    13  H    0.000074   0.001385   0.004463   0.004919  -0.011779   0.006625
    14  H   -0.000033   0.003114   0.000039  -0.000722  -0.000008   0.000000
    15  H    0.000014  -0.000660   0.000106  -0.000003  -0.000011  -0.000006
    16  H    0.000014  -0.000661   0.000106  -0.000007  -0.000011  -0.000006
    17  H    0.003644  -0.017350   0.005603   0.000453   0.000061  -0.000001
               7          8          9         10         11         12
     1  Cl   0.000004   0.000004   0.000285   0.012597  -0.000642  -0.077999
     2  C   -0.000062  -0.000062  -0.065315  -0.041066   0.008311   0.414766
     3  N   -0.009310  -0.009280  -0.103006  -0.002715  -0.001448  -0.053076
     4  C   -0.062675  -0.062730   0.371330  -0.034168   0.005162  -0.063941
     5  C    0.353390   0.353328  -0.041520  -0.002458  -0.000115   0.005696
     6  F   -0.046254  -0.046268   0.012002   0.003302  -0.000031  -0.000205
     7  F    8.972758  -0.048303   0.007776  -0.000197  -0.000001  -0.000181
     8  F   -0.048303   8.972961   0.007770  -0.000200  -0.000001  -0.000180
     9  C    0.007776   0.007770   5.319874   0.393919  -0.068274  -0.028692
    10  C   -0.000197  -0.000200   0.393919   4.989146   0.276343   0.468977
    11  C   -0.000001  -0.000001  -0.068274   0.276343   5.076115  -0.063017
    12  C   -0.000181  -0.000180  -0.028692   0.468977  -0.063017   5.226163
    13  H    0.000258   0.000257   0.375818  -0.031133  -0.001051   0.004863
    14  H   -0.000000  -0.000000   0.015669  -0.057340   0.431470  -0.017268
    15  H   -0.000000   0.000000  -0.011971  -0.031619   0.409356   0.003374
    16  H    0.000000  -0.000000  -0.011948  -0.031626   0.409340   0.003379
    17  H   -0.000001  -0.000001   0.006919  -0.032128  -0.006873   0.388974
              13         14         15         16         17
     1  Cl   0.000074  -0.000033   0.000014   0.000014   0.003644
     2  C    0.001385   0.003114  -0.000660  -0.000661  -0.017350
     3  N    0.004463   0.000039   0.000106   0.000106   0.005603
     4  C    0.004919  -0.000722  -0.000003  -0.000007   0.000453
     5  C   -0.011779  -0.000008  -0.000011  -0.000011   0.000061
     6  F    0.006625   0.000000  -0.000006  -0.000006  -0.000001
     7  F    0.000258  -0.000000  -0.000000   0.000000  -0.000001
     8  F    0.000257  -0.000000   0.000000  -0.000000  -0.000001
     9  C    0.375818   0.015669  -0.011971  -0.011948   0.006919
    10  C   -0.031133  -0.057340  -0.031619  -0.031626  -0.032128
    11  C   -0.001051   0.431470   0.409356   0.409340  -0.006873
    12  C    0.004863  -0.017268   0.003374   0.003379   0.388974
    13  H    0.465293  -0.000002   0.000095   0.000096  -0.000045
    14  H   -0.000002   0.517194  -0.021717  -0.021708   0.001273
    15  H    0.000095  -0.021717   0.513520  -0.030993   0.000141
    16  H    0.000096  -0.021708  -0.030993   0.513509   0.000142
    17  H   -0.000045   0.001273   0.000141   0.000142   0.484697
 Mulliken charges:
               1
     1  Cl  -0.065372
     2  C    0.136943
     3  N   -0.200258
     4  C    0.042741
     5  C    0.516691
     6  F   -0.184845
     7  F   -0.167203
     8  F   -0.167295
     9  C   -0.180636
    10  C    0.120366
    11  C   -0.474645
    12  C   -0.211634
    13  H    0.179863
    14  H    0.150040
    15  H    0.170374
    16  H    0.170375
    17  H    0.164494
 Sum of Mulliken charges =  -0.00000
 Mulliken charges with hydrogens summed into heavy atoms:
               1
     1  Cl  -0.065372
     2  C    0.136943
     3  N   -0.200258
     4  C    0.042741
     5  C    0.516691
     6  F   -0.184845
     7  F   -0.167203
     8  F   -0.167295
     9  C   -0.000773
    10  C    0.120366
    11  C    0.016145
    12  C   -0.047140
 Electronic spatial extent (au):  <R**2>=           2548.8590
 Charge=             -0.0000 electrons
 Dipole moment (field-independent basis, Debye):
    X=             -2.3859    Y=              4.6069    Z=              0.0006  Tot=              5.1880
 Quadrupole moment (field-independent basis, Debye-Ang):
   XX=            -75.3832   YY=            -69.4400   ZZ=            -75.6682
   XY=             -2.9045   XZ=              0.0019   YZ=             -0.0003
 Traceless Quadrupole moment (field-independent basis, Debye-Ang):
   XX=             -1.8861   YY=              4.0571   ZZ=             -2.1711
   XY=             -2.9045   XZ=              0.0019   YZ=             -0.0003
 Octapole moment (field-independent basis, Debye-Ang**2):
  XXX=             19.1132  YYY=              9.4848  ZZZ=              0.0046  XYY=              5.0769
  XXY=              4.3591  XXZ=             -0.0005  XZZ=             14.0451  YZZ=             -4.4392
  YYZ=             -0.0066  XYZ=             -0.0024
 Hexadecapole moment (field-independent basis, Debye-Ang**3):
 XXXX=          -1749.4595 YYYY=          -1088.4744 ZZZZ=           -149.4250 XXXY=            -22.1494
 XXXZ=              0.0023 YYYX=             -7.1620 YYYZ=              0.0046 ZZZX=              0.0129
 ZZZY=             -0.0030 XXYY=           -465.0337 XXZZ=           -328.6185 YYZZ=           -216.2999
 XXYZ=             -0.0095 YYXZ=             -0.0108 ZZXY=              3.3219
 N-N= 7.971356972645D+02 E-N=-4.156480434558D+03  KE= 1.081003131210D+03
 Unable to Open any file for archive entry.
 1\1\GINC-COMPUTE-0-1\SP\RM062X\def2TZVP\C7H5Cl1F3N1\ZTAN64\14-Aug-2024
 \0\\# M062X/def2tzvp int=(grid=ultrafine) nmr=giao guess=read geom=che
 ck\\pyrd5.xyz\\0,1\Cl,0,0.1590149719,3.6289746331,-0.7120712674\C,0,0.
 0357617162,1.9081015083,-0.3758479305\N,0,-1.1768131147,1.4007652732,-
 0.3128161392\C,0,-1.2641130413,0.087654641,-0.056025427\C,0,-2.6794821
 228,-0.4478802575,0.0058422952\F,0,-2.688498496,-1.7748564999,0.269961
 9773\F,0,-3.3908768994,0.1641192157,0.969432384\F,0,-3.323177623,-0.26
 0332434,-1.1603120398\C,0,-0.170057936,-0.7403725681,0.1411578948\C,0,
 1.1175964706,-0.1839735545,0.0707685665\C,0,2.3396699901,-1.0375118745
 ,0.2771183336\C,0,1.216747568,1.1792238013,-0.195569474\H,0,-0.3126170
 166,-1.7943238101,0.3450425314\H,0,3.2572185945,-0.4519547339,0.189785
 214\H,0,2.3236585317,-1.5039618348,1.2676330511\H,0,2.3770401073,-1.84
 55555386,-0.4608396871\H,0,2.1790282995,1.6721840333,-0.2634602829\\Ve
 rsion=ES64L-G16RevC.01\State=1-A\HF=-1084.2737785\RMSD=4.157e-09\Dipol
 e=1.8363664,-0.8616338,0.2271061\Quadrupole=2.2505514,-0.7080256,-1.54
 25258,-2.6541298,0.6422875,-0.2616058\PG=C01 [X(C7H5Cl1F3N1)]\\@
 The archive entry for this job was punched.


 DEFINE YOUR TERMS, YOU WILL PERMIT ME AGAIN TO SAY, 
 OR WE SHALL NEVER UNDERSTAND ONE ANOTHER.

                                    -- VOLTAIRE
 Job cpu time:       0 days  0 hours 24 minutes 14.3 seconds.
 Elapsed time:       0 days  0 hours  1 minutes 37.0 seconds.
 File lengths (MBytes):  RWF=     97 Int=      0 D2E=      0 Chk=     16 Scr=      1
 Normal termination of Gaussian 16 at Wed Aug 14 19:14:00 2024.
 
 
-----Kestrel cluster job statistics-----
Time info:

real	9m10.649s
user	142m52.823s
sys	0m21.987s
 
Disk space usage:
16M	/scratch/362972.kestrel.chem.wisc.edu
