 Entering Gaussian System, Link 0=/share/apps/gaussian/g16/g16
 Initial command:
 /share/apps/gaussian/g16/l1.exe "/scratch/363658.kestrel.chem.wisc.edu/Gau-158730.inp" -scrdir="/scratch/363658.kestrel.chem.wisc.edu/"
 Entering Link 1 = /share/apps/gaussian/g16/l1.exe PID=    158731.
  
 Copyright (c) 1988-2019, Gaussian, Inc.  All Rights Reserved.
  
 This is part of the Gaussian(R) 16 program.  It is based on
 the Gaussian(R) 09 system (copyright 2009, Gaussian, Inc.),
 the Gaussian(R) 03 system (copyright 2003, Gaussian, Inc.),
 the Gaussian(R) 98 system (copyright 1998, Gaussian, Inc.),
 the Gaussian(R) 94 system (copyright 1995, Gaussian, Inc.),
 the Gaussian 92(TM) system (copyright 1992, Gaussian, Inc.),
 the Gaussian 90(TM) system (copyright 1990, Gaussian, Inc.),
 the Gaussian 88(TM) system (copyright 1988, Gaussian, Inc.),
 the Gaussian 86(TM) system (copyright 1986, Carnegie Mellon
 University), and the Gaussian 82(TM) system (copyright 1983,
 Carnegie Mellon University). Gaussian is a federally registered
 trademark of Gaussian, Inc.
  
 This software contains proprietary and confidential information,
 including trade secrets, belonging to Gaussian, Inc.
  
 This software is provided under written license and may be
 used, copied, transmitted, or stored only in accord with that
 written license.
  
 The following legend is applicable only to US Government
 contracts under FAR:
  
                    RESTRICTED RIGHTS LEGEND
  
 Use, reproduction and disclosure by the US Government is
 subject to restrictions as set forth in subparagraphs (a)
 and (c) of the Commercial Computer Software - Restricted
 Rights clause in FAR 52.227-19.
  
 Gaussian, Inc.
 340 Quinnipiac St., Bldg. 40, Wallingford CT 06492
  
  
 ---------------------------------------------------------------
 Warning -- This program may not be used in any manner that
 competes with the business of Gaussian, Inc. or will provide
 assistance to any competitor of Gaussian, Inc.  The licensee
 of this program is prohibited from giving any competitor of
 Gaussian, Inc. access to this program.  By using this program,
 the user acknowledges that Gaussian, Inc. is engaged in the
 business of creating and licensing software in the field of
 computational chemistry and represents and warrants to the
 licensee that it is not a competitor of Gaussian, Inc. and that
 it will not use this program in any manner prohibited above.
 ---------------------------------------------------------------
  

 Cite this work as:
 Gaussian 16, Revision C.01,
 M. J. Frisch, G. W. Trucks, H. B. Schlegel, G. E. Scuseria, 
 M. A. Robb, J. R. Cheeseman, G. Scalmani, V. Barone, 
 G. A. Petersson, H. Nakatsuji, X. Li, M. Caricato, A. V. Marenich, 
 J. Bloino, B. G. Janesko, R. Gomperts, B. Mennucci, H. P. Hratchian, 
 J. V. Ortiz, A. F. Izmaylov, J. L. Sonnenberg, D. Williams-Young, 
 F. Ding, F. Lipparini, F. Egidi, J. Goings, B. Peng, A. Petrone, 
 T. Henderson, D. Ranasinghe, V. G. Zakrzewski, J. Gao, N. Rega, 
 G. Zheng, W. Liang, M. Hada, M. Ehara, K. Toyota, R. Fukuda, 
 J. Hasegawa, M. Ishida, T. Nakajima, Y. Honda, O. Kitao, H. Nakai, 
 T. Vreven, K. Throssell, J. A. Montgomery, Jr., J. E. Peralta, 
 F. Ogliaro, M. J. Bearpark, J. J. Heyd, E. N. Brothers, K. N. Kudin, 
 V. N. Staroverov, T. A. Keith, R. Kobayashi, J. Normand, 
 K. Raghavachari, A. P. Rendell, J. C. Burant, S. S. Iyengar, 
 J. Tomasi, M. Cossi, J. M. Millam, M. Klene, C. Adamo, R. Cammi, 
 J. W. Ochterski, R. L. Martin, K. Morokuma, O. Farkas, 
 J. B. Foresman, and D. J. Fox, Gaussian, Inc., Wallingford CT, 2019.
 
 ******************************************
 Gaussian 16:  ES64L-G16RevC.01  3-Jul-2019
                16-Aug-2024 
 ******************************************
 %nprocs=16
 Will use up to   16 processors via shared memory.
 %mem=16GB
 %chk=pyrd10_conf-10.chk
 ----------------------------------------------------------------------
 # B3LYP/6-31G(d,p) symmetry=loose empiricaldispersion=GD3BJ int=(grid=
 ultrafine) opt=calcfc freq=noraman
 ----------------------------------------------------------------------
 1/10=4,18=20,19=15,26=4,38=1/1,3;
 2/9=110,12=2,17=4,18=3,40=1/2;
 3/5=1,6=6,7=101,11=2,25=1,30=1,71=2,74=-5,75=-5,124=41,140=1/1,2,3;
 4//1;
 5/5=2,38=5/2;
 8/6=4,10=90,11=11/1;
 11/6=1,8=1,9=11,15=111,16=1/1,2,10;
 10/6=1,13=1/2;
 6/7=2,8=2,9=2,10=2,28=1/1;
 7/10=1,25=1/1,2,3,16;
 1/10=4,18=20,19=15,26=4/3(2);
 2/9=110/2;
 99//99;
 2/9=110/2;
 3/5=1,6=6,7=101,11=2,25=1,30=1,71=1,74=-5,75=-5,124=41/1,2,3;
 4/5=5,16=3,69=1/1;
 5/5=2,38=5/2;
 7//1,2,3,16;
 1/18=20,19=15,26=4/3(-5);
 2/9=110/2;
 6/7=2,8=2,9=2,10=2,19=2,28=1/1;
 99/9=1/99;
 ----------
 pyrd10.xyz
 ----------
 Symbolic Z-matrix:
 Charge =  0 Multiplicity = 1
 Br                    5.5838   -1.8398   -0.7895 
 C                     4.4641   -1.0871    0.6725 
 C                     3.0483   -1.6724    0.5735 
 C                     2.1034   -1.143     1.6732 
 C                     0.6711   -1.6758    1.6484 
 C                    -0.2357   -1.2346    2.6197 
 N                    -1.5265   -1.6494    2.6801 
 C                    -1.9507   -2.5373    1.7472 
 C                    -1.1191   -3.0323    0.742 
 C                     0.2062   -2.5946    0.6948 
 H                     4.944    -1.3384    1.6196 
 H                     4.465    -0.0014    0.5644 
 H                     2.6381   -1.4357   -0.4099 
 H                     3.1125   -2.7602    0.6354 
 H                     2.0519   -0.0544    1.6101 
 H                     2.5253   -1.3756    2.6528 
 H                     0.0647   -0.5276    3.3795 
 H                    -2.9827   -2.8503    1.8192 
 H                    -1.4917   -3.7392    0.0151 
 H                     0.8514   -2.9763   -0.0821 
 

 GradGradGradGradGradGradGradGradGradGradGradGradGradGradGradGradGradGrad
 Berny optimization.
 Initialization pass.
                           ----------------------------
                           !    Initial Parameters    !
                           ! (Angstroms and Degrees)  !
 --------------------------                            --------------------------
 ! Name  Definition              Value          Derivative Info.                !
 --------------------------------------------------------------------------------
 ! R1    R(1,2)                  1.9894         calculate D2E/DX2 analytically  !
 ! R2    R(2,3)                  1.5352         calculate D2E/DX2 analytically  !
 ! R3    R(2,11)                 1.0911         calculate D2E/DX2 analytically  !
 ! R4    R(2,12)                 1.0911         calculate D2E/DX2 analytically  !
 ! R5    R(3,4)                  1.5435         calculate D2E/DX2 analytically  !
 ! R6    R(3,13)                 1.0915         calculate D2E/DX2 analytically  !
 ! R7    R(3,14)                 1.0914         calculate D2E/DX2 analytically  !
 ! R8    R(4,5)                  1.5284         calculate D2E/DX2 analytically  !
 ! R9    R(4,15)                 1.0916         calculate D2E/DX2 analytically  !
 ! R10   R(4,16)                 1.0917         calculate D2E/DX2 analytically  !
 ! R11   R(5,6)                  1.4001         calculate D2E/DX2 analytically  !
 ! R12   R(5,10)                 1.4035         calculate D2E/DX2 analytically  !
 ! R13   R(6,7)                  1.3572         calculate D2E/DX2 analytically  !
 ! R14   R(6,17)                 1.0805         calculate D2E/DX2 analytically  !
 ! R15   R(7,8)                  1.356          calculate D2E/DX2 analytically  !
 ! R16   R(8,9)                  1.3954         calculate D2E/DX2 analytically  !
 ! R17   R(8,18)                 1.0808         calculate D2E/DX2 analytically  !
 ! R18   R(9,10)                 1.3965         calculate D2E/DX2 analytically  !
 ! R19   R(9,19)                 1.0802         calculate D2E/DX2 analytically  !
 ! R20   R(10,20)                1.0796         calculate D2E/DX2 analytically  !
 ! A1    A(1,2,3)              109.112          calculate D2E/DX2 analytically  !
 ! A2    A(1,2,11)             107.6509         calculate D2E/DX2 analytically  !
 ! A3    A(1,2,12)             107.6509         calculate D2E/DX2 analytically  !
 ! A4    A(3,2,11)             111.9498         calculate D2E/DX2 analytically  !
 ! A5    A(3,2,12)             111.9469         calculate D2E/DX2 analytically  !
 ! A6    A(11,2,12)            108.3505         calculate D2E/DX2 analytically  !
 ! A7    A(2,3,4)              112.8209         calculate D2E/DX2 analytically  !
 ! A8    A(2,3,13)             108.7843         calculate D2E/DX2 analytically  !
 ! A9    A(2,3,14)             108.7883         calculate D2E/DX2 analytically  !
 ! A10   A(4,3,13)             109.7224         calculate D2E/DX2 analytically  !
 ! A11   A(4,3,14)             109.7209         calculate D2E/DX2 analytically  !
 ! A12   A(13,3,14)            106.8182         calculate D2E/DX2 analytically  !
 ! A13   A(3,4,5)              116.2674         calculate D2E/DX2 analytically  !
 ! A14   A(3,4,15)             109.2521         calculate D2E/DX2 analytically  !
 ! A15   A(3,4,16)             109.2481         calculate D2E/DX2 analytically  !
 ! A16   A(5,4,15)             107.6067         calculate D2E/DX2 analytically  !
 ! A17   A(5,4,16)             107.6056         calculate D2E/DX2 analytically  !
 ! A18   A(15,4,16)            106.4142         calculate D2E/DX2 analytically  !
 ! A19   A(4,5,6)              119.0669         calculate D2E/DX2 analytically  !
 ! A20   A(4,5,10)             123.3446         calculate D2E/DX2 analytically  !
 ! A21   A(6,5,10)             117.5885         calculate D2E/DX2 analytically  !
 ! A22   A(5,6,7)              123.4048         calculate D2E/DX2 analytically  !
 ! A23   A(5,6,17)             120.9284         calculate D2E/DX2 analytically  !
 ! A24   A(7,6,17)             115.6668         calculate D2E/DX2 analytically  !
 ! A25   A(6,7,8)              117.8439         calculate D2E/DX2 analytically  !
 ! A26   A(7,8,9)              122.7843         calculate D2E/DX2 analytically  !
 ! A27   A(7,8,18)             116.2641         calculate D2E/DX2 analytically  !
 ! A28   A(9,8,18)             120.9516         calculate D2E/DX2 analytically  !
 ! A29   A(8,9,10)             118.6039         calculate D2E/DX2 analytically  !
 ! A30   A(8,9,19)             120.7526         calculate D2E/DX2 analytically  !
 ! A31   A(10,9,19)            120.6435         calculate D2E/DX2 analytically  !
 ! A32   A(5,10,9)             119.7746         calculate D2E/DX2 analytically  !
 ! A33   A(5,10,20)            121.4967         calculate D2E/DX2 analytically  !
 ! A34   A(9,10,20)            118.7286         calculate D2E/DX2 analytically  !
 ! D1    D(1,2,3,4)           -179.9998         calculate D2E/DX2 analytically  !
 ! D2    D(1,2,3,13)           -58.0052         calculate D2E/DX2 analytically  !
 ! D3    D(1,2,3,14)            58.0046         calculate D2E/DX2 analytically  !
 ! D4    D(11,2,3,4)            60.9462         calculate D2E/DX2 analytically  !
 ! D5    D(11,2,3,13)         -177.0592         calculate D2E/DX2 analytically  !
 ! D6    D(11,2,3,14)          -61.0494         calculate D2E/DX2 analytically  !
 ! D7    D(12,2,3,4)           -60.9476         calculate D2E/DX2 analytically  !
 ! D8    D(12,2,3,13)           61.047          calculate D2E/DX2 analytically  !
 ! D9    D(12,2,3,14)          177.0568         calculate D2E/DX2 analytically  !
 ! D10   D(2,3,4,5)           -179.9953         calculate D2E/DX2 analytically  !
 ! D11   D(2,3,4,15)            58.0221         calculate D2E/DX2 analytically  !
 ! D12   D(2,3,4,16)           -58.0175         calculate D2E/DX2 analytically  !
 ! D13   D(13,3,4,5)            58.54           calculate D2E/DX2 analytically  !
 ! D14   D(13,3,4,15)          -63.4426         calculate D2E/DX2 analytically  !
 ! D15   D(13,3,4,16)         -179.4822         calculate D2E/DX2 analytically  !
 ! D16   D(14,3,4,5)           -58.5264         calculate D2E/DX2 analytically  !
 ! D17   D(14,3,4,15)          179.491          calculate D2E/DX2 analytically  !
 ! D18   D(14,3,4,16)           63.4514         calculate D2E/DX2 analytically  !
 ! D19   D(3,4,5,6)            179.982          calculate D2E/DX2 analytically  !
 ! D20   D(3,4,5,10)            -0.0166         calculate D2E/DX2 analytically  !
 ! D21   D(15,4,5,6)           -57.1719         calculate D2E/DX2 analytically  !
 ! D22   D(15,4,5,10)          122.8295         calculate D2E/DX2 analytically  !
 ! D23   D(16,4,5,6)            57.1421         calculate D2E/DX2 analytically  !
 ! D24   D(16,4,5,10)         -122.8565         calculate D2E/DX2 analytically  !
 ! D25   D(4,5,6,7)            179.9965         calculate D2E/DX2 analytically  !
 ! D26   D(4,5,6,17)             0.0022         calculate D2E/DX2 analytically  !
 ! D27   D(10,5,6,7)            -0.0049         calculate D2E/DX2 analytically  !
 ! D28   D(10,5,6,17)         -179.9991         calculate D2E/DX2 analytically  !
 ! D29   D(4,5,10,9)           179.9987         calculate D2E/DX2 analytically  !
 ! D30   D(4,5,10,20)            0.0031         calculate D2E/DX2 analytically  !
 ! D31   D(6,5,10,9)             0.0001         calculate D2E/DX2 analytically  !
 ! D32   D(6,5,10,20)         -179.9955         calculate D2E/DX2 analytically  !
 ! D33   D(5,6,7,8)              0.0053         calculate D2E/DX2 analytically  !
 ! D34   D(17,6,7,8)           179.9998         calculate D2E/DX2 analytically  !
 ! D35   D(6,7,8,9)             -0.001          calculate D2E/DX2 analytically  !
 ! D36   D(6,7,8,18)           179.9969         calculate D2E/DX2 analytically  !
 ! D37   D(7,8,9,10)            -0.0035         calculate D2E/DX2 analytically  !
 ! D38   D(7,8,9,19)          -179.9995         calculate D2E/DX2 analytically  !
 ! D39   D(18,8,9,10)          179.9987         calculate D2E/DX2 analytically  !
 ! D40   D(18,8,9,19)            0.0027         calculate D2E/DX2 analytically  !
 ! D41   D(8,9,10,5)             0.0038         calculate D2E/DX2 analytically  !
 ! D42   D(8,9,10,20)          179.9996         calculate D2E/DX2 analytically  !
 ! D43   D(19,9,10,5)          179.9999         calculate D2E/DX2 analytically  !
 ! D44   D(19,9,10,20)          -0.0044         calculate D2E/DX2 analytically  !
 --------------------------------------------------------------------------------
 Trust Radius=3.00D-01 FncErr=1.00D-07 GrdErr=1.00D-06 EigMax=2.50D+02 EigMin=1.00D-04
 Number of steps in this run=    108 maximum allowed number of steps=    120.
 GradGradGradGradGradGradGradGradGradGradGradGradGradGradGradGradGradGrad

                          Input orientation:                          
 ---------------------------------------------------------------------
 Center     Atomic      Atomic             Coordinates (Angstroms)
 Number     Number       Type             X           Y           Z
 ---------------------------------------------------------------------
      1         35           0        5.583800   -1.839800   -0.789500
      2          6           0        4.464100   -1.087100    0.672500
      3          6           0        3.048300   -1.672400    0.573500
      4          6           0        2.103400   -1.143000    1.673200
      5          6           0        0.671100   -1.675800    1.648400
      6          6           0       -0.235700   -1.234600    2.619700
      7          7           0       -1.526500   -1.649400    2.680100
      8          6           0       -1.950700   -2.537300    1.747200
      9          6           0       -1.119100   -3.032300    0.742000
     10          6           0        0.206200   -2.594600    0.694800
     11          1           0        4.944000   -1.338400    1.619600
     12          1           0        4.465000   -0.001400    0.564400
     13          1           0        2.638100   -1.435700   -0.409900
     14          1           0        3.112500   -2.760200    0.635400
     15          1           0        2.051900   -0.054400    1.610100
     16          1           0        2.525300   -1.375600    2.652800
     17          1           0        0.064700   -0.527600    3.379500
     18          1           0       -2.982700   -2.850300    1.819200
     19          1           0       -1.491700   -3.739200    0.015100
     20          1           0        0.851400   -2.976300   -0.082100
 ---------------------------------------------------------------------
                    Distance matrix (angstroms):
                    1          2          3          4          5
     1  Br   0.000000
     2  C    1.989404   0.000000
     3  C    2.883496   1.535209   0.000000
     4  C    4.320140   2.564650   1.543516   0.000000
     5  C    5.486791   3.960530   2.608927   1.528389   0.000000
     6  C    6.771668   5.089348   3.894003   2.525003   1.400131
     7  N    7.913959   6.343022   5.036575   3.800850   2.427869
     8  C    7.980604   6.663912   5.207267   4.287805   2.761481
     9  C    6.978282   5.912762   4.386906   3.849817   2.422080
    10  C    5.629516   4.516942   2.990435   2.581429   1.403452
    11  H    2.542540   1.091079   2.190790   2.847817   4.286297
    12  H    2.542533   1.091069   2.190745   2.847779   4.286298
    13  H    2.997422   2.151136   1.091497   2.170457   2.857155
    14  H    2.997466   2.151154   1.091450   2.170403   2.857014
    15  H    4.628180   2.786444   2.164550   1.091643   2.130027
    16  H    4.628103   2.786353   2.164511   1.091659   2.130023
    17  H    7.040092   5.195730   4.252772   2.728823   2.163976
    18  H    9.011734   7.738128   6.269942   5.366992   3.841728
    19  H    7.370061   6.552661   5.019469   4.734374   3.406317
    20  H    4.918095   4.146094   2.637487   2.830119   2.172197
                    6          7          8          9         10
     6  C    0.000000
     7  N    1.357156   0.000000
     8  C    2.323684   1.355955   0.000000
     9  C    2.745520   2.415496   1.395353   0.000000
    10  C    2.397940   2.799476   2.400635   1.396506   0.000000
    11  H    5.276388   6.564202   6.999324   6.356151   4.987990
    12  H    5.276516   6.564310   6.999358   6.356105   4.987892
    13  H    4.180627   5.190150   5.188804   4.241763   2.911623
    14  H    4.180352   5.189894   5.188620   4.241679   2.911620
    15  H    2.765010   4.061265   4.712154   4.435846   3.270627
    16  H    2.764796   4.061132   4.712137   4.435929   3.270772
    17  H    1.080456   2.068698   3.281026   3.825090   3.391183
    18  H    3.285924   2.074567   1.080822   2.160206   3.390979
    19  H    3.825506   3.386842   2.157641   1.080242   2.157537
    20  H    3.393380   3.878765   3.375029   2.136620   1.079607
                   11         12         13         14         15
    11  H    0.000000
    12  H    1.769310   0.000000
    13  H    3.073355   2.518738   0.000000
    14  H    2.518840   3.073317   1.752714   0.000000
    15  H    3.164331   2.630466   2.516351   3.065333   0.000000
    16  H    2.630398   3.164218   3.065366   2.516312   1.748399
    17  H    5.249973   5.250173   4.669752   4.669440   2.702528
    18  H    8.072066   8.072112   6.209941   6.209747   5.762636
    19  H    7.053828   7.053733   4.747840   4.747828   5.355266
    20  H    4.725238   4.725050   2.381848   2.382032   3.583607
                   16         17         18         19         20
    16  H    0.000000
    17  H    2.702175   0.000000
    18  H    5.762612   4.137163   0.000000
    19  H    5.355404   4.904686   2.503598   0.000000
    20  H    3.583833   4.312505   4.281488   2.466086   0.000000
 Stoichiometry    C8H10BrN
 Framework group  C1[X(C8H10BrN)]
 Deg. of freedom    54
 Full point group                 C1      NOp   1
 Largest Abelian subgroup         C1      NOp   1
 Largest concise Abelian subgroup C1      NOp   1
                         Standard orientation:                         
 ---------------------------------------------------------------------
 Center     Atomic      Atomic             Coordinates (Angstroms)
 Number     Number       Type             X           Y           Z
 ---------------------------------------------------------------------
      1         35           0       -3.443611   -0.314124   -0.000080
      2          6           0       -1.924461    0.970365    0.000110
      3          6           0       -0.604031    0.187210    0.000085
      4          6           0        0.636628    1.105473    0.000233
      5          6           0        1.995686    0.406235    0.000107
      6          6           0        3.160433    1.183237   -0.000152
      7          7           0        4.410736    0.655397   -0.000210
      8          6           0        4.527876   -0.695489   -0.000117
      9          6           0        3.424439   -1.549560    0.000055
     10          6           0        2.145279   -0.989222    0.000210
     11          1           0       -2.024501    1.601205   -0.884473
     12          1           0       -2.024536    1.600980    0.884836
     13          1           0       -0.581075   -0.463092    0.876411
     14          1           0       -0.580939   -0.462922   -0.876303
     15          1           0        0.601205    1.758221    0.874504
     16          1           0        0.601173    1.758436   -0.873896
     17          1           0        3.108053    2.262422   -0.000227
     18          1           0        5.534812   -1.088243   -0.000219
     19          1           0        3.555855   -2.621778    0.000133
     20          1           0        1.290095   -1.648170    0.000335
 ---------------------------------------------------------------------
 Rotational constants (GHZ):           3.6780257           0.2614276           0.2451839
 Standard basis: 6-31G(d,p) (6D, 7F)
 There are   215 symmetry adapted cartesian basis functions of A   symmetry.
 There are   215 symmetry adapted basis functions of A   symmetry.
   215 basis functions,   405 primitive gaussians,   215 cartesian basis functions
    50 alpha electrons       50 beta electrons
       nuclear repulsion energy       669.8097745542 Hartrees.
 NAtoms=   20 NActive=   20 NUniq=   20 SFac= 1.00D+00 NAtFMM=   60 NAOKFM=F Big=F
 Integral buffers will be    131072 words long.
 Raffenetti 2 integral format.
 Two-electron integral symmetry is turned on.
 Nuclear repulsion after empirical dispersion term =      669.7731458446 Hartrees.
 One-electron integrals computed using PRISM.
 NBasis=   215 RedAO= T EigKep=  7.49D-04  NBF=   215
 NBsUse=   215 1.00D-06 EigRej= -1.00D+00 NBFU=   215
 ExpMin= 1.43D-01 ExpMax= 5.74D+05 ExpMxC= 5.74D+03 IAcc=3 IRadAn=         5 AccDes= 0.00D+00
 Harris functional with IExCor=  402 and IRadAn=       5 diagonalized for initial guess.
 HarFok:  IExCor=  402 AccDes= 0.00D+00 IRadAn=         5 IDoV= 1 UseB2=F ITyADJ=14
 ICtDFT=  3500011 ScaDFX=  1.000000  1.000000  1.000000  1.000000
 FoFCou: FMM=F IPFlag=           0 FMFlag=      100000 FMFlg1=           0
         NFxFlg=           0 DoJE=T BraDBF=F KetDBF=T FulRan=T
         wScrn=  0.000000 ICntrl=       500 IOpCl=  0 I1Cent=   200000004 NGrid=           0
         NMat0=    1 NMatS0=      1 NMatT0=    0 NMatD0=    1 NMtDS0=    0 NMtDT0=    0
 Petite list used in FoFCou.
 Requested convergence on RMS density matrix=1.00D-08 within 128 cycles.
 Requested convergence on MAX density matrix=1.00D-06.
 Requested convergence on             energy=1.00D-06.
 No special actions if energy rises.
 Integral accuracy reduced to 1.0D-05 until final iterations.
 Initial convergence to 1.0D-05 achieved.  Increase integral accuracy.
 SCF Done:  E(RB3LYP) =  -2937.38174765     A.U. after   14 cycles
            NFock= 14  Conv=0.37D-08     -V/T= 2.0066
 DoSCS=F DFT=T ScalE2(SS,OS)=  1.000000  1.000000
 Range of M.O.s used for correlation:     1   215
 NBasis=   215 NAE=    50 NBE=    50 NFC=     0 NFV=     0
 NROrb=    215 NOA=    50 NOB=    50 NVA=   165 NVB=   165

 **** Warning!!: The largest alpha MO coefficient is  0.19681654D+02

 Symmetrizing basis deriv contribution to polar:
 IMax=3 JMax=2 DiffMx= 0.00D+00
 G2DrvN: will do    21 centers at a time, making    1 passes.
 Calling FoFCou, ICntrl=  3107 FMM=F I1Cent=   0 AccDes= 0.00D+00.
 End of G2Drv F.D. properties file   721 does not exist.
 End of G2Drv F.D. properties file   722 does not exist.
 End of G2Drv F.D. properties file   788 does not exist.
          IDoAtm=11111111111111111111
          Differentiating once with respect to nuclear coordinates.
 Keep R1 ints in memory in canonical form, NReq=286252577.
          There are    63 degrees of freedom in the 1st order CPHF.  IDoFFX=6 NUNeed=     0.
     57 vectors produced by pass  0 Test12= 1.31D-14 1.59D-09 XBig12= 1.27D-01 1.46D-01.
 AX will form    57 AO Fock derivatives at one time.
     57 vectors produced by pass  1 Test12= 1.31D-14 1.59D-09 XBig12= 3.02D-02 4.93D-02.
     57 vectors produced by pass  2 Test12= 1.31D-14 1.59D-09 XBig12= 3.96D-04 4.13D-03.
     57 vectors produced by pass  3 Test12= 1.31D-14 1.59D-09 XBig12= 1.20D-06 1.58D-04.
     57 vectors produced by pass  4 Test12= 1.31D-14 1.59D-09 XBig12= 1.76D-09 6.85D-06.
     39 vectors produced by pass  5 Test12= 1.31D-14 1.59D-09 XBig12= 2.25D-12 2.03D-07.
      7 vectors produced by pass  6 Test12= 1.31D-14 1.59D-09 XBig12= 2.94D-15 7.42D-09.
 InvSVY:  IOpt=1 It=  1 EMax= 2.78D-16
 Solved reduced A of dimension   331 with    63 vectors.
 End of Minotr F.D. properties file   721 does not exist.
 End of Minotr F.D. properties file   722 does not exist.
 End of Minotr F.D. properties file   788 does not exist.

 **********************************************************************

            Population analysis using the SCF Density.

 **********************************************************************

 Orbital symmetries:
       Occupied  (A) (A) (A) (A) (A) (A) (A) (A) (A) (A) (A) (A)
                 (A) (A) (A) (A) (A) (A) (A) (A) (A) (A) (A) (A)
                 (A) (A) (A) (A) (A) (A) (A) (A) (A) (A) (A) (A)
                 (A) (A) (A) (A) (A) (A) (A) (A) (A) (A) (A) (A)
                 (A) (A)
       Virtual   (A) (A) (A) (A) (A) (A) (A) (A) (A) (A) (A) (A)
                 (A) (A) (A) (A) (A) (A) (A) (A) (A) (A) (A) (A)
                 (A) (A) (A) (A) (A) (A) (A) (A) (A) (A) (A) (A)
                 (A) (A) (A) (A) (A) (A) (A) (A) (A) (A) (A) (A)
                 (A) (A) (A) (A) (A) (A) (A) (A) (A) (A) (A) (A)
                 (A) (A) (A) (A) (A) (A) (A) (A) (A) (A) (A) (A)
                 (A) (A) (A) (A) (A) (A) (A) (A) (A) (A) (A) (A)
                 (A) (A) (A) (A) (A) (A) (A) (A) (A) (A) (A) (A)
                 (A) (A) (A) (A) (A) (A) (A) (A) (A) (A) (A) (A)
                 (A) (A) (A) (A) (A) (A) (A) (A) (A) (A) (A) (A)
                 (A) (A) (A) (A) (A) (A) (A) (A) (A) (A) (A) (A)
                 (A) (A) (A) (A) (A) (A) (A) (A) (A) (A) (A) (A)
                 (A) (A) (A) (A) (A) (A) (A) (A) (A) (A) (A) (A)
                 (A) (A) (A) (A) (A) (A) (A) (A) (A)
 The electronic state is 1-A.
 Alpha  occ. eigenvalues -- -482.89939 -61.86187 -56.38263 -56.37885 -56.37878
 Alpha  occ. eigenvalues --  -14.33253 -10.25167 -10.22366 -10.22255 -10.21296
 Alpha  occ. eigenvalues --  -10.20924 -10.20907 -10.20831 -10.20129  -8.57334
 Alpha  occ. eigenvalues --   -6.52721  -6.51447  -6.51436  -2.64283  -2.63929
 Alpha  occ. eigenvalues --   -2.63920  -2.62904  -2.62904  -0.93128  -0.83601
 Alpha  occ. eigenvalues --   -0.80629  -0.77861  -0.74348  -0.67992  -0.63799
 Alpha  occ. eigenvalues --   -0.61831  -0.59388  -0.52338  -0.49549  -0.48439
 Alpha  occ. eigenvalues --   -0.46545  -0.43498  -0.43312  -0.41972  -0.40461
 Alpha  occ. eigenvalues --   -0.38800  -0.38758  -0.36143  -0.35531  -0.35394
 Alpha  occ. eigenvalues --   -0.28316  -0.27628  -0.27581  -0.25635  -0.25232
 Alpha virt. eigenvalues --   -0.02622  -0.01381  -0.00738   0.08519   0.09898
 Alpha virt. eigenvalues --    0.11048   0.12153   0.13106   0.13984   0.15563
 Alpha virt. eigenvalues --    0.16402   0.16920   0.17631   0.19309   0.20053
 Alpha virt. eigenvalues --    0.21859   0.23932   0.25202   0.28241   0.30948
 Alpha virt. eigenvalues --    0.32987   0.35283   0.40972   0.42988   0.43590
 Alpha virt. eigenvalues --    0.46039   0.47110   0.47518   0.47578   0.50677
 Alpha virt. eigenvalues --    0.51202   0.51241   0.52960   0.54286   0.55046
 Alpha virt. eigenvalues --    0.57126   0.58165   0.58752   0.59165   0.61180
 Alpha virt. eigenvalues --    0.61326   0.62920   0.64786   0.66075   0.66541
 Alpha virt. eigenvalues --    0.68738   0.69290   0.75909   0.75932   0.76895
 Alpha virt. eigenvalues --    0.79212   0.80848   0.81535   0.83313   0.83677
 Alpha virt. eigenvalues --    0.86801   0.87284   0.87494   0.87887   0.89713
 Alpha virt. eigenvalues --    0.91417   0.92613   0.94907   0.95771   0.99306
 Alpha virt. eigenvalues --    1.01730   1.03821   1.06885   1.10315   1.14451
 Alpha virt. eigenvalues --    1.16651   1.19164   1.24912   1.26208   1.31875
 Alpha virt. eigenvalues --    1.35002   1.35515   1.40161   1.43062   1.43093
 Alpha virt. eigenvalues --    1.45627   1.47027   1.47953   1.56517   1.60627
 Alpha virt. eigenvalues --    1.66083   1.67864   1.70367   1.71969   1.74583
 Alpha virt. eigenvalues --    1.78902   1.79906   1.81798   1.85600   1.86159
 Alpha virt. eigenvalues --    1.89860   1.93401   1.95810   1.96596   1.99083
 Alpha virt. eigenvalues --    2.01156   2.04488   2.05101   2.08410   2.08926
 Alpha virt. eigenvalues --    2.10909   2.12184   2.15008   2.18801   2.20602
 Alpha virt. eigenvalues --    2.23596   2.29227   2.30101   2.30553   2.33230
 Alpha virt. eigenvalues --    2.34219   2.37807   2.38938   2.41037   2.41479
 Alpha virt. eigenvalues --    2.45681   2.49717   2.51273   2.52765   2.53669
 Alpha virt. eigenvalues --    2.55530   2.60438   2.62118   2.64008   2.66781
 Alpha virt. eigenvalues --    2.67433   2.67950   2.71296   2.75070   2.78319
 Alpha virt. eigenvalues --    2.80904   2.83065   2.84353   2.87537   2.91937
 Alpha virt. eigenvalues --    2.98607   3.04098   3.17078   3.20308   3.23255
 Alpha virt. eigenvalues --    3.25411   3.30622   3.33200   3.37556   3.39713
 Alpha virt. eigenvalues --    3.45860   3.47211   3.54481   3.78655   4.08632
 Alpha virt. eigenvalues --    4.13895   4.18029   4.26073   4.31376   4.38494
 Alpha virt. eigenvalues --    4.47752   4.62200   4.77181   8.62037  72.89458
          Condensed to atoms (all electrons):
               1          2          3          4          5          6
     1  Br  35.011740   0.253531  -0.050179   0.004439  -0.000122   0.000001
     2  C    0.253531   4.976071   0.339349  -0.031814   0.002857  -0.000070
     3  C   -0.050179   0.339349   4.961059   0.327596  -0.026559   0.002334
     4  C    0.004439  -0.031814   0.327596   5.072849   0.324891  -0.045649
     5  C   -0.000122   0.002857  -0.026559   0.324891   4.834717   0.472748
     6  C    0.000001  -0.000070   0.002334  -0.045649   0.472748   4.820314
     7  N   -0.000000   0.000000  -0.000100   0.005293  -0.012839   0.440377
     8  C   -0.000000   0.000000  -0.000000   0.000304  -0.033331  -0.072584
     9  C   -0.000000  -0.000004  -0.000040   0.008309  -0.022325  -0.041355
    10  C    0.000001   0.000313  -0.003058  -0.066941   0.548746  -0.034948
    11  H   -0.036521   0.378457  -0.035019  -0.002268  -0.000013   0.000000
    12  H   -0.036521   0.378457  -0.035021  -0.002268  -0.000013   0.000000
    13  H    0.001179  -0.039289   0.388510  -0.035874  -0.002764   0.000100
    14  H    0.001178  -0.039285   0.388518  -0.035882  -0.002760   0.000100
    15  H   -0.000025  -0.003575  -0.036259   0.372166  -0.031753  -0.004202
    16  H   -0.000025  -0.003576  -0.036264   0.372171  -0.031761  -0.004204
    17  H   -0.000000  -0.000001   0.000007  -0.003226  -0.072329   0.390751
    18  H   -0.000000  -0.000000  -0.000000   0.000017   0.000790   0.004476
    19  H   -0.000000   0.000000   0.000003  -0.000125   0.004950   0.000539
    20  H    0.000018  -0.000098   0.005124  -0.013155  -0.045254   0.005444
               7          8          9         10         11         12
     1  Br  -0.000000  -0.000000  -0.000000   0.000001  -0.036521  -0.036521
     2  C    0.000000   0.000000  -0.000004   0.000313   0.378457   0.378457
     3  C   -0.000100  -0.000000  -0.000040  -0.003058  -0.035019  -0.035021
     4  C    0.005293   0.000304   0.008309  -0.066941  -0.002268  -0.002268
     5  C   -0.012839  -0.033331  -0.022325   0.548746  -0.000013  -0.000013
     6  C    0.440377  -0.072584  -0.041355  -0.034948   0.000000   0.000000
     7  N    6.725738   0.457836  -0.024066  -0.055153  -0.000000  -0.000000
     8  C    0.457836   4.724247   0.505850  -0.038831  -0.000000  -0.000000
     9  C   -0.024066   0.505850   4.916797   0.507886   0.000000   0.000000
    10  C   -0.055153  -0.038831   0.507886   4.878600  -0.000000  -0.000000
    11  H   -0.000000  -0.000000   0.000000  -0.000000   0.582611  -0.038634
    12  H   -0.000000  -0.000000   0.000000  -0.000000  -0.038634   0.582613
    13  H   -0.000001  -0.000006  -0.000019   0.000965   0.005425  -0.006031
    14  H   -0.000001  -0.000006  -0.000020   0.000965  -0.006029   0.005425
    15  H   -0.000002   0.000033  -0.000179   0.001614  -0.000518   0.004373
    16  H   -0.000001   0.000033  -0.000179   0.001617   0.004374  -0.000518
    17  H   -0.049375   0.004876   0.000311   0.004026   0.000001   0.000001
    18  H   -0.050144   0.388160  -0.061466   0.003354   0.000000   0.000000
    19  H    0.004853  -0.035709   0.358602  -0.038755   0.000000   0.000000
    20  H   -0.000239   0.004873  -0.046351   0.375788   0.000004   0.000005
              13         14         15         16         17         18
     1  Br   0.001179   0.001178  -0.000025  -0.000025  -0.000000  -0.000000
     2  C   -0.039289  -0.039285  -0.003575  -0.003576  -0.000001  -0.000000
     3  C    0.388510   0.388518  -0.036259  -0.036264   0.000007  -0.000000
     4  C   -0.035874  -0.035882   0.372166   0.372171  -0.003226   0.000017
     5  C   -0.002764  -0.002760  -0.031753  -0.031761  -0.072329   0.000790
     6  C    0.000100   0.000100  -0.004202  -0.004204   0.390751   0.004476
     7  N   -0.000001  -0.000001  -0.000002  -0.000001  -0.049375  -0.050144
     8  C   -0.000006  -0.000006   0.000033   0.000033   0.004876   0.388160
     9  C   -0.000019  -0.000020  -0.000179  -0.000179   0.000311  -0.061466
    10  C    0.000965   0.000965   0.001614   0.001617   0.004026   0.003354
    11  H    0.005425  -0.006029  -0.000518   0.004374   0.000001   0.000000
    12  H   -0.006031   0.005425   0.004373  -0.000518   0.000001   0.000000
    13  H    0.600769  -0.040028  -0.006238   0.005663   0.000004  -0.000000
    14  H   -0.040028   0.600749   0.005663  -0.006237   0.000004  -0.000000
    15  H   -0.006238   0.005663   0.613436  -0.037435   0.002460  -0.000000
    16  H    0.005663  -0.006237  -0.037435   0.613451   0.002463  -0.000000
    17  H    0.000004   0.000004   0.002460   0.002463   0.623402  -0.000197
    18  H   -0.000000  -0.000000  -0.000000  -0.000000  -0.000197   0.615813
    19  H    0.000002   0.000002   0.000003   0.000003   0.000027  -0.002275
    20  H    0.001841   0.001840   0.000191   0.000191  -0.000166  -0.000191
              19         20
     1  Br  -0.000000   0.000018
     2  C    0.000000  -0.000098
     3  C    0.000003   0.005124
     4  C   -0.000125  -0.013155
     5  C    0.004950  -0.045254
     6  C    0.000539   0.005444
     7  N    0.004853  -0.000239
     8  C   -0.035709   0.004873
     9  C    0.358602  -0.046351
    10  C   -0.038755   0.375788
    11  H    0.000000   0.000004
    12  H    0.000000   0.000005
    13  H    0.000002   0.001841
    14  H    0.000002   0.001840
    15  H    0.000003   0.000191
    16  H    0.000003   0.000191
    17  H    0.000027  -0.000166
    18  H   -0.002275  -0.000191
    19  H    0.620978  -0.006550
    20  H   -0.006550   0.618342
 Mulliken charges:
               1
     1  Br  -0.148694
     2  C   -0.211323
     3  C   -0.190003
     4  C   -0.250832
     5  C    0.092124
     6  C    0.065826
     7  N   -0.442176
     8  C    0.094254
     9  C   -0.101751
    10  C   -0.086186
    11  H    0.148130
    12  H    0.148132
    13  H    0.125793
    14  H    0.125804
    15  H    0.120246
    16  H    0.120235
    17  H    0.096962
    18  H    0.101663
    19  H    0.093454
    20  H    0.098342
 Sum of Mulliken charges =  -0.00000
 Mulliken charges with hydrogens summed into heavy atoms:
               1
     1  Br  -0.148694
     2  C    0.084939
     3  C    0.061594
     4  C   -0.010350
     5  C    0.092124
     6  C    0.162788
     7  N   -0.442176
     8  C    0.195917
     9  C   -0.008298
    10  C    0.012156
 APT charges:
               1
     1  Br  -0.055461
     2  C   -0.917378
     3  C   -0.537671
     4  C   -0.799091
     5  C   -0.609056
     6  C   -0.423972
     7  N    0.168056
     8  C   -0.377491
     9  C   -0.449843
    10  C   -0.515732
    11  H    0.459963
    12  H    0.459958
    13  H    0.294890
    14  H    0.294862
    15  H    0.391379
    16  H    0.391329
    17  H    0.493315
    18  H    1.008133
    19  H    0.587720
    20  H    0.136090
 Sum of APT charges =  -0.00000
 APT charges with hydrogens summed into heavy atoms:
               1
     1  Br  -0.055461
     2  C    0.002542
     3  C    0.052082
     4  C   -0.016383
     5  C   -0.609056
     6  C    0.069343
     7  N    0.168056
     8  C    0.630642
     9  C    0.137877
    10  C   -0.379642
 Electronic spatial extent (au):  <R**2>=           3854.4015
 Charge=             -0.0000 electrons
 Dipole moment (field-independent basis, Debye):
    X=             -0.3079    Y=              0.0267    Z=              0.0005  Tot=              0.3090
 Quadrupole moment (field-independent basis, Debye-Ang):
   XX=            -90.2974   YY=            -66.0475   ZZ=            -73.1423
   XY=             -8.8173   XZ=              0.0006   YZ=              0.0002
 Traceless Quadrupole moment (field-independent basis, Debye-Ang):
   XX=            -13.8016   YY=             10.4483   ZZ=              3.3534
   XY=             -8.8173   XZ=              0.0006   YZ=              0.0002
 Octapole moment (field-independent basis, Debye-Ang**2):
  XXX=           -138.9949  YYY=             -9.6258  ZZZ=             -0.0018  XYY=            -31.5595
  XXY=            -42.9180  XXZ=              0.0030  XZZ=            -41.9148  YZZ=              0.1244
  YYZ=             -0.0004  XYZ=              0.0005
 Hexadecapole moment (field-independent basis, Debye-Ang**3):
 XXXX=          -4310.9423 YYYY=           -419.3674 ZZZZ=            -95.7950 XXXY=           -159.4111
 XXXZ=              0.0273 YYYX=             20.2535 YYYZ=             -0.0027 ZZZX=              0.0068
 ZZZY=              0.0030 XXYY=           -703.4326 XXZZ=           -707.9018 YYZZ=            -91.2460
 XXYZ=              0.0118 YYXZ=              0.0048 ZZXY=             12.6911
 N-N= 6.697731458446D+02 E-N=-8.319980821447D+03  KE= 2.917996455430D+03
  Exact polarizability:       0.000       0.000       0.000       0.000       0.000       0.000
 Approx polarizability:     196.988       7.901     184.811      -0.008      -0.006      90.829
 Calling FoFJK, ICntrl=    100127 FMM=F ISym2X=0 I1Cent= 0 IOpClX= 0 NMat=1 NMatS=1 NMatT=0.
 ***** Axes restored to original set *****
 -------------------------------------------------------------------
 Center     Atomic                   Forces (Hartrees/Bohr)
 Number     Number              X              Y              Z
 -------------------------------------------------------------------
      1       35          -0.001341997    0.003902228    0.005553793
      2        6          -0.010725908   -0.002714581    0.001436173
      3        6          -0.000719885    0.003138499    0.004257469
      4        6          -0.001954577   -0.004038109   -0.004207744
      5        6           0.007889137   -0.001910068   -0.005997020
      6        6          -0.023169560   -0.015581277   -0.009248000
      7        7           0.009266901   -0.002376395   -0.007212534
      8        6           0.014498678    0.011582238    0.008102168
      9        6           0.002028183    0.005093329    0.005524262
     10        6          -0.004413357    0.002844535    0.005620839
     11        1           0.002352714   -0.002539524   -0.002320535
     12        1           0.001721233   -0.000761100   -0.003718450
     13        1          -0.000344589    0.000473144   -0.002182516
     14        1           0.000609908   -0.002205268   -0.000090551
     15        1           0.001285765    0.004139431    0.000404282
     16        1           0.002653693    0.000307399    0.003425623
     17        1           0.002074687    0.003544913    0.003555092
     18        1          -0.004187817   -0.000781697    0.000908823
     19        1          -0.001538424   -0.002241957   -0.002140688
     20        1           0.004015216    0.000124260   -0.001670486
 -------------------------------------------------------------------
 Cartesian Forces:  Max     0.023169560 RMS     0.005832723
 FormGI is forming the generalized inverse of G from B-inverse, IUseBI=4.

 GradGradGradGradGradGradGradGradGradGradGradGradGradGradGradGradGradGrad
 Berny optimization.
 Internal  Forces:  Max     0.018881654 RMS     0.003739472
 Search for a local minimum.
 Step number   1 out of a maximum of  108
 All quantities printed in internal units (Hartrees-Bohrs-Radians)
 Mixed Optimization -- RFO/linear search
 Second derivative matrix not updated -- analytic derivatives used.
 ITU=  0
     Eigenvalues ---   -0.00015   0.00297   0.00355   0.01501   0.01648
     Eigenvalues ---    0.01976   0.02370   0.02752   0.02956   0.03287
     Eigenvalues ---    0.03404   0.03754   0.03868   0.03995   0.04153
     Eigenvalues ---    0.04312   0.05223   0.07070   0.08362   0.09971
     Eigenvalues ---    0.11004   0.11872   0.11998   0.12856   0.13023
     Eigenvalues ---    0.13219   0.15226   0.15418   0.16686   0.18230
     Eigenvalues ---    0.19224   0.20616   0.21617   0.21921   0.23241
     Eigenvalues ---    0.26714   0.27123   0.28701   0.31313   0.33769
     Eigenvalues ---    0.34155   0.34492   0.34664   0.34837   0.35006
     Eigenvalues ---    0.36652   0.36807   0.37289   0.37803   0.41730
     Eigenvalues ---    0.42107   0.46916   0.47414   0.51960
 RFO step:  Lambda=-4.36279205D-03 EMin=-1.50341071D-04
 Linear search not attempted -- first point.
 Iteration  1 RMS(Cart)=  0.10815510 RMS(Int)=  0.02303707
 Iteration  2 RMS(Cart)=  0.05210209 RMS(Int)=  0.00094310
 Iteration  3 RMS(Cart)=  0.00137158 RMS(Int)=  0.00006864
 Iteration  4 RMS(Cart)=  0.00000084 RMS(Int)=  0.00006864
 Variable       Old X    -DE/DX   Delta X   Delta X   Delta X     New X
                                 (Linear)    (Quad)   (Total)
    R1        3.75943  -0.00631   0.00000  -0.02594  -0.02594   3.73348
    R2        2.90112  -0.00812   0.00000  -0.03266  -0.03266   2.86846
    R3        2.06184  -0.00039   0.00000  -0.00178  -0.00178   2.06006
    R4        2.06182  -0.00039   0.00000  -0.00161  -0.00161   2.06021
    R5        2.91682  -0.00702   0.00000  -0.02191  -0.02191   2.89491
    R6        2.06263   0.00220   0.00000   0.00609   0.00609   2.06872
    R7        2.06254   0.00223   0.00000   0.00709   0.00709   2.06963
    R8        2.88824  -0.00612   0.00000  -0.02526  -0.02526   2.86298
    R9        2.06291   0.00404   0.00000   0.01364   0.01364   2.07655
   R10        2.06294   0.00403   0.00000   0.01085   0.01085   2.07379
   R11        2.64586  -0.00049   0.00000   0.00627   0.00631   2.65217
   R12        2.65214  -0.00871   0.00000  -0.01501  -0.01498   2.63716
   R13        2.56465  -0.01888   0.00000  -0.04672  -0.04671   2.51795
   R14        2.04177   0.00540   0.00000   0.01774   0.01774   2.05950
   R15        2.56238  -0.01666   0.00000  -0.03029  -0.03032   2.53206
   R16        2.63684  -0.00228   0.00000  -0.00662  -0.00666   2.63017
   R17        2.04246   0.00429   0.00000   0.01280   0.01280   2.05526
   R18        2.63901  -0.00346   0.00000  -0.00249  -0.00250   2.63651
   R19        2.04136   0.00344   0.00000   0.00903   0.00903   2.05039
   R20        2.04016   0.00356   0.00000   0.00937   0.00937   2.04953
    A1        1.90436   0.00595   0.00000   0.03408   0.03406   1.93842
    A2        1.87886  -0.00446   0.00000  -0.03752  -0.03754   1.84133
    A3        1.87886  -0.00446   0.00000  -0.03797  -0.03799   1.84087
    A4        1.95389   0.00086   0.00000   0.00882   0.00864   1.96254
    A5        1.95384   0.00087   0.00000   0.00896   0.00878   1.96262
    A6        1.89107   0.00076   0.00000   0.01958   0.01929   1.91036
    A7        1.96910  -0.00601   0.00000  -0.03271  -0.03270   1.93640
    A8        1.89864   0.00152   0.00000   0.00061   0.00064   1.89928
    A9        1.89871   0.00151   0.00000   0.01120   0.01123   1.90994
   A10        1.91502   0.00208   0.00000   0.01295   0.01280   1.92782
   A11        1.91499   0.00208   0.00000   0.00820   0.00820   1.92320
   A12        1.86433  -0.00093   0.00000   0.00147   0.00135   1.86568
   A13        2.02925  -0.00606   0.00000  -0.01802  -0.01797   2.01128
   A14        1.90681   0.00111   0.00000  -0.00460  -0.00451   1.90230
   A15        1.90674   0.00111   0.00000   0.00200   0.00207   1.90881
   A16        1.87809   0.00275   0.00000   0.02069   0.02063   1.89873
   A17        1.87807   0.00275   0.00000   0.01416   0.01413   1.89220
   A18        1.85728  -0.00133   0.00000  -0.01401  -0.01415   1.84313
   A19        2.07811   0.00157   0.00000   0.00342   0.00335   2.08146
   A20        2.15277   0.00147   0.00000   0.01148   0.01141   2.16418
   A21        2.05231  -0.00304   0.00000  -0.01490  -0.01485   2.03746
   A22        2.15382   0.00680   0.00000   0.02499   0.02504   2.17886
   A23        2.11060  -0.00404   0.00000  -0.02907  -0.02910   2.08150
   A24        2.01877  -0.00277   0.00000   0.00409   0.00406   2.02283
   A25        2.05676  -0.00268   0.00000  -0.01062  -0.01065   2.04611
   A26        2.14299   0.00288   0.00000   0.00617   0.00609   2.14908
   A27        2.02919  -0.00224   0.00000  -0.00037  -0.00034   2.02885
   A28        2.11100  -0.00064   0.00000  -0.00579  -0.00576   2.10525
   A29        2.07003  -0.00016   0.00000   0.00227   0.00222   2.07225
   A30        2.10753  -0.00032   0.00000  -0.00576  -0.00574   2.10179
   A31        2.10563   0.00048   0.00000   0.00349   0.00351   2.10914
   A32        2.09046  -0.00380   0.00000  -0.00791  -0.00789   2.08257
   A33        2.12052  -0.00066   0.00000  -0.01134  -0.01135   2.10917
   A34        2.07221   0.00445   0.00000   0.01925   0.01923   2.09144
    D1       -3.14159  -0.00000   0.00000   0.01709   0.01704  -3.12455
    D2       -1.01238  -0.00027   0.00000   0.01227   0.01231  -1.00007
    D3        1.01237   0.00027   0.00000   0.02045   0.02046   1.03283
    D4        1.06371   0.00112   0.00000   0.03602   0.03603   1.09974
    D5       -3.09027   0.00085   0.00000   0.03120   0.03131  -3.05896
    D6       -1.06551   0.00139   0.00000   0.03937   0.03946  -1.02606
    D7       -1.06374  -0.00112   0.00000  -0.00232  -0.00244  -1.06618
    D8        1.06547  -0.00139   0.00000  -0.00714  -0.00716   1.05831
    D9        3.09022  -0.00085   0.00000   0.00104   0.00099   3.09121
   D10       -3.14151   0.00000   0.00000   0.07215   0.07214  -3.06937
   D11        1.01268  -0.00018   0.00000   0.06135   0.06130   1.07397
   D12       -1.01260   0.00018   0.00000   0.07958   0.07955  -0.93304
   D13        1.02172   0.00065   0.00000   0.08432   0.08440   1.10611
   D14       -1.10728   0.00047   0.00000   0.07351   0.07356  -1.03373
   D15       -3.13256   0.00083   0.00000   0.09175   0.09181  -3.04074
   D16       -1.02148  -0.00065   0.00000   0.07015   0.07014  -0.95134
   D17        3.13271  -0.00083   0.00000   0.05934   0.05930  -3.09118
   D18        1.10744  -0.00048   0.00000   0.07758   0.07755   1.18499
   D19        3.14128   0.00000   0.00000  -0.28197  -0.28188   2.85940
   D20       -0.00029   0.00000   0.00000  -0.29689  -0.29693  -0.29722
   D21       -0.99784  -0.00058   0.00000  -0.28417  -0.28421  -1.28204
   D22        2.14378  -0.00058   0.00000  -0.29909  -0.29926   1.84452
   D23        0.99732   0.00058   0.00000  -0.28327  -0.28312   0.71420
   D24       -2.14425   0.00058   0.00000  -0.29819  -0.29817  -2.44242
   D25        3.14153   0.00000   0.00000  -0.02406  -0.02407   3.11747
   D26        0.00004  -0.00000   0.00000  -0.02633  -0.02627  -0.02623
   D27       -0.00008   0.00000   0.00000  -0.00999  -0.01009  -0.01018
   D28       -3.14158  -0.00000   0.00000  -0.01226  -0.01230   3.12931
   D29        3.14157   0.00000   0.00000   0.02162   0.02157  -3.12005
   D30        0.00005  -0.00000   0.00000   0.02581   0.02571   0.02577
   D31        0.00000  -0.00000   0.00000   0.00691   0.00686   0.00686
   D32       -3.14151  -0.00000   0.00000   0.01110   0.01101  -3.13050
   D33        0.00009  -0.00000   0.00000   0.00514   0.00519   0.00528
   D34        3.14159   0.00000   0.00000   0.00729   0.00732  -3.13427
   D35       -0.00002   0.00000   0.00000   0.00290   0.00297   0.00295
   D36        3.14154   0.00000   0.00000  -0.00116  -0.00116   3.14038
   D37       -0.00006   0.00000   0.00000  -0.00558  -0.00561  -0.00568
   D38       -3.14158  -0.00000   0.00000  -0.00781  -0.00789   3.13371
   D39        3.14157   0.00000   0.00000  -0.00133  -0.00131   3.14026
   D40        0.00005  -0.00000   0.00000  -0.00357  -0.00359  -0.00354
   D41        0.00007  -0.00000   0.00000   0.00037   0.00029   0.00035
   D42        3.14158  -0.00000   0.00000  -0.00370  -0.00382   3.13777
   D43        3.14159  -0.00000   0.00000   0.00260   0.00257  -3.13902
   D44       -0.00008   0.00000   0.00000  -0.00147  -0.00153  -0.00161
         Item               Value     Threshold  Converged?
 Maximum Force            0.018882     0.000450     NO 
 RMS     Force            0.003739     0.000300     NO 
 Maximum Displacement     0.534546     0.001800     NO 
 RMS     Displacement     0.156116     0.001200     NO 
 Predicted change in Energy=-2.267651D-03
 GradGradGradGradGradGradGradGradGradGradGradGradGradGradGradGradGradGrad

                          Input orientation:                          
 ---------------------------------------------------------------------
 Center     Atomic      Atomic             Coordinates (Angstroms)
 Number     Number       Type             X           Y           Z
 ---------------------------------------------------------------------
      1         35           0        5.685484   -1.949157   -0.557151
      2          6           0        4.429717   -1.116874    0.720990
      3          6           0        3.042909   -1.721038    0.595136
      4          6           0        2.065733   -1.057175    1.570428
      5          6           0        0.673325   -1.653696    1.596026
      6          6           0       -0.179690   -1.358612    2.670743
      7          7           0       -1.431041   -1.799794    2.792702
      8          6           0       -1.901332   -2.587660    1.816255
      9          6           0       -1.146703   -2.956443    0.706427
     10          6           0        0.160361   -2.481097    0.596141
     11          1           0        4.866650   -1.279391    1.706421
     12          1           0        4.442348   -0.051623    0.489364
     13          1           0        2.696601   -1.598603   -0.436122
     14          1           0        3.095807   -2.797930    0.787407
     15          1           0        1.988460    0.011648    1.327230
     16          1           0        2.479801   -1.099673    2.585826
     17          1           0        0.182897   -0.725524    3.480365
     18          1           0       -2.923855   -2.939461    1.932636
     19          1           0       -1.569612   -3.603105   -0.055311
     20          1           0        0.765538   -2.760191   -0.259515
 ---------------------------------------------------------------------
                    Distance matrix (angstroms):
                    1          2          3          4          5
     1  Br   0.000000
     2  C    1.975675   0.000000
     3  C    2.891887   1.517924   0.000000
     4  C    4.292415   2.512674   1.531921   0.000000
     5  C    5.463077   3.894143   2.573178   1.515022   0.000000
     6  C    6.720737   5.010649   3.850277   2.518626   1.403468
     7  N    7.866940   6.253547   4.985150   3.777944   2.425228
     8  C    7.974993   6.591282   5.166012   4.259157   2.747662
     9  C    7.020686   5.872026   4.369377   3.830595   2.408534
    10  C    5.669217   4.483759   2.981069   2.570453   1.395527
    11  H    2.498566   1.090135   2.180834   2.813008   4.211445
    12  H    2.498242   1.090215   2.180955   2.797881   4.242273
    13  H    3.011803   2.138846   1.094720   2.171954   2.868154
    14  H    3.038862   2.147016   1.095199   2.168963   2.798492
    15  H    4.589514   2.756959   2.156391   1.098862   2.138972
    16  H    4.569063   2.698163   2.160100   1.097402   2.133073
    17  H    6.933778   5.079644   4.182733   2.702391   2.157024
    18  H    9.016677   7.672349   6.235041   5.345108   3.834867
    19  H    7.458137   6.540332   5.024003   4.726576   3.399687
    20  H    4.995221   4.133774   2.645124   2.817705   2.162375
                    6          7          8          9         10
     6  C    0.000000
     7  N    1.332440   0.000000
     8  C    2.281395   1.339909   0.000000
     9  C    2.710482   2.402338   1.391827   0.000000
    10  C    2.383187   2.796715   2.398043   1.395182   0.000000
    11  H    5.138262   6.411843   6.894143   6.322413   4.982567
    12  H    5.275402   6.546615   6.959483   6.302586   4.924343
    13  H    4.240666   5.244350   5.214635   4.233218   2.876956
    14  H    4.043200   5.050726   5.106284   4.246242   2.958683
    15  H    2.895429   4.137863   4.703831   4.361675   3.176509
    16  H    2.673415   3.978397   4.690487   4.486788   3.353652
    17  H    1.089843   2.057117   3.252818   3.799943   3.376580
    18  H    3.251819   2.065684   1.087595   2.159201   3.392449
    19  H    3.794865   3.373768   2.154977   1.085020   2.162429
    20  H    3.382941   3.881153   3.383901   2.151331   1.084564
                   11         12         13         14         15
    11  H    0.000000
    12  H    1.780077   0.000000
    13  H    3.066186   2.509443   0.000000
    14  H    2.507276   3.073142   1.759196   0.000000
    15  H    3.177191   2.593760   2.490739   3.067792   0.000000
    16  H    2.550040   3.056985   3.070522   2.549088   1.749432
    17  H    5.038967   5.248157   4.734959   4.475704   2.905076
    18  H    7.968625   8.042611   6.244874   6.129267   5.762499
    19  H    7.066032   7.003810   4.729019   4.808805   5.257160
    20  H    4.782969   4.627752   2.260416   2.554921   3.419998
                   16         17         18         19         20
    16  H    0.000000
    17  H    2.493181   0.000000
    18  H    5.745518   4.116903   0.000000
    19  H    5.444311   4.883929   2.495262   0.000000
    20  H    3.713756   4.297213   4.295264   2.491010   0.000000
 Stoichiometry    C8H10BrN
 Framework group  C1[X(C8H10BrN)]
 Deg. of freedom    54
 Full point group                 C1      NOp   1
 Largest Abelian subgroup         C1      NOp   1
 Largest concise Abelian subgroup C1      NOp   1
                         Standard orientation:                         
 ---------------------------------------------------------------------
 Center     Atomic      Atomic             Coordinates (Angstroms)
 Number     Number       Type             X           Y           Z
 ---------------------------------------------------------------------
      1         35           0       -3.444379   -0.288598   -0.074394
      2          6           0       -1.882350    0.906881    0.110499
      3          6           0       -0.584785    0.120824    0.060167
      4          6           0        0.623648    1.047281    0.227938
      5          6           0        1.975444    0.376289    0.094862
      6          6           0        3.116698    1.167199   -0.109407
      7          7           0        4.359216    0.697744   -0.215027
      8          6           0        4.523190   -0.628997   -0.124321
      9          6           0        3.466945   -1.514678    0.068289
     10          6           0        2.173979   -1.002443    0.179584
     11          1           0       -1.966301    1.624308   -0.705985
     12          1           0       -2.020801    1.421386    1.061648
     13          1           0       -0.599409   -0.635942    0.851054
     14          1           0       -0.520469   -0.415597   -0.892502
     15          1           0        0.566155    1.535684    1.210615
     16          1           0        0.565287    1.858547   -0.508766
     17          1           0        3.007539    2.248302   -0.193410
     18          1           0        5.543523   -0.994729   -0.213889
     19          1           0        3.649308   -2.582587    0.128146
     20          1           0        1.337313   -1.676769    0.326395
 ---------------------------------------------------------------------
 Rotational constants (GHZ):           3.7926707           0.2621072           0.2470515
 Standard basis: 6-31G(d,p) (6D, 7F)
 There are   215 symmetry adapted cartesian basis functions of A   symmetry.
 There are   215 symmetry adapted basis functions of A   symmetry.
   215 basis functions,   405 primitive gaussians,   215 cartesian basis functions
    50 alpha electrons       50 beta electrons
       nuclear repulsion energy       672.9966714955 Hartrees.
 NAtoms=   20 NActive=   20 NUniq=   20 SFac= 1.00D+00 NAtFMM=   60 NAOKFM=F Big=F
 Integral buffers will be    131072 words long.
 Raffenetti 2 integral format.
 Two-electron integral symmetry is turned on.
 Nuclear repulsion after empirical dispersion term =      672.9598806867 Hartrees.
 One-electron integrals computed using PRISM.
 NBasis=   215 RedAO= T EigKep=  7.29D-04  NBF=   215
 NBsUse=   215 1.00D-06 EigRej= -1.00D+00 NBFU=   215
 Initial guess from the checkpoint file:  "pyrd10_conf-10.chk"
 B after Tr=    -0.000000   -0.000000    0.000000
         Rot=    0.999944   -0.010485    0.000019   -0.001526 Ang=  -1.21 deg.
 ExpMin= 1.43D-01 ExpMax= 5.74D+05 ExpMxC= 5.74D+03 IAcc=3 IRadAn=         5 AccDes= 0.00D+00
 Harris functional with IExCor=  402 and IRadAn=       5 diagonalized for initial guess.
 HarFok:  IExCor=  402 AccDes= 0.00D+00 IRadAn=         5 IDoV= 1 UseB2=F ITyADJ=14
 ICtDFT=  3500011 ScaDFX=  1.000000  1.000000  1.000000  1.000000
 FoFCou: FMM=F IPFlag=           0 FMFlag=      100000 FMFlg1=           0
         NFxFlg=           0 DoJE=T BraDBF=F KetDBF=T FulRan=T
         wScrn=  0.000000 ICntrl=       500 IOpCl=  0 I1Cent=   200000004 NGrid=           0
         NMat0=    1 NMatS0=      1 NMatT0=    0 NMatD0=    1 NMtDS0=    0 NMtDT0=    0
 Petite list used in FoFCou.
 Requested convergence on RMS density matrix=1.00D-08 within 128 cycles.
 Requested convergence on MAX density matrix=1.00D-06.
 Requested convergence on             energy=1.00D-06.
 No special actions if energy rises.
 Integral accuracy reduced to 1.0D-05 until final iterations.
 Initial convergence to 1.0D-05 achieved.  Increase integral accuracy.
 SCF Done:  E(RB3LYP) =  -2937.38395724     A.U. after   14 cycles
            NFock= 14  Conv=0.81D-08     -V/T= 2.0066
 Calling FoFJK, ICntrl=      2127 FMM=F ISym2X=0 I1Cent= 0 IOpClX= 0 NMat=1 NMatS=1 NMatT=0.
 ***** Axes restored to original set *****
 -------------------------------------------------------------------
 Center     Atomic                   Forces (Hartrees/Bohr)
 Number     Number              X              Y              Z
 -------------------------------------------------------------------
      1       35           0.000258175   -0.000089014   -0.000186069
      2        6           0.000022166    0.000344953    0.000384037
      3        6          -0.000130888   -0.000687279   -0.000493787
      4        6          -0.000749646    0.000178798    0.000316305
      5        6           0.000237194    0.000532411    0.000645807
      6        6           0.001440577    0.000360233   -0.000428399
      7        7          -0.001439164   -0.000425497    0.000506042
      8        6          -0.000230690   -0.000194318   -0.000111794
      9        6           0.000449550    0.000017914   -0.000160578
     10        6          -0.000392095   -0.000277244   -0.000153398
     11        1           0.000094079   -0.000112927   -0.000072831
     12        1           0.000050081   -0.000026553   -0.000133481
     13        1           0.000015434   -0.000079244   -0.000023929
     14        1           0.000064173    0.000068498   -0.000012765
     15        1           0.000106544    0.000124507    0.000002745
     16        1           0.000038640    0.000067268    0.000086635
     17        1           0.000160276    0.000196092    0.000144538
     18        1          -0.000180534   -0.000051672   -0.000019525
     19        1          -0.000054385   -0.000037521   -0.000057735
     20        1           0.000240512    0.000090595   -0.000231817
 -------------------------------------------------------------------
 Cartesian Forces:  Max     0.001440577 RMS     0.000374065

 GradGradGradGradGradGradGradGradGradGradGradGradGradGradGradGradGradGrad
 Berny optimization.
 Using GEDIIS/GDIIS optimizer.
 FormGI is forming the generalized inverse of G from B-inverse, IUseBI=4.
 Internal  Forces:  Max     0.001733270 RMS     0.000265960
 Search for a local minimum.
 Step number   2 out of a maximum of  108
 All quantities printed in internal units (Hartrees-Bohrs-Radians)
 Mixed Optimization -- En-DIIS/RFO-DIIS
 Update second derivatives using D2CorX and points    1    2
 DE= -2.21D-03 DEPred=-2.27D-03 R= 9.74D-01
 TightC=F SS=  1.41D+00  RLast= 7.63D-01 DXNew= 5.0454D-01 2.2899D+00
 Trust test= 9.74D-01 RLast= 7.63D-01 DXMaxT set to 5.05D-01
 ITU=  1  0
 Use linear search instead of GDIIS.
     Eigenvalues ---   -0.00015   0.00297   0.00355   0.01501   0.01648
     Eigenvalues ---    0.01976   0.02370   0.02751   0.02956   0.03287
     Eigenvalues ---    0.03403   0.03753   0.03869   0.03995   0.04145
     Eigenvalues ---    0.04317   0.05223   0.07067   0.08345   0.09969
     Eigenvalues ---    0.10994   0.11871   0.12011   0.12870   0.13049
     Eigenvalues ---    0.13218   0.15223   0.15417   0.16759   0.18323
     Eigenvalues ---    0.19251   0.20587   0.21586   0.21825   0.23253
     Eigenvalues ---    0.26833   0.27139   0.28962   0.31198   0.33769
     Eigenvalues ---    0.34155   0.34492   0.34631   0.34821   0.35006
     Eigenvalues ---    0.36684   0.36777   0.37253   0.37709   0.41911
     Eigenvalues ---    0.42464   0.46924   0.47371   0.53082
 RFO step:  Lambda=-2.29920020D-04 EMin=-1.49698128D-04
 Quartic linear search produced a step of  0.00017.
 Iteration  1 RMS(Cart)=  0.10571772 RMS(Int)=  0.04766891
 Iteration  2 RMS(Cart)=  0.10889703 RMS(Int)=  0.00401086
 Iteration  3 RMS(Cart)=  0.00580907 RMS(Int)=  0.00001101
 Iteration  4 RMS(Cart)=  0.00001477 RMS(Int)=  0.00000928
 Iteration  5 RMS(Cart)=  0.00000000 RMS(Int)=  0.00000928
 Variable       Old X    -DE/DX   Delta X   Delta X   Delta X     New X
                                 (Linear)    (Quad)   (Total)
    R1        3.73348   0.00032  -0.00000   0.00270   0.00269   3.73618
    R2        2.86846   0.00043  -0.00001   0.00096   0.00096   2.86942
    R3        2.06006  -0.00001  -0.00000  -0.00030  -0.00030   2.05976
    R4        2.06021   0.00000  -0.00000  -0.00005  -0.00005   2.06015
    R5        2.89491   0.00083  -0.00000   0.00320   0.00319   2.89810
    R6        2.06872   0.00001   0.00000  -0.00068  -0.00068   2.06804
    R7        2.06963  -0.00007   0.00000   0.00037   0.00037   2.06999
    R8        2.86298  -0.00029  -0.00000  -0.00099  -0.00100   2.86198
    R9        2.07655   0.00011   0.00000   0.00224   0.00225   2.07879
   R10        2.07379   0.00009   0.00000  -0.00159  -0.00159   2.07220
   R11        2.65217  -0.00015   0.00000  -0.00131  -0.00131   2.65086
   R12        2.63716   0.00037  -0.00000   0.00167   0.00167   2.63883
   R13        2.51795   0.00173  -0.00001   0.00420   0.00419   2.52213
   R14        2.05950   0.00027   0.00000   0.00067   0.00068   2.06018
   R15        2.53206   0.00048  -0.00001  -0.00012  -0.00013   2.53193
   R16        2.63017   0.00034  -0.00000   0.00120   0.00120   2.63137
   R17        2.05526   0.00018   0.00000   0.00059   0.00059   2.05584
   R18        2.63651  -0.00012  -0.00000  -0.00131  -0.00131   2.63520
   R19        2.05039   0.00008   0.00000   0.00030   0.00031   2.05070
   R20        2.04953   0.00029   0.00000   0.00063   0.00064   2.05017
    A1        1.93842   0.00014   0.00001  -0.00004  -0.00004   1.93839
    A2        1.84133  -0.00013  -0.00001  -0.00174  -0.00174   1.83958
    A3        1.84087  -0.00012  -0.00001  -0.00228  -0.00229   1.83859
    A4        1.96254   0.00004   0.00000   0.00097   0.00097   1.96351
    A5        1.96262   0.00001   0.00000   0.00077   0.00077   1.96339
    A6        1.91036   0.00004   0.00000   0.00198   0.00198   1.91234
    A7        1.93640   0.00011  -0.00001   0.00007   0.00006   1.93646
    A8        1.89928  -0.00004   0.00000  -0.00748  -0.00747   1.89181
    A9        1.90994  -0.00007   0.00000   0.00671   0.00672   1.91666
   A10        1.92782  -0.00000   0.00000   0.00364   0.00363   1.93145
   A11        1.92320  -0.00000   0.00000  -0.00329  -0.00329   1.91991
   A12        1.86568   0.00000   0.00000   0.00036   0.00038   1.86606
   A13        2.01128  -0.00066  -0.00000  -0.00249  -0.00249   2.00879
   A14        1.90230   0.00018  -0.00000  -0.00413  -0.00412   1.89817
   A15        1.90881   0.00014   0.00000   0.00364   0.00364   1.91244
   A16        1.89873   0.00026   0.00000   0.00708   0.00708   1.90581
   A17        1.89220   0.00023   0.00000  -0.00347  -0.00347   1.88873
   A18        1.84313  -0.00012  -0.00000  -0.00044  -0.00044   1.84269
   A19        2.08146   0.00066   0.00000   0.00307   0.00303   2.08449
   A20        2.16418  -0.00076   0.00000  -0.00322  -0.00326   2.16092
   A21        2.03746   0.00010  -0.00000  -0.00005  -0.00009   2.03737
   A22        2.17886  -0.00020   0.00000  -0.00012  -0.00012   2.17874
   A23        2.08150   0.00001  -0.00000   0.00027   0.00026   2.08176
   A24        2.02283   0.00020   0.00000  -0.00015  -0.00016   2.02267
   A25        2.04611  -0.00018  -0.00000  -0.00081  -0.00082   2.04529
   A26        2.14908  -0.00005   0.00000   0.00032   0.00031   2.14939
   A27        2.02885   0.00006  -0.00000   0.00007   0.00007   2.02892
   A28        2.10525  -0.00000  -0.00000  -0.00041  -0.00041   2.10484
   A29        2.07225   0.00014   0.00000   0.00012   0.00012   2.07237
   A30        2.10179  -0.00009  -0.00000  -0.00055  -0.00055   2.10125
   A31        2.10914  -0.00005   0.00000   0.00042   0.00042   2.10956
   A32        2.08257   0.00021  -0.00000   0.00043   0.00043   2.08301
   A33        2.10917  -0.00025  -0.00000  -0.00143  -0.00143   2.10773
   A34        2.09144   0.00005   0.00000   0.00098   0.00098   2.09242
    D1       -3.12455   0.00000   0.00000   0.02253   0.02254  -3.10202
    D2       -1.00007   0.00004   0.00000   0.02217   0.02218  -0.97789
    D3        1.03283  -0.00002   0.00000   0.02212   0.02212   1.05495
    D4        1.09974   0.00005   0.00001   0.02412   0.02413   1.12387
    D5       -3.05896   0.00009   0.00001   0.02376   0.02377  -3.03519
    D6       -1.02606   0.00003   0.00001   0.02371   0.02371  -1.00235
    D7       -1.06618  -0.00005  -0.00000   0.02013   0.02012  -1.04605
    D8        1.05831  -0.00001  -0.00000   0.01976   0.01976   1.07807
    D9        3.09121  -0.00007   0.00000   0.01971   0.01970   3.11091
   D10       -3.06937   0.00002   0.00001   0.08913   0.08915  -2.98023
   D11        1.07397  -0.00000   0.00001   0.08482   0.08482   1.15880
   D12       -0.93304  -0.00004   0.00001   0.08562   0.08564  -0.84740
   D13        1.10611  -0.00000   0.00001   0.09607   0.09609   1.20220
   D14       -1.03373  -0.00002   0.00001   0.09176   0.09177  -0.94196
   D15       -3.04074  -0.00006   0.00002   0.09257   0.09258  -2.94816
   D16       -0.95134  -0.00000   0.00001   0.09542   0.09544  -0.85591
   D17       -3.09118  -0.00002   0.00001   0.09110   0.09111  -3.00007
   D18        1.18499  -0.00006   0.00001   0.09191   0.09193   1.27692
   D19        2.85940  -0.00012  -0.00005  -0.38192  -0.38196   2.47743
   D20       -0.29722  -0.00007  -0.00005  -0.39877  -0.39881  -0.69603
   D21       -1.28204  -0.00014  -0.00005  -0.38358  -0.38363  -1.66568
   D22        1.84452  -0.00009  -0.00005  -0.40043  -0.40048   1.44404
   D23        0.71420  -0.00002  -0.00005  -0.38224  -0.38230   0.33190
   D24       -2.44242   0.00002  -0.00005  -0.39909  -0.39914  -2.84156
   D25        3.11747   0.00009  -0.00000  -0.02733  -0.02736   3.09010
   D26       -0.02623   0.00005  -0.00000  -0.03078  -0.03080  -0.05703
   D27       -0.01018   0.00006  -0.00000  -0.01166  -0.01166  -0.02184
   D28        3.12931   0.00001  -0.00000  -0.01511  -0.01510   3.11421
   D29       -3.12005  -0.00008   0.00000   0.02454   0.02452  -3.09553
   D30        0.02577  -0.00010   0.00000   0.02891   0.02889   0.05466
   D31        0.00686  -0.00003   0.00000   0.00811   0.00812   0.01498
   D32       -3.13050  -0.00006   0.00000   0.01248   0.01249  -3.11802
   D33        0.00528  -0.00005   0.00000   0.00581   0.00580   0.01109
   D34       -3.13427  -0.00000   0.00000   0.00915   0.00914  -3.12513
   D35        0.00295   0.00001   0.00000   0.00363   0.00363   0.00658
   D36        3.14038   0.00004  -0.00000  -0.00130  -0.00130   3.13907
   D37       -0.00568   0.00002  -0.00000  -0.00651  -0.00651  -0.01219
   D38        3.13371   0.00003  -0.00000  -0.00921  -0.00921   3.12450
   D39        3.14026  -0.00001  -0.00000  -0.00138  -0.00137   3.13888
   D40       -0.00354  -0.00000  -0.00000  -0.00407  -0.00408  -0.00762
   D41        0.00035  -0.00000   0.00000   0.00016   0.00016   0.00051
   D42        3.13777   0.00002  -0.00000  -0.00416  -0.00417   3.13359
   D43       -3.13902  -0.00001   0.00000   0.00287   0.00287  -3.13615
   D44       -0.00161   0.00001  -0.00000  -0.00145  -0.00146  -0.00307
         Item               Value     Threshold  Converged?
 Maximum Force            0.001733     0.000450     NO 
 RMS     Force            0.000266     0.000300     YES
 Maximum Displacement     0.711056     0.001800     NO 
 RMS     Displacement     0.207956     0.001200     NO 
 Predicted change in Energy=-2.164402D-04
 GradGradGradGradGradGradGradGradGradGradGradGradGradGradGradGradGradGrad

                          Input orientation:                          
 ---------------------------------------------------------------------
 Center     Atomic      Atomic             Coordinates (Angstroms)
 Number     Number       Type             X           Y           Z
 ---------------------------------------------------------------------
      1         35           0        5.793063   -2.109544   -0.269395
      2          6           0        4.442890   -1.126421    0.788634
      3          6           0        3.070768   -1.761154    0.647115
      4          6           0        2.015205   -0.964217    1.423412
      5          6           0        0.658464   -1.628771    1.529783
      6          6           0       -0.071549   -1.518399    2.722542
      7          7           0       -1.296887   -2.011254    2.914753
      8          6           0       -1.859464   -2.669142    1.892079
      9          6           0       -1.224336   -2.859647    0.667632
     10          6           0        0.053063   -2.330816    0.485471
     11          1           0        4.808304   -1.147383    1.815321
     12          1           0        4.470165   -0.103670    0.412146
     13          1           0        2.817775   -1.803084   -0.416774
     14          1           0        3.100667   -2.794744    1.008620
     15          1           0        1.898656    0.022350    0.950956
     16          1           0        2.379164   -0.763628    2.438175
     17          1           0        0.372357   -1.001104    3.573361
     18          1           0       -2.857145   -3.066475    2.066143
     19          1           0       -1.715863   -3.413729   -0.125473
     20          1           0        0.568103   -2.474566   -0.458499
 ---------------------------------------------------------------------
                    Distance matrix (angstroms):
                    1          2          3          4          5
     1  Br   0.000000
     2  C    1.977100   0.000000
     3  C    2.893485   1.518430   0.000000
     4  C    4.295299   2.514540   1.533611   0.000000
     5  C    5.461895   3.888899   2.572128   1.514494   0.000000
     6  C    6.610206   4.926846   3.773657   2.519801   1.402775
     7  N    7.772764   6.184525   4.927591   3.780256   2.426486
     8  C    7.971593   6.581583   5.165420   4.259046   2.748379
     9  C    7.119310   5.927577   4.433400   3.828640   2.409003
    10  C    5.793651   4.562133   3.075254   2.568526   1.396411
    11  H    2.498309   1.089979   2.181846   2.826402   4.187414
    12  H    2.497617   1.090187   2.181920   2.791063   4.254892
    13  H    2.994658   2.133513   1.094360   2.175800   2.912404
    14  H    3.058074   2.152500   1.095394   2.168205   2.755986
    15  H    4.604415   2.796274   2.155703   1.100051   2.144602
    16  H    4.560388   2.666753   2.163625   1.096561   2.129427
    17  H    6.736429   4.933523   4.052409   2.706028   2.156858
    18  H    9.010913   7.660702   6.233591   5.345314   3.835907
    19  H    7.622702   6.633069   5.122473   4.724407   3.400496
    20  H    5.241108   4.287984   2.827485   2.813690   2.162591
                    6          7          8          9         10
     6  C    0.000000
     7  N    1.334655   0.000000
     8  C    2.282656   1.339840   0.000000
     9  C    2.711184   2.403038   1.392462   0.000000
    10  C    2.383283   2.797481   2.398076   1.394487   0.000000
    11  H    4.977316   6.263257   6.839647   6.375091   5.077532
    12  H    5.288342   6.569689   6.988279   6.331511   4.947357
    13  H    4.276044   5.298383   5.287478   4.316356   2.955703
    14  H    3.824859   4.856510   5.039760   4.338910   3.126789
    15  H    3.064984   4.266560   4.717340   4.259021   3.026595
    16  H    2.580027   3.911144   4.679227   4.529165   3.417584
    17  H    1.090202   2.059258   3.254241   3.800904   3.377151
    18  H    3.253758   2.065923   1.087906   2.159786   3.392496
    19  H    3.795686   3.374234   2.155353   1.085182   2.162187
    20  H    3.382667   3.882226   3.384694   2.151580   1.084901
                   11         12         13         14         15
    11  H    0.000000
    12  H    1.781172   0.000000
    13  H    3.061764   2.511077   0.000000
    14  H    2.506111   3.077854   1.759308   0.000000
    15  H    3.252915   2.630372   2.459202   3.063360   0.000000
    16  H    2.536915   2.985402   3.069786   2.586432   1.749420
    17  H    4.773859   5.252685   4.748097   4.151954   3.202195
    18  H    7.906006   8.074862   6.321848   6.057039   5.779457
    19  H    7.174103   7.036509   4.820053   4.986810   5.101968
    20  H    4.991090   4.648146   2.348118   2.944288   3.160937
                   16         17         18         19         20
    16  H    0.000000
    17  H    2.317826   0.000000
    18  H    5.732403   4.119120   0.000000
    19  H    5.510406   4.884956   2.495254   0.000000
    20  H    3.820729   4.297127   4.296102   2.491873   0.000000
 Stoichiometry    C8H10BrN
 Framework group  C1[X(C8H10BrN)]
 Deg. of freedom    54
 Full point group                 C1      NOp   1
 Largest Abelian subgroup         C1      NOp   1
 Largest concise Abelian subgroup C1      NOp   1
                         Standard orientation:                         
 ---------------------------------------------------------------------
 Center     Atomic      Atomic             Coordinates (Angstroms)
 Number     Number       Type             X           Y           Z
 ---------------------------------------------------------------------
      1         35           0       -3.442456   -0.272149   -0.170275
      2          6           0       -1.882197    0.857689    0.274676
      3          6           0       -0.586387    0.078997    0.132739
      4          6           0        0.617734    0.940622    0.532313
      5          6           0        1.971275    0.336719    0.220991
      6          6           0        3.009095    1.166196   -0.229202
      7          7           0        4.255248    0.759779   -0.480666
      8          6           0        4.523590   -0.540256   -0.298809
      9          6           0        3.570414   -1.462426    0.125464
     10          6           0        2.276003   -1.015636    0.389042
     11          1           0       -1.935614    1.706461   -0.407076
     12          1           0       -2.054462    1.198191    1.295896
     13          1           0       -0.648936   -0.813331    0.763184
     14          1           0       -0.472748   -0.267760   -0.900089
     15          1           0        0.556821    1.155878    1.609377
     16          1           0        0.554088    1.914940    0.033215
     17          1           0        2.810051    2.224477   -0.399379
     18          1           0        5.543127   -0.855309   -0.510528
     19          1           0        3.833001   -2.508780    0.242992
     20          1           0        1.516746   -1.719421    0.713426
 ---------------------------------------------------------------------
 Rotational constants (GHZ):           3.6456581           0.2612399           0.2488362
 Standard basis: 6-31G(d,p) (6D, 7F)
 There are   215 symmetry adapted cartesian basis functions of A   symmetry.
 There are   215 symmetry adapted basis functions of A   symmetry.
   215 basis functions,   405 primitive gaussians,   215 cartesian basis functions
    50 alpha electrons       50 beta electrons
       nuclear repulsion energy       672.2970503248 Hartrees.
 NAtoms=   20 NActive=   20 NUniq=   20 SFac= 1.00D+00 NAtFMM=   60 NAOKFM=F Big=F
 Integral buffers will be    131072 words long.
 Raffenetti 2 integral format.
 Two-electron integral symmetry is turned on.
 Nuclear repulsion after empirical dispersion term =      672.2603824231 Hartrees.
 One-electron integrals computed using PRISM.
 NBasis=   215 RedAO= T EigKep=  7.37D-04  NBF=   215
 NBsUse=   215 1.00D-06 EigRej= -1.00D+00 NBFU=   215
 Initial guess from the checkpoint file:  "pyrd10_conf-10.chk"
 B after Tr=    -0.000000    0.000000    0.000000
         Rot=    0.999730   -0.022880   -0.000639   -0.004045 Ang=  -2.66 deg.
 ExpMin= 1.43D-01 ExpMax= 5.74D+05 ExpMxC= 5.74D+03 IAcc=3 IRadAn=         5 AccDes= 0.00D+00
 Harris functional with IExCor=  402 and IRadAn=       5 diagonalized for initial guess.
 HarFok:  IExCor=  402 AccDes= 0.00D+00 IRadAn=         5 IDoV= 1 UseB2=F ITyADJ=14
 ICtDFT=  3500011 ScaDFX=  1.000000  1.000000  1.000000  1.000000
 FoFCou: FMM=F IPFlag=           0 FMFlag=      100000 FMFlg1=           0
         NFxFlg=           0 DoJE=T BraDBF=F KetDBF=T FulRan=T
[...]
   Eigenvalues:    25.1904    29.1645    33.6290
     17  H    Isotropic =    22.4084   Anisotropy =    10.4376
   XX=    24.6428   YX=     4.0336   ZX=    -3.4647
   XY=     3.9887   YY=    21.4524   ZY=    -2.4700
   XZ=    -3.4096   YZ=    -1.8638   ZZ=    21.1300
   Eigenvalues:    18.6958    19.1626    29.3668
     18  H    Isotropic =    22.4075   Anisotropy =     7.1106
   XX=    20.9765   YX=     1.6101   ZX=    -1.2427
   XY=     1.0456   YY=    25.6224   ZY=    -2.4133
   XZ=    -0.7694   YZ=    -2.7697   ZZ=    20.6235
   Eigenvalues:    19.3882    20.6864    27.1479
     19  H    Isotropic =    23.9491   Anisotropy =     6.9543
   XX=    26.7807   YX=     0.3586   ZX=    -2.7965
   XY=     1.2532   YY=    21.6565   ZY=    -0.7525
   XZ=    -2.9993   YZ=    -0.3616   ZZ=    23.4103
   Eigenvalues:    21.4932    21.7689    28.5854
     20  H    Isotropic =    23.6290   Anisotropy =     9.9106
   XX=    26.3045   YX=    -5.3899   ZX=    -0.5246
   XY=    -4.5050   YY=    23.6957   ZY=     1.0002
   XZ=    -0.7635   YZ=     0.7888   ZZ=    20.8867
   Eigenvalues:    19.7836    20.8673    30.2360
 End of Minotr F.D. properties file   721 does not exist.
 End of Minotr F.D. properties file   722 does not exist.
 End of Minotr F.D. properties file   788 does not exist.

 **********************************************************************

            Population analysis using the SCF Density.

 **********************************************************************

 Orbital symmetries:
       Occupied  (A) (A) (A) (A) (A) (A) (A) (A) (A) (A) (A) (A)
                 (A) (A) (A) (A) (A) (A) (A) (A) (A) (A) (A) (A)
                 (A) (A) (A) (A) (A) (A) (A) (A) (A) (A) (A) (A)
                 (A) (A) (A) (A) (A) (A) (A) (A) (A) (A) (A) (A)
                 (A) (A)
       Virtual   (A) (A) (A) (A) (A) (A) (A) (A) (A) (A) (A) (A)
                 (A) (A) (A) (A) (A) (A) (A) (A) (A) (A) (A) (A)
                 (A) (A) (A) (A) (A) (A) (A) (A) (A) (A) (A) (A)
                 (A) (A) (A) (A) (A) (A) (A) (A) (A) (A) (A) (A)
                 (A) (A) (A) (A) (A) (A) (A) (A) (A) (A) (A) (A)
                 (A) (A) (A) (A) (A) (A) (A) (A) (A) (A) (A) (A)
                 (A) (A) (A) (A) (A) (A) (A) (A) (A) (A) (A) (A)
                 (A) (A) (A) (A) (A) (A) (A) (A) (A) (A) (A) (A)
                 (A) (A) (A) (A) (A) (A) (A) (A) (A) (A) (A) (A)
                 (A) (A) (A) (A) (A) (A) (A) (A) (A) (A) (A) (A)
                 (A) (A) (A) (A) (A) (A) (A) (A) (A) (A) (A) (A)
                 (A) (A) (A) (A) (A) (A) (A) (A) (A) (A) (A) (A)
                 (A) (A) (A) (A) (A) (A) (A) (A) (A) (A) (A) (A)
                 (A) (A) (A) (A) (A) (A) (A) (A) (A) (A) (A) (A)
                 (A) (A) (A) (A) (A) (A) (A) (A) (A) (A) (A) (A)
                 (A) (A) (A) (A) (A) (A) (A) (A) (A) (A) (A) (A)
                 (A) (A) (A) (A) (A) (A) (A) (A) (A) (A) (A) (A)
                 (A) (A) (A) (A) (A) (A) (A) (A) (A) (A) (A) (A)
                 (A) (A) (A) (A) (A) (A) (A) (A) (A) (A) (A) (A)
                 (A) (A) (A) (A) (A) (A) (A) (A) (A) (A) (A) (A)
                 (A) (A) (A) (A) (A) (A) (A) (A) (A) (A) (A) (A)
                 (A) (A) (A) (A) (A) (A) (A) (A) (A) (A) (A) (A)
                 (A) (A) (A) (A) (A) (A) (A) (A) (A) (A) (A) (A)
                 (A) (A) (A) (A) (A) (A) (A) (A) (A) (A) (A) (A)
                 (A) (A) (A) (A) (A) (A) (A) (A) (A) (A) (A) (A)
                 (A) (A) (A) (A) (A) (A) (A) (A) (A) (A) (A) (A)
                 (A) (A) (A) (A) (A) (A) (A) (A) (A) (A) (A) (A)
                 (A) (A) (A) (A) (A) (A) (A) (A) (A) (A) (A) (A)
                 (A)
 The electronic state is 1-A.
 Alpha  occ. eigenvalues -- -485.36278 -63.34783 -57.16725 -57.16487 -57.16485
 Alpha  occ. eigenvalues --  -14.75359 -10.60285 -10.58024 -10.57967 -10.56667
 Alpha  occ. eigenvalues --  -10.56567 -10.56167 -10.55909 -10.55719  -9.01424
 Alpha  occ. eigenvalues --   -6.83825  -6.82952  -6.82943  -2.87190  -2.86879
 Alpha  occ. eigenvalues --   -2.86872  -2.86057  -2.86057  -1.05620  -0.94407
 Alpha  occ. eigenvalues --   -0.91250  -0.88147  -0.84043  -0.77095  -0.72283
 Alpha  occ. eigenvalues --   -0.70600  -0.68483  -0.60394  -0.58008  -0.55206
 Alpha  occ. eigenvalues --   -0.54126  -0.51095  -0.49948  -0.48315  -0.47549
 Alpha  occ. eigenvalues --   -0.47051  -0.45586  -0.42735  -0.41848  -0.40965
 Alpha  occ. eigenvalues --   -0.35016  -0.33980  -0.33836  -0.32852  -0.31435
 Alpha virt. eigenvalues --   -0.00487   0.00867   0.02613   0.05689   0.08132
 Alpha virt. eigenvalues --    0.09011   0.09755   0.10070   0.12114   0.13115
 Alpha virt. eigenvalues --    0.13519   0.14198   0.15344   0.16328   0.16531
 Alpha virt. eigenvalues --    0.18238   0.18509   0.20584   0.21106   0.22967
 Alpha virt. eigenvalues --    0.23224   0.23790   0.25061   0.25526   0.26270
 Alpha virt. eigenvalues --    0.27563   0.28313   0.28883   0.29759   0.30011
 Alpha virt. eigenvalues --    0.31190   0.31949   0.32714   0.33536   0.33706
 Alpha virt. eigenvalues --    0.35076   0.36543   0.36857   0.36892   0.37365
 Alpha virt. eigenvalues --    0.38651   0.40182   0.40449   0.40625   0.41148
 Alpha virt. eigenvalues --    0.43481   0.44243   0.44842   0.45857   0.46354
 Alpha virt. eigenvalues --    0.47011   0.47719   0.48111   0.48987   0.49205
 Alpha virt. eigenvalues --    0.49773   0.50968   0.51641   0.52302   0.53089
 Alpha virt. eigenvalues --    0.55072   0.56803   0.57780   0.59142   0.60483
 Alpha virt. eigenvalues --    0.61507   0.63395   0.64127   0.65941   0.66527
 Alpha virt. eigenvalues --    0.68655   0.69577   0.70561   0.71930   0.72240
 Alpha virt. eigenvalues --    0.74202   0.75265   0.76571   0.78725   0.80782
 Alpha virt. eigenvalues --    0.81223   0.82756   0.84716   0.85681   0.87374
 Alpha virt. eigenvalues --    0.87676   0.89775   0.91543   0.94298   0.97740
 Alpha virt. eigenvalues --    0.98596   1.01628   1.02329   1.02766   1.05895
 Alpha virt. eigenvalues --    1.06220   1.07440   1.08563   1.12213   1.12873
 Alpha virt. eigenvalues --    1.14216   1.17430   1.19481   1.20018   1.22662
 Alpha virt. eigenvalues --    1.23366   1.24401   1.26230   1.28484   1.29172
 Alpha virt. eigenvalues --    1.31185   1.32701   1.34569   1.36362   1.37609
 Alpha virt. eigenvalues --    1.40096   1.40512   1.41293   1.42808   1.43729
 Alpha virt. eigenvalues --    1.44577   1.45597   1.47116   1.48182   1.50833
 Alpha virt. eigenvalues --    1.51494   1.54294   1.55776   1.56807   1.56987
 Alpha virt. eigenvalues --    1.57208   1.58234   1.59334   1.59970   1.60318
 Alpha virt. eigenvalues --    1.61840   1.63034   1.63786   1.64541   1.65027
 Alpha virt. eigenvalues --    1.66204   1.66779   1.67644   1.68482   1.69696
 Alpha virt. eigenvalues --    1.70735   1.72084   1.74171   1.75140   1.75639
 Alpha virt. eigenvalues --    1.79279   1.79372   1.80445   1.81927   1.85544
 Alpha virt. eigenvalues --    1.86078   1.87142   1.90030   1.92287   1.94440
 Alpha virt. eigenvalues --    1.95247   1.95754   1.96531   1.97862   2.02389
 Alpha virt. eigenvalues --    2.03360   2.06317   2.08343   2.09267   2.12522
 Alpha virt. eigenvalues --    2.15262   2.17413   2.18867   2.22428   2.24345
 Alpha virt. eigenvalues --    2.26288   2.27367   2.29845   2.30023   2.31799
 Alpha virt. eigenvalues --    2.33392   2.34952   2.38535   2.41105   2.44344
 Alpha virt. eigenvalues --    2.44836   2.46386   2.48290   2.49763   2.51184
 Alpha virt. eigenvalues --    2.52755   2.55826   2.57167   2.57538   2.59727
 Alpha virt. eigenvalues --    2.60536   2.62012   2.63130   2.64076   2.64338
 Alpha virt. eigenvalues --    2.66062   2.66701   2.68725   2.70825   2.71646
 Alpha virt. eigenvalues --    2.72815   2.73234   2.74212   2.75917   2.77271
 Alpha virt. eigenvalues --    2.79367   2.81820   2.82439   2.83589   2.84509
 Alpha virt. eigenvalues --    2.88191   2.89542   2.93406   2.94398   2.95321
 Alpha virt. eigenvalues --    2.97832   3.00808   3.02158   3.04226   3.06766
 Alpha virt. eigenvalues --    3.07832   3.09680   3.11029   3.11559   3.13133
 Alpha virt. eigenvalues --    3.13536   3.16488   3.17318   3.17534   3.19025
 Alpha virt. eigenvalues --    3.19644   3.21263   3.23670   3.23863   3.24416
 Alpha virt. eigenvalues --    3.26944   3.27827   3.29154   3.30832   3.31328
 Alpha virt. eigenvalues --    3.33123   3.33409   3.36012   3.38201   3.38950
 Alpha virt. eigenvalues --    3.40003   3.41884   3.42287   3.43423   3.45109
 Alpha virt. eigenvalues --    3.46667   3.47850   3.49644   3.50114   3.51435
 Alpha virt. eigenvalues --    3.52818   3.56468   3.60351   3.61962   3.65340
 Alpha virt. eigenvalues --    3.69760   3.71820   3.75478   3.76402   3.78083
 Alpha virt. eigenvalues --    3.79527   3.82875   3.83984   3.86531   3.86962
 Alpha virt. eigenvalues --    3.90593   3.94374   3.97045   4.00640   4.03082
 Alpha virt. eigenvalues --    4.04685   4.05684   4.07742   4.08339   4.10875
 Alpha virt. eigenvalues --    4.10919   4.13082   4.15388   4.17824   4.19968
 Alpha virt. eigenvalues --    4.26208   4.27210   4.28426   4.29679   4.34489
 Alpha virt. eigenvalues --    4.35812   4.38698   4.39706   4.45260   4.47244
 Alpha virt. eigenvalues --    4.49010   4.50108   4.53012   4.55526   4.56898
 Alpha virt. eigenvalues --    4.58498   4.61076   4.71707   4.73209   4.78259
 Alpha virt. eigenvalues --    4.83040   4.84505   4.89520   4.91938   4.92543
 Alpha virt. eigenvalues --    5.02587   5.06084   5.15916   5.16917   5.19778
 Alpha virt. eigenvalues --    5.26440   5.34629   5.41305   5.52689   5.57682
 Alpha virt. eigenvalues --    5.72363   5.94687   7.69609  22.33050  22.43072
 Alpha virt. eigenvalues --   22.52378  22.58976  22.73166  22.84917  22.88518
 Alpha virt. eigenvalues --   23.20541  32.51270
          Condensed to atoms (all electrons):
               1          2          3          4          5          6
     1  Br  35.003964   0.263217  -0.045905   0.008890  -0.001083  -0.000093
     2  C    0.263217   4.951165   0.223454  -0.018618   0.007569   0.000357
     3  C   -0.045905   0.223454   5.370228   0.135137  -0.015891  -0.013558
     4  C    0.008890  -0.018618   0.135137   5.387907   0.213534  -0.033388
     5  C   -0.001083   0.007569  -0.015891   0.213534   5.098298   0.464131
     6  C   -0.000093   0.000357  -0.013558  -0.033388   0.464131   4.891660
     7  N   -0.000001  -0.000001   0.000357   0.008367  -0.044362   0.513314
     8  C    0.000000  -0.000005  -0.000166  -0.000399  -0.043042  -0.116393
     9  C   -0.000001  -0.000065   0.002277   0.006780  -0.045255  -0.011855
    10  C   -0.000107   0.000378  -0.010700  -0.077907   0.448328  -0.060561
    11  H   -0.040129   0.431444  -0.049784   0.001401  -0.000147   0.000345
    12  H   -0.040482   0.430475  -0.050710   0.002685  -0.000970  -0.000208
    13  H    0.002001  -0.039068   0.422014  -0.040741   0.005168   0.004031
    14  H    0.001698  -0.036045   0.416136  -0.037509   0.003658  -0.004882
    15  H   -0.000033  -0.001901  -0.058631   0.439175  -0.042529   0.001083
    16  H   -0.000021  -0.002803  -0.045267   0.441028  -0.050624   0.000798
    17  H    0.000001   0.000035  -0.001445   0.005091  -0.089207   0.442439
    18  H   -0.000000  -0.000000   0.000014   0.000059  -0.000708   0.005898
    19  H    0.000000  -0.000002   0.000048   0.000019   0.012621  -0.001781
    20  H    0.000008   0.000095  -0.003727   0.006159  -0.049434   0.004148
               7          8          9         10         11         12
     1  Br  -0.000001   0.000000  -0.000001  -0.000107  -0.040129  -0.040482
     2  C   -0.000001  -0.000005  -0.000065   0.000378   0.431444   0.430475
     3  C    0.000357  -0.000166   0.002277  -0.010700  -0.049784  -0.050710
     4  C    0.008367  -0.000399   0.006780  -0.077907   0.001401   0.002685
     5  C   -0.044362  -0.043042  -0.045255   0.448328  -0.000147  -0.000970
     6  C    0.513314  -0.116393  -0.011855  -0.060561   0.000345  -0.000208
     7  N    6.418921   0.495246  -0.043537  -0.067538  -0.000001   0.000000
     8  C    0.495246   4.830402   0.487796  -0.015083  -0.000006   0.000005
     9  C   -0.043537   0.487796   4.985992   0.459342   0.000019  -0.000036
    10  C   -0.067538  -0.015083   0.459342   5.093928  -0.000375   0.000612
    11  H   -0.000001  -0.000006   0.000019  -0.000375   0.518667  -0.033864
    12  H    0.000000   0.000005  -0.000036   0.000612  -0.033864   0.522778
    13  H   -0.000060  -0.000243   0.000931  -0.008109   0.005827  -0.004029
    14  H   -0.000170   0.000235  -0.000737   0.006187  -0.003677   0.005620
    15  H   -0.000438   0.000307  -0.001298  -0.000169   0.001115  -0.000202
    16  H    0.000191  -0.000087  -0.000070   0.003907  -0.000368   0.001087
    17  H   -0.031921   0.009287  -0.002508   0.006304  -0.000008   0.000008
    18  H   -0.034003   0.433268  -0.067092   0.002340  -0.000000   0.000000
    19  H    0.007125  -0.030247   0.414805  -0.057401   0.000000  -0.000000
    20  H   -0.002171   0.002966  -0.031365   0.420242  -0.000001   0.000030
              13         14         15         16         17         18
     1  Br   0.002001   0.001698  -0.000033  -0.000021   0.000001  -0.000000
     2  C   -0.039068  -0.036045  -0.001901  -0.002803   0.000035  -0.000000
     3  C    0.422014   0.416136  -0.058631  -0.045267  -0.001445   0.000014
     4  C   -0.040741  -0.037509   0.439175   0.441028   0.005091   0.000059
     5  C    0.005168   0.003658  -0.042529  -0.050624  -0.089207  -0.000708
     6  C    0.004031  -0.004882   0.001083   0.000798   0.442439   0.005898
     7  N   -0.000060  -0.000170  -0.000438   0.000191  -0.031921  -0.034003
     8  C   -0.000243   0.000235   0.000307  -0.000087   0.009287   0.433268
     9  C    0.000931  -0.000737  -0.001298  -0.000070  -0.002508  -0.067092
    10  C   -0.008109   0.006187  -0.000169   0.003907   0.006304   0.002340
    11  H    0.005827  -0.003677   0.001115  -0.000368  -0.000008  -0.000000
    12  H   -0.004029   0.005620  -0.000202   0.001087   0.000008   0.000000
    13  H    0.494373  -0.013266   0.001054   0.002996  -0.000017  -0.000002
    14  H   -0.013266   0.488236   0.003745   0.000847   0.000506  -0.000001
    15  H    0.001054   0.003745   0.496892  -0.013171   0.000136  -0.000003
    16  H    0.002996   0.000847  -0.013171   0.490694   0.000731  -0.000002
    17  H   -0.000017   0.000506   0.000136   0.000731   0.515558  -0.000018
    18  H   -0.000002  -0.000001  -0.000003  -0.000002  -0.000018   0.515597
    19  H    0.000028  -0.000007  -0.000066   0.000014   0.000093  -0.000305
    20  H    0.000523   0.000194   0.000818   0.000165  -0.000239  -0.000270
              19         20
     1  Br   0.000000   0.000008
     2  C   -0.000002   0.000095
     3  C    0.000048  -0.003727
     4  C    0.000019   0.006159
     5  C    0.012621  -0.049434
     6  C   -0.001781   0.004148
     7  N    0.007125  -0.002171
     8  C   -0.030247   0.002966
     9  C    0.414805  -0.031365
    10  C   -0.057401   0.420242
    11  H    0.000000  -0.000001
    12  H   -0.000000   0.000030
    13  H    0.000028   0.000523
    14  H   -0.000007   0.000194
    15  H   -0.000066   0.000818
    16  H    0.000014   0.000165
    17  H    0.000093  -0.000239
    18  H   -0.000305  -0.000270
    19  H    0.517399  -0.005640
    20  H   -0.005640   0.498226
 Mulliken charges:
               1
     1  Br  -0.151925
     2  C   -0.209681
     3  C   -0.273881
     4  C   -0.447671
     5  C    0.129945
     6  C   -0.085485
     7  N   -0.219319
     8  C   -0.053843
     9  C   -0.154122
    10  C   -0.143618
    11  H    0.169542
    12  H    0.167203
    13  H    0.166587
    14  H    0.169230
    15  H    0.174116
    16  H    0.169952
    17  H    0.145172
    18  H    0.145228
    19  H    0.143297
    20  H    0.159272
 Sum of Mulliken charges =  -0.00000
 Mulliken charges with hydrogens summed into heavy atoms:
               1
     1  Br  -0.151925
     2  C    0.127064
     3  C    0.061936
     4  C   -0.103603
     5  C    0.129945
     6  C    0.059688
     7  N   -0.219319
     8  C    0.091385
     9  C   -0.010825
    10  C    0.015654
 Electronic spatial extent (au):  <R**2>=           3714.9183
 Charge=              0.0000 electrons
 Dipole moment (field-independent basis, Debye):
    X=              0.5365    Y=             -1.1063    Z=              2.2343  Tot=              2.5503
 Quadrupole moment (field-independent basis, Debye-Ang):
   XX=            -85.1639   YY=            -70.4139   ZZ=            -73.5765
   XY=             -9.6658   XZ=             -0.2909   YZ=              1.1881
 Traceless Quadrupole moment (field-independent basis, Debye-Ang):
   XX=             -8.7792   YY=              5.9709   ZZ=              2.8083
   XY=             -9.6658   XZ=             -0.2909   YZ=              1.1881
 Octapole moment (field-independent basis, Debye-Ang**2):
  XXX=            -91.0645  YYY=             -6.9034  ZZZ=             -7.5190  XYY=            -34.9924
  XXY=            -42.3023  XXZ=             -2.6601  XZZ=            -46.6586  YZZ=             -4.3875
  YYZ=              1.7869  XYZ=              4.7661
 Hexadecapole moment (field-independent basis, Debye-Ang**3):
 XXXX=          -3901.0378 YYYY=           -327.5510 ZZZZ=           -275.5737 XXXY=           -165.5111
 XXXZ=             22.9767 YYYX=            -15.4802 YYYZ=              2.2806 ZZZX=             37.4192
 ZZZY=              1.3680 XXYY=           -708.9958 XXZZ=           -701.1627 YYZZ=           -108.0033
 XXYZ=             42.3188 YYXZ=             24.7800 ZZXY=             -0.8002
 N-N= 6.746829854342D+02 E-N=-8.350228260438D+03  KE= 2.934434015552D+03
 Unable to Open any file for archive entry.
 1\1\GINC-COMPUTE-0-6\SP\RM062X\def2TZVP\C8H10Br1N1\ZTAN64\16-Aug-2024\
 0\\# M062X/def2tzvp int=(grid=ultrafine) nmr=giao guess=read geom=chec
 k\\pyrd10.xyz\\0,1\Br,0,5.8610282001,-2.4191298466,0.3454685875\C,0,4.
 4187707485,-1.1324167234,0.7639258977\C,0,3.0894433519,-1.8420569209,0
 .9482894153\C,0,1.9581697243,-0.8422589759,1.2629372978\C,0,0.63183876
 44,-1.5366741224,1.4434631683\C,0,0.1611152793,-1.8776340841,2.7169036
 997\N,0,-0.9823462068,-2.5290205921,2.9531665984\C,0,-1.7203376342,-2.
 8751473953,1.8918759582\C,0,-1.3542528127,-2.5874381617,0.5765556683\C
 ,0,-0.1596013751,-1.9089527627,0.3529821586\H,0,4.7445567516,-0.615979
 2859,1.6670481167\H,0,4.4050194364,-0.4319541466,-0.0714387376\H,0,2.8
 440095936,-2.4039040713,0.0411530126\H,0,3.170324919,-2.5733894015,1.7
 587324052\H,0,1.8858286345,-0.1082612943,0.4510597128\H,0,2.2082464252
 ,-0.2836299733,2.1724382162\H,0,0.7443188341,-1.6019072182,3.595259212
 9\H,0,-2.6474391261,-3.4040264981,2.1027621604\H,0,-1.9925572803,-2.88
 6247277,-0.248528364\H,0,0.1572637723,-1.6653712487,-0.6580541851\\Ver
 sion=ES64L-G16RevC.01\State=1-A\HF=-2939.7880792\RMSD=3.984e-09\Dipole
 =-0.3520072,0.6875512,-0.6404109\Quadrupole=-3.6282029,2.941551,0.6866
 519,2.6603694,8.1591492,1.0055596\PG=C01 [X(C8H10Br1N1)]\\@
 The archive entry for this job was punched.


 PENOTUS DIED A HUNDRED YEARS OLD WANTING BUT TWO...
 AND HE USED TO SAY BEFORE HE DIED, HAVING SPENT HIS
 WHOLE LIFE IN VAINLY SEARCHING AFTER THE PHILOSOPHER'S
 STONE, THAT IF HE HAD A MORTAL ENEMY HE DID NOT DARE
 TO ENCOUNTER OPENLY, HE WOULD ADVISE HIM ABOVE ALL
 THINGS TO GIVE HIMSELF UP TO THE STUDY AND PRACTICE
 OF ALCHEMY.  --  NICOLAS LEMERY, M.D.
 "A COURSE OF CHYMISTRY", WALTER KETTILBY, LONDON, 1686
 Job cpu time:       0 days  0 hours 22 minutes  0.7 seconds.
 Elapsed time:       0 days  0 hours  1 minutes 28.8 seconds.
 File lengths (MBytes):  RWF=     88 Int=      0 D2E=      0 Chk=     15 Scr=      1
 Normal termination of Gaussian 16 at Fri Aug 16 14:03:37 2024.
 
 
-----Kestrel cluster job statistics-----
Time info:

real	10m55.357s
user	168m41.250s
sys	1m4.946s
 
Disk space usage:
15M	/scratch/363658.kestrel.chem.wisc.edu
