 Entering Gaussian System, Link 0=/share/apps/gaussian/g16/g16
 Initial command:
 /share/apps/gaussian/g16/l1.exe "/scratch/362950.kestrel.chem.wisc.edu/Gau-190848.inp" -scrdir="/scratch/362950.kestrel.chem.wisc.edu/"
 Entering Link 1 = /share/apps/gaussian/g16/l1.exe PID=    190849.
  
 Copyright (c) 1988-2019, Gaussian, Inc.  All Rights Reserved.
  
 This is part of the Gaussian(R) 16 program.  It is based on
 the Gaussian(R) 09 system (copyright 2009, Gaussian, Inc.),
 the Gaussian(R) 03 system (copyright 2003, Gaussian, Inc.),
 the Gaussian(R) 98 system (copyright 1998, Gaussian, Inc.),
 the Gaussian(R) 94 system (copyright 1995, Gaussian, Inc.),
 the Gaussian 92(TM) system (copyright 1992, Gaussian, Inc.),
 the Gaussian 90(TM) system (copyright 1990, Gaussian, Inc.),
 the Gaussian 88(TM) system (copyright 1988, Gaussian, Inc.),
 the Gaussian 86(TM) system (copyright 1986, Carnegie Mellon
 University), and the Gaussian 82(TM) system (copyright 1983,
 Carnegie Mellon University). Gaussian is a federally registered
 trademark of Gaussian, Inc.
  
 This software contains proprietary and confidential information,
 including trade secrets, belonging to Gaussian, Inc.
  
 This software is provided under written license and may be
 used, copied, transmitted, or stored only in accord with that
 written license.
  
 The following legend is applicable only to US Government
 contracts under FAR:
  
                    RESTRICTED RIGHTS LEGEND
  
 Use, reproduction and disclosure by the US Government is
 subject to restrictions as set forth in subparagraphs (a)
 and (c) of the Commercial Computer Software - Restricted
 Rights clause in FAR 52.227-19.
  
 Gaussian, Inc.
 340 Quinnipiac St., Bldg. 40, Wallingford CT 06492
  
  
 ---------------------------------------------------------------
 Warning -- This program may not be used in any manner that
 competes with the business of Gaussian, Inc. or will provide
 assistance to any competitor of Gaussian, Inc.  The licensee
 of this program is prohibited from giving any competitor of
 Gaussian, Inc. access to this program.  By using this program,
 the user acknowledges that Gaussian, Inc. is engaged in the
 business of creating and licensing software in the field of
 computational chemistry and represents and warrants to the
 licensee that it is not a competitor of Gaussian, Inc. and that
 it will not use this program in any manner prohibited above.
 ---------------------------------------------------------------
  

 Cite this work as:
 Gaussian 16, Revision C.01,
 M. J. Frisch, G. W. Trucks, H. B. Schlegel, G. E. Scuseria, 
 M. A. Robb, J. R. Cheeseman, G. Scalmani, V. Barone, 
 G. A. Petersson, H. Nakatsuji, X. Li, M. Caricato, A. V. Marenich, 
 J. Bloino, B. G. Janesko, R. Gomperts, B. Mennucci, H. P. Hratchian, 
 J. V. Ortiz, A. F. Izmaylov, J. L. Sonnenberg, D. Williams-Young, 
 F. Ding, F. Lipparini, F. Egidi, J. Goings, B. Peng, A. Petrone, 
 T. Henderson, D. Ranasinghe, V. G. Zakrzewski, J. Gao, N. Rega, 
 G. Zheng, W. Liang, M. Hada, M. Ehara, K. Toyota, R. Fukuda, 
 J. Hasegawa, M. Ishida, T. Nakajima, Y. Honda, O. Kitao, H. Nakai, 
 T. Vreven, K. Throssell, J. A. Montgomery, Jr., J. E. Peralta, 
 F. Ogliaro, M. J. Bearpark, J. J. Heyd, E. N. Brothers, K. N. Kudin, 
 V. N. Staroverov, T. A. Keith, R. Kobayashi, J. Normand, 
 K. Raghavachari, A. P. Rendell, J. C. Burant, S. S. Iyengar, 
 J. Tomasi, M. Cossi, J. M. Millam, M. Klene, C. Adamo, R. Cammi, 
 J. W. Ochterski, R. L. Martin, K. Morokuma, O. Farkas, 
 J. B. Foresman, and D. J. Fox, Gaussian, Inc., Wallingford CT, 2019.
 
 ******************************************
 Gaussian 16:  ES64L-G16RevC.01  3-Jul-2019
                14-Aug-2024 
 ******************************************
 %nprocs=16
 Will use up to   16 processors via shared memory.
 %mem=16GB
 %chk=pyrd10_conf-3.chk
 ----------------------------------------------------------------------
 # B3LYP/6-31G(d,p) symmetry=loose empiricaldispersion=GD3BJ int=(grid=
 ultrafine) opt freq=noraman
 ----------------------------------------------------------------------
 1/18=20,19=15,26=4,38=1/1,3;
 2/9=110,12=2,17=4,18=3,40=1/2;
 3/5=1,6=6,7=101,11=2,25=1,30=1,71=1,74=-5,75=-5,124=41/1,2,3;
 4//1;
 5/5=2,38=5/2;
 6/7=2,8=2,9=2,10=2,28=1/1;
 7//1,2,3,16;
 1/18=20,19=15,26=4/3(2);
 2/9=110/2;
 99//99;
 2/9=110/2;
 3/5=1,6=6,7=101,11=2,25=1,30=1,71=1,74=-5,75=-5,124=41/1,2,3;
 4/5=5,16=3,69=1/1;
 5/5=2,38=5/2;
 7//1,2,3,16;
 1/18=20,19=15,26=4/3(-5);
 2/9=110/2;
 6/7=2,8=2,9=2,10=2,19=2,28=1/1;
 99/9=1/99;
 ----------
 pyrd10.xyz
 ----------
 Symbolic Z-matrix:
 Charge =  0 Multiplicity = 1
 Br                    5.0746   -0.0929    1.3464 
 C                     3.6215   -1.4518    1.3367 
 C                     2.9649   -1.4771   -0.053 
 C                     1.8555   -2.5382   -0.2003 
 C                     0.6854   -2.3287    0.7502 
 C                     0.4875   -3.1729    1.8489 
 N                    -0.5369   -3.0178    2.7257 
 C                    -1.4038   -1.9955    2.5145 
 C                    -1.2821   -1.1091    1.4425 
 C                    -0.2219   -1.2822    0.5503 
 H                     4.0646   -2.414     1.5964 
 H                     2.9093   -1.181     2.1182 
 H                     2.5611   -0.4883   -0.2766 
 H                     3.7344   -1.6627   -0.804 
 H                     2.2718   -3.5379   -0.0628 
 H                     1.4698   -2.5297   -1.2214 
 H                     1.1572   -3.9968    2.0486 
 H                    -2.2095   -1.8968    3.2282 
 H                    -1.9918   -0.3063    1.3058 
 H                    -0.1063   -0.6074   -0.2857 
 

 GradGradGradGradGradGradGradGradGradGradGradGradGradGradGradGradGradGrad
 Berny optimization.
 Initialization pass.
                           ----------------------------
                           !    Initial Parameters    !
                           ! (Angstroms and Degrees)  !
 --------------------------                            --------------------------
 ! Name  Definition              Value          Derivative Info.                !
 --------------------------------------------------------------------------------
 ! R1    R(1,2)                  1.9895         estimate D2E/DX2                !
 ! R2    R(2,3)                  1.5372         estimate D2E/DX2                !
 ! R3    R(2,11)                 1.0907         estimate D2E/DX2                !
 ! R4    R(2,12)                 1.0915         estimate D2E/DX2                !
 ! R5    R(3,4)                  1.5422         estimate D2E/DX2                !
 ! R6    R(3,13)                 1.0912         estimate D2E/DX2                !
 ! R7    R(3,14)                 1.0911         estimate D2E/DX2                !
 ! R8    R(4,5)                  1.522          estimate D2E/DX2                !
 ! R9    R(4,15)                 1.0916         estimate D2E/DX2                !
 ! R10   R(4,16)                 1.0916         estimate D2E/DX2                !
 ! R11   R(5,6)                  1.3996         estimate D2E/DX2                !
 ! R12   R(5,10)                 1.3994         estimate D2E/DX2                !
 ! R13   R(6,7)                  1.3573         estimate D2E/DX2                !
 ! R14   R(6,17)                 1.0804         estimate D2E/DX2                !
 ! R15   R(7,8)                  1.3569         estimate D2E/DX2                !
 ! R16   R(8,9)                  1.3963         estimate D2E/DX2                !
 ! R17   R(8,18)                 1.0809         estimate D2E/DX2                !
 ! R18   R(9,10)                 1.3964         estimate D2E/DX2                !
 ! R19   R(9,19)                 1.0802         estimate D2E/DX2                !
 ! R20   R(10,20)                1.0806         estimate D2E/DX2                !
 ! A1    A(1,2,3)              109.1243         estimate D2E/DX2                !
 ! A2    A(1,2,11)             107.739          estimate D2E/DX2                !
 ! A3    A(1,2,12)             107.6756         estimate D2E/DX2                !
 ! A4    A(3,2,11)             111.9788         estimate D2E/DX2                !
 ! A5    A(3,2,12)             111.8803         estimate D2E/DX2                !
 ! A6    A(11,2,12)            108.2691         estimate D2E/DX2                !
 ! A7    A(2,3,4)              113.8871         estimate D2E/DX2                !
 ! A8    A(2,3,13)             109.171          estimate D2E/DX2                !
 ! A9    A(2,3,14)             108.8926         estimate D2E/DX2                !
 ! A10   A(4,3,13)             109.7364         estimate D2E/DX2                !
 ! A11   A(4,3,14)             108.9377         estimate D2E/DX2                !
 ! A12   A(13,3,14)            105.9062         estimate D2E/DX2                !
 ! A13   A(3,4,5)              113.4958         estimate D2E/DX2                !
 ! A14   A(3,4,15)             110.105          estimate D2E/DX2                !
 ! A15   A(3,4,16)             109.7658         estimate D2E/DX2                !
 ! A16   A(5,4,15)             109.9125         estimate D2E/DX2                !
 ! A17   A(5,4,16)             108.1482         estimate D2E/DX2                !
 ! A18   A(15,4,16)            105.0533         estimate D2E/DX2                !
 ! A19   A(4,5,6)              121.0584         estimate D2E/DX2                !
 ! A20   A(4,5,10)             120.8087         estimate D2E/DX2                !
 ! A21   A(6,5,10)             118.1327         estimate D2E/DX2                !
 ! A22   A(5,6,7)              123.0172         estimate D2E/DX2                !
 ! A23   A(5,6,17)             121.1599         estimate D2E/DX2                !
 ! A24   A(7,6,17)             115.8227         estimate D2E/DX2                !
 ! A25   A(6,7,8)              117.8871         estimate D2E/DX2                !
 ! A26   A(7,8,9)              122.8254         estimate D2E/DX2                !
 ! A27   A(7,8,18)             116.2479         estimate D2E/DX2                !
 ! A28   A(9,8,18)             120.9267         estimate D2E/DX2                !
 ! A29   A(8,9,10)             118.5548         estimate D2E/DX2                !
 ! A30   A(8,9,19)             120.7758         estimate D2E/DX2                !
 ! A31   A(10,9,19)            120.6693         estimate D2E/DX2                !
 ! A32   A(5,10,9)             119.5824         estimate D2E/DX2                !
 ! A33   A(5,10,20)            120.5415         estimate D2E/DX2                !
 ! A34   A(9,10,20)            119.8759         estimate D2E/DX2                !
 ! D1    D(1,2,3,4)            177.6479         estimate D2E/DX2                !
 ! D2    D(1,2,3,13)           -59.3285         estimate D2E/DX2                !
 ! D3    D(1,2,3,14)            55.864          estimate D2E/DX2                !
 ! D4    D(11,2,3,4)            58.4582         estimate D2E/DX2                !
 ! D5    D(11,2,3,13)         -178.5182         estimate D2E/DX2                !
 ! D6    D(11,2,3,14)          -63.3257         estimate D2E/DX2                !
 ! D7    D(12,2,3,4)           -63.3025         estimate D2E/DX2                !
 ! D8    D(12,2,3,13)           59.7211         estimate D2E/DX2                !
 ! D9    D(12,2,3,14)          174.9136         estimate D2E/DX2                !
 ! D10   D(2,3,4,5)             61.5162         estimate D2E/DX2                !
 ! D11   D(2,3,4,15)           -62.1672         estimate D2E/DX2                !
 ! D12   D(2,3,4,16)          -177.3447         estimate D2E/DX2                !
 ! D13   D(13,3,4,5)           -61.1983         estimate D2E/DX2                !
 ! D14   D(13,3,4,15)          175.1183         estimate D2E/DX2                !
 ! D15   D(13,3,4,16)           59.9408         estimate D2E/DX2                !
 ! D16   D(14,3,4,5)          -176.7248         estimate D2E/DX2                !
 ! D17   D(14,3,4,15)           59.5918         estimate D2E/DX2                !
 ! D18   D(14,3,4,16)          -55.5857         estimate D2E/DX2                !
 ! D19   D(3,4,5,6)           -107.4854         estimate D2E/DX2                !
 ! D20   D(3,4,5,10)            72.3605         estimate D2E/DX2                !
 ! D21   D(15,4,5,6)            16.3031         estimate D2E/DX2                !
 ! D22   D(15,4,5,10)         -163.8511         estimate D2E/DX2                !
 ! D23   D(16,4,5,6)           130.4721         estimate D2E/DX2                !
 ! D24   D(16,4,5,10)          -49.6821         estimate D2E/DX2                !
 ! D25   D(4,5,6,7)            179.5892         estimate D2E/DX2                !
 ! D26   D(4,5,6,17)            -0.2428         estimate D2E/DX2                !
 ! D27   D(10,5,6,7)            -0.2606         estimate D2E/DX2                !
 ! D28   D(10,5,6,17)          179.9073         estimate D2E/DX2                !
 ! D29   D(4,5,10,9)          -179.6465         estimate D2E/DX2                !
 ! D30   D(4,5,10,20)            0.1743         estimate D2E/DX2                !
 ! D31   D(6,5,10,9)             0.2038         estimate D2E/DX2                !
 ! D32   D(6,5,10,20)         -179.9755         estimate D2E/DX2                !
 ! D33   D(5,6,7,8)              0.1593         estimate D2E/DX2                !
 ! D34   D(17,6,7,8)           179.9996         estimate D2E/DX2                !
 ! D35   D(6,7,8,9)             -0.0027         estimate D2E/DX2                !
 ! D36   D(6,7,8,18)           179.9727         estimate D2E/DX2                !
 ! D37   D(7,8,9,10)            -0.044          estimate D2E/DX2                !
 ! D38   D(7,8,9,19)           179.9898         estimate D2E/DX2                !
 ! D39   D(18,8,9,10)          179.9816         estimate D2E/DX2                !
 ! D40   D(18,8,9,19)            0.0155         estimate D2E/DX2                !
 ! D41   D(8,9,10,5)            -0.0608         estimate D2E/DX2                !
 ! D42   D(8,9,10,20)         -179.8827         estimate D2E/DX2                !
 ! D43   D(19,9,10,5)          179.9054         estimate D2E/DX2                !
 ! D44   D(19,9,10,20)           0.0835         estimate D2E/DX2                !
 --------------------------------------------------------------------------------
 Trust Radius=3.00D-01 FncErr=1.00D-07 GrdErr=1.00D-06 EigMax=2.50D+02 EigMin=1.00D-04
 Number of steps in this run=    108 maximum allowed number of steps=    120.
 GradGradGradGradGradGradGradGradGradGradGradGradGradGradGradGradGradGrad

                          Input orientation:                          
 ---------------------------------------------------------------------
 Center     Atomic      Atomic             Coordinates (Angstroms)
 Number     Number       Type             X           Y           Z
 ---------------------------------------------------------------------
      1         35           0        5.074600   -0.092900    1.346400
      2          6           0        3.621500   -1.451800    1.336700
      3          6           0        2.964900   -1.477100   -0.053000
      4          6           0        1.855500   -2.538200   -0.200300
      5          6           0        0.685400   -2.328700    0.750200
      6          6           0        0.487500   -3.172900    1.848900
      7          7           0       -0.536900   -3.017800    2.725700
      8          6           0       -1.403800   -1.995500    2.514500
      9          6           0       -1.282100   -1.109100    1.442500
     10          6           0       -0.221900   -1.282200    0.550300
     11          1           0        4.064600   -2.414000    1.596400
     12          1           0        2.909300   -1.181000    2.118200
     13          1           0        2.561100   -0.488300   -0.276600
     14          1           0        3.734400   -1.662700   -0.804000
     15          1           0        2.271800   -3.537900   -0.062800
     16          1           0        1.469800   -2.529700   -1.221400
     17          1           0        1.157200   -3.996800    2.048600
     18          1           0       -2.209500   -1.896800    3.228200
     19          1           0       -1.991800   -0.306300    1.305800
     20          1           0       -0.106300   -0.607400   -0.285700
 ---------------------------------------------------------------------
                    Distance matrix (angstroms):
                    1          2          3          4          5
     1  Br   0.000000
     2  C    1.989523   0.000000
     3  C    2.885336   1.537215   0.000000
     4  C    4.328323   2.580967   1.542206   0.000000
     5  C    4.961787   3.119875   2.562513   1.521997   0.000000
     6  C    5.548008   3.611993   3.553938   2.544305   1.399636
     7  N    6.476607   4.655531   4.728375   3.809865   2.423113
     8  C    6.852300   5.190035   5.093754   4.276412   2.754729
     9  C    6.438131   4.916699   4.517627   3.819117   2.416146
    10  C    5.486449   3.926692   3.249254   2.540970   1.399398
    11  H    2.543640   1.090693   2.192634   2.850207   3.484584
    12  H    2.543258   1.091469   2.192003   2.885815   2.852082
    13  H    3.017972   2.157665   1.091227   2.169282   2.821284
    14  H    2.980709   2.154025   1.091136   2.158986   3.486473
    15  H    4.659352   2.851684   2.174254   1.091610   2.154019
    16  H    5.052343   3.512201   2.169896   1.091550   2.131406
    17  H    5.574903   3.613392   3.746117   2.769962   2.165871
    18  H    7.736494   6.146247   6.141403   5.356326   3.835032
    19  H    7.069738   5.729072   5.271241   4.695895   3.400911
    20  H    5.456206   4.152311   3.200437   2.753896   2.159340
                    6          7          8          9         10
     6  C    0.000000
     7  N    1.357288   0.000000
     8  C    2.325147   1.356915   0.000000
     9  C    2.748803   2.417656   1.396317   0.000000
    10  C    2.400907   2.800696   2.400784   1.396427   0.000000
    11  H    3.665424   4.776368   5.560706   5.505783   4.555149
    12  H    3.147269   3.952111   4.407187   4.246125   3.503279
    13  H    4.003079   5.000978   5.077630   4.255688   3.009839
    14  H    4.456562   5.704304   6.125708   5.524356   4.198954
    15  H    2.640369   3.991871   4.746737   4.560176   3.417984
    16  H    3.287151   4.454737   4.743405   4.085024   2.749005
    17  H    1.080365   2.070478   3.283441   3.828362   3.393505
    18  H    3.287052   2.075268   1.080862   2.160849   3.391082
    19  H    3.828744   3.388965   2.158726   1.080208   2.157709
    20  H    3.389824   3.881234   3.383999   2.149624   1.080562
                   11         12         13         14         15
    11  H    0.000000
    12  H    1.768412   0.000000
    13  H    3.078467   2.517170   0.000000
    14  H    2.536810   3.074423   1.741838   0.000000
    15  H    2.688908   3.273858   3.070743   2.490974   0.000000
    16  H    3.832280   3.878670   2.500179   2.460554   1.732635
    17  H    3.341065   3.317142   4.437011   4.497478   2.431241
    18  H    6.503430   5.286453   6.084909   7.186333   5.797063
    19  H    6.419255   5.044390   4.823485   6.251435   5.522191
    20  H    4.919605   3.898922   2.670073   4.016624   3.780592
                   16         17         18         19         20
    16  H    0.000000
    17  H    3.597638   0.000000
    18  H    5.808335   4.139580   0.000000
    19  H    4.828346   4.907927   2.504537   0.000000
    20  H    2.656099   4.305046   4.293425   2.485688   0.000000
 Stoichiometry    C8H10BrN
 Framework group  C1[X(C8H10BrN)]
 Deg. of freedom    54
 Full point group                 C1      NOp   1
 Largest Abelian subgroup         C1      NOp   1
 Largest concise Abelian subgroup C1      NOp   1
                         Standard orientation:                         
 ---------------------------------------------------------------------
 Center     Atomic      Atomic             Coordinates (Angstroms)
 Number     Number       Type             X           Y           Z
 ---------------------------------------------------------------------
      1         35           0        3.032044   -0.457776    0.081115
      2          6           0        1.224347    0.064821   -0.564892
      3          6           0        0.710865    1.244997    0.275674
      4          6           0       -0.665413    1.778146   -0.171552
      5          6           0       -1.779192    0.746164   -0.066751
      6          6           0       -2.328053    0.157295   -1.211724
      7          7           0       -3.315934   -0.772253   -1.164162
      8          6           0       -3.786513   -1.136466    0.055314
      9          6           0       -3.298092   -0.597172    1.247081
     10          6           0       -2.280993    0.357327    1.180373
     11          1           0        1.310672    0.322936   -1.621081
     12          1           0        0.575997   -0.808912   -0.478078
     13          1           0        0.667220    0.945953    1.324218
     14          1           0        1.438223    2.056840    0.226272
     15          1           0       -0.606440    2.159104   -1.192829
     16          1           0       -0.942731    2.640697    0.437202
     17          1           0       -1.978526    0.422459   -2.198997
     18          1           0       -4.572973   -1.877880    0.062288
     19          1           0       -3.697306   -0.911253    2.200406
     20          1           0       -1.885891    0.787314    2.089560
 ---------------------------------------------------------------------
 Rotational constants (GHZ):           2.1981973           0.3331806           0.3259119
 Standard basis: 6-31G(d,p) (6D, 7F)
 There are   215 symmetry adapted cartesian basis functions of A   symmetry.
 There are   215 symmetry adapted basis functions of A   symmetry.
   215 basis functions,   405 primitive gaussians,   215 cartesian basis functions
    50 alpha electrons       50 beta electrons
       nuclear repulsion energy       692.3592062318 Hartrees.
 NAtoms=   20 NActive=   20 NUniq=   20 SFac= 1.00D+00 NAtFMM=   60 NAOKFM=F Big=F
 Integral buffers will be    131072 words long.
 Raffenetti 2 integral format.
 Two-electron integral symmetry is turned on.
 Nuclear repulsion after empirical dispersion term =      692.3213983477 Hartrees.
 One-electron integrals computed using PRISM.
 NBasis=   215 RedAO= T EigKep=  7.51D-04  NBF=   215
 NBsUse=   215 1.00D-06 EigRej= -1.00D+00 NBFU=   215
 ExpMin= 1.43D-01 ExpMax= 5.74D+05 ExpMxC= 5.74D+03 IAcc=3 IRadAn=         5 AccDes= 0.00D+00
 Harris functional with IExCor=  402 and IRadAn=       5 diagonalized for initial guess.
 HarFok:  IExCor=  402 AccDes= 0.00D+00 IRadAn=         5 IDoV= 1 UseB2=F ITyADJ=14
 ICtDFT=  3500011 ScaDFX=  1.000000  1.000000  1.000000  1.000000
 FoFCou: FMM=F IPFlag=           0 FMFlag=      100000 FMFlg1=           0
         NFxFlg=           0 DoJE=T BraDBF=F KetDBF=T FulRan=T
         wScrn=  0.000000 ICntrl=       500 IOpCl=  0 I1Cent=   200000004 NGrid=           0
         NMat0=    1 NMatS0=      1 NMatT0=    0 NMatD0=    1 NMtDS0=    0 NMtDT0=    0
 Petite list used in FoFCou.
 Requested convergence on RMS density matrix=1.00D-08 within 128 cycles.
 Requested convergence on MAX density matrix=1.00D-06.
 Requested convergence on             energy=1.00D-06.
 No special actions if energy rises.
 Integral accuracy reduced to 1.0D-05 until final iterations.
 Initial convergence to 1.0D-05 achieved.  Increase integral accuracy.
 SCF Done:  E(RB3LYP) =  -2937.38456568     A.U. after   14 cycles
            NFock= 14  Conv=0.52D-08     -V/T= 2.0066

 **********************************************************************

            Population analysis using the SCF Density.

 **********************************************************************

 Orbital symmetries:
       Occupied  (A) (A) (A) (A) (A) (A) (A) (A) (A) (A) (A) (A)
                 (A) (A) (A) (A) (A) (A) (A) (A) (A) (A) (A) (A)
                 (A) (A) (A) (A) (A) (A) (A) (A) (A) (A) (A) (A)
                 (A) (A) (A) (A) (A) (A) (A) (A) (A) (A) (A) (A)
                 (A) (A)
       Virtual   (A) (A) (A) (A) (A) (A) (A) (A) (A) (A) (A) (A)
                 (A) (A) (A) (A) (A) (A) (A) (A) (A) (A) (A) (A)
                 (A) (A) (A) (A) (A) (A) (A) (A) (A) (A) (A) (A)
                 (A) (A) (A) (A) (A) (A) (A) (A) (A) (A) (A) (A)
                 (A) (A) (A) (A) (A) (A) (A) (A) (A) (A) (A) (A)
                 (A) (A) (A) (A) (A) (A) (A) (A) (A) (A) (A) (A)
                 (A) (A) (A) (A) (A) (A) (A) (A) (A) (A) (A) (A)
                 (A) (A) (A) (A) (A) (A) (A) (A) (A) (A) (A) (A)
                 (A) (A) (A) (A) (A) (A) (A) (A) (A) (A) (A) (A)
                 (A) (A) (A) (A) (A) (A) (A) (A) (A) (A) (A) (A)
                 (A) (A) (A) (A) (A) (A) (A) (A) (A) (A) (A) (A)
                 (A) (A) (A) (A) (A) (A) (A) (A) (A) (A) (A) (A)
                 (A) (A) (A) (A) (A) (A) (A) (A) (A) (A) (A) (A)
                 (A) (A) (A) (A) (A) (A) (A) (A) (A)
 The electronic state is 1-A.
 Alpha  occ. eigenvalues -- -482.89574 -61.85822 -56.37896 -56.37520 -56.37513
 Alpha  occ. eigenvalues --  -14.33506 -10.24615 -10.22645 -10.22635 -10.21231
 Alpha  occ. eigenvalues --  -10.21160 -10.20695 -10.20591 -10.20509  -8.56969
 Alpha  occ. eigenvalues --   -6.52353  -6.51084  -6.51072  -2.63915  -2.63563
 Alpha  occ. eigenvalues --   -2.63553  -2.62541  -2.62541  -0.93407  -0.83600
 Alpha  occ. eigenvalues --   -0.80527  -0.77936  -0.74194  -0.67863  -0.63730
 Alpha  occ. eigenvalues --   -0.62501  -0.59089  -0.52548  -0.49650  -0.48128
 Alpha  occ. eigenvalues --   -0.45889  -0.44738  -0.42717  -0.42045  -0.40683
 Alpha  occ. eigenvalues --   -0.39077  -0.38010  -0.36501  -0.35523  -0.34896
 Alpha  occ. eigenvalues --   -0.28573  -0.27448  -0.27223  -0.25861  -0.25490
 Alpha virt. eigenvalues --   -0.03306  -0.01506  -0.00240   0.08768   0.10079
 Alpha virt. eigenvalues --    0.11448   0.11934   0.13412   0.14620   0.15429
 Alpha virt. eigenvalues --    0.15877   0.16710   0.17150   0.18710   0.20652
 Alpha virt. eigenvalues --    0.21797   0.23722   0.25392   0.29684   0.30436
 Alpha virt. eigenvalues --    0.32215   0.35934   0.40903   0.43035   0.43065
 Alpha virt. eigenvalues --    0.45104   0.45671   0.46567   0.47667   0.50346
 Alpha virt. eigenvalues --    0.51240   0.51585   0.52606   0.53156   0.55097
 Alpha virt. eigenvalues --    0.56131   0.57735   0.58609   0.58934   0.59349
 Alpha virt. eigenvalues --    0.62097   0.62592   0.64040   0.65726   0.66385
 Alpha virt. eigenvalues --    0.68326   0.70726   0.75269   0.76558   0.78159
 Alpha virt. eigenvalues --    0.79312   0.80673   0.81713   0.83084   0.84697
 Alpha virt. eigenvalues --    0.85680   0.86421   0.86879   0.88968   0.90036
 Alpha virt. eigenvalues --    0.91614   0.93173   0.93968   0.96347   0.97501
 Alpha virt. eigenvalues --    0.99547   1.03164   1.06132   1.09122   1.12660
 Alpha virt. eigenvalues --    1.14875   1.18770   1.24516   1.28874   1.31985
 Alpha virt. eigenvalues --    1.34420   1.37020   1.39648   1.42551   1.43952
 Alpha virt. eigenvalues --    1.46564   1.47220   1.48668   1.51935   1.57478
 Alpha virt. eigenvalues --    1.64234   1.65570   1.70283   1.72441   1.77348
 Alpha virt. eigenvalues --    1.78811   1.80497   1.81782   1.85075   1.85784
 Alpha virt. eigenvalues --    1.88256   1.90371   1.93490   1.96626   1.98211
 Alpha virt. eigenvalues --    1.99352   2.07071   2.08678   2.09099   2.10129
 Alpha virt. eigenvalues --    2.11041   2.12960   2.14292   2.19552   2.20710
 Alpha virt. eigenvalues --    2.22673   2.26262   2.29861   2.30487   2.31820
 Alpha virt. eigenvalues --    2.33451   2.35274   2.38843   2.39834   2.43408
 Alpha virt. eigenvalues --    2.45073   2.49100   2.49551   2.50548   2.52667
 Alpha virt. eigenvalues --    2.54448   2.58619   2.60963   2.62513   2.63734
 Alpha virt. eigenvalues --    2.65290   2.67270   2.70852   2.72832   2.77464
 Alpha virt. eigenvalues --    2.79947   2.81988   2.84292   2.87466   2.88963
 Alpha virt. eigenvalues --    2.98011   3.04588   3.17494   3.21063   3.23491
 Alpha virt. eigenvalues --    3.26304   3.29327   3.33405   3.38385   3.39433
 Alpha virt. eigenvalues --    3.46143   3.48944   3.54296   3.78950   4.09393
 Alpha virt. eigenvalues --    4.16820   4.17072   4.26342   4.31654   4.43680
 Alpha virt. eigenvalues --    4.51379   4.65680   4.74105   8.62473  72.91057
          Condensed to atoms (all electrons):
               1          2          3          4          5          6
     1  Br  35.013265   0.252318  -0.048746   0.004648   0.000053   0.000006
     2  C    0.252318   4.975772   0.348491  -0.039448  -0.004993   0.000893
     3  C   -0.048746   0.348491   4.965818   0.329034  -0.045400  -0.002432
     4  C    0.004648  -0.039448   0.329034   5.060487   0.340686  -0.040002
     5  C    0.000053  -0.004993  -0.045400   0.340686   4.832291   0.486341
     6  C    0.000006   0.000893  -0.002432  -0.040002   0.486341   4.818279
     7  N    0.000000  -0.000045  -0.000075   0.005826  -0.017565   0.438299
     8  C   -0.000000   0.000018   0.000012   0.000266  -0.033229  -0.072771
     9  C   -0.000001  -0.000046   0.000095   0.006816  -0.020137  -0.041110
    10  C   -0.000014  -0.000945  -0.003460  -0.065259   0.531668  -0.038971
    11  H   -0.036485   0.378220  -0.038462  -0.000455  -0.001205   0.000399
    12  H   -0.035244   0.378957  -0.034935  -0.004916   0.007781   0.001769
    13  H    0.001237  -0.040672   0.386725  -0.035141  -0.007712   0.000054
    14  H    0.000883  -0.040553   0.381026  -0.030021   0.004882  -0.000043
    15  H    0.000005  -0.006113  -0.035203   0.374786  -0.035630  -0.005327
    16  H   -0.000141   0.004609  -0.030015   0.371027  -0.029105   0.002322
    17  H   -0.000001   0.000080   0.000052  -0.004817  -0.066320   0.387654
    18  H   -0.000000  -0.000000   0.000000   0.000014   0.000713   0.004537
    19  H    0.000000   0.000000  -0.000001  -0.000109   0.004988   0.000490
    20  H   -0.000003   0.000088   0.000471  -0.008700  -0.049024   0.005464
               7          8          9         10         11         12
     1  Br   0.000000  -0.000000  -0.000001  -0.000014  -0.036485  -0.035244
     2  C   -0.000045   0.000018  -0.000046  -0.000945   0.378220   0.378957
     3  C   -0.000075   0.000012   0.000095  -0.003460  -0.038462  -0.034935
     4  C    0.005826   0.000266   0.006816  -0.065259  -0.000455  -0.004916
     5  C   -0.017565  -0.033229  -0.020137   0.531668  -0.001205   0.007781
     6  C    0.438299  -0.072771  -0.041110  -0.038971   0.000399   0.001769
     7  N    6.727542   0.458942  -0.024162  -0.055638   0.000007  -0.000061
     8  C    0.458942   4.727789   0.501388  -0.038502  -0.000001  -0.000015
     9  C   -0.024162   0.501388   4.900444   0.516804   0.000000  -0.000095
    10  C   -0.055638  -0.038502   0.516804   4.892440   0.000051   0.001129
    11  H    0.000007  -0.000001   0.000000   0.000051   0.586340  -0.037769
    12  H   -0.000061  -0.000015  -0.000095   0.001129  -0.037769   0.566125
    13  H    0.000001  -0.000003  -0.000122   0.003952   0.005475  -0.005581
    14  H    0.000001  -0.000000   0.000003   0.000079  -0.005238   0.005429
    15  H    0.000106   0.000003  -0.000207   0.004736   0.004092  -0.000182
    16  H   -0.000172   0.000030  -0.000036  -0.005964  -0.000065   0.000006
    17  H   -0.049666   0.004850   0.000290   0.004230   0.000294   0.000067
    18  H   -0.050069   0.388434  -0.061319   0.003417  -0.000000   0.000000
    19  H    0.004842  -0.035292   0.359573  -0.039771   0.000000  -0.000001
    20  H   -0.000284   0.004780  -0.044252   0.375117  -0.000000   0.000008
              13         14         15         16         17         18
     1  Br   0.001237   0.000883   0.000005  -0.000141  -0.000001  -0.000000
     2  C   -0.040672  -0.040553  -0.006113   0.004609   0.000080  -0.000000
     3  C    0.386725   0.381026  -0.035203  -0.030015   0.000052   0.000000
     4  C   -0.035141  -0.030021   0.374786   0.371027  -0.004817   0.000014
     5  C   -0.007712   0.004882  -0.035630  -0.029105  -0.066320   0.000713
     6  C    0.000054  -0.000043  -0.005327   0.002322   0.387654   0.004537
     7  N    0.000001   0.000001   0.000106  -0.000172  -0.049666  -0.050069
     8  C   -0.000003  -0.000000   0.000003   0.000030   0.004850   0.388434
     9  C   -0.000122   0.000003  -0.000207  -0.000036   0.000290  -0.061319
    10  C    0.003952   0.000079   0.004736  -0.005964   0.004230   0.003417
    11  H    0.005475  -0.005238   0.004092  -0.000065   0.000294  -0.000000
    12  H   -0.005581   0.005429  -0.000182   0.000006   0.000067   0.000000
    13  H    0.604034  -0.035414   0.005490  -0.003944   0.000011  -0.000000
    14  H   -0.035414   0.604932  -0.003920  -0.003520  -0.000011   0.000000
    15  H    0.005490  -0.003920   0.619495  -0.035928   0.005899  -0.000000
    16  H   -0.003944  -0.003520  -0.035928   0.609214  -0.000052  -0.000000
    17  H    0.000011  -0.000011   0.005899  -0.000052   0.619346  -0.000189
    18  H   -0.000000   0.000000  -0.000000  -0.000000  -0.000189   0.612675
    19  H    0.000003  -0.000000   0.000003  -0.000006   0.000026  -0.002253
    20  H    0.001774  -0.000094   0.000046   0.002988  -0.000174  -0.000189
              19         20
     1  Br   0.000000  -0.000003
     2  C    0.000000   0.000088
     3  C   -0.000001   0.000471
     4  C   -0.000109  -0.008700
     5  C    0.004988  -0.049024
     6  C    0.000490   0.005464
     7  N    0.004842  -0.000284
     8  C   -0.035292   0.004780
     9  C    0.359573  -0.044252
    10  C   -0.039771   0.375117
    11  H    0.000000  -0.000000
    12  H   -0.000001   0.000008
    13  H    0.000003   0.001774
    14  H   -0.000000  -0.000094
    15  H    0.000003   0.000046
    16  H   -0.000006   0.002988
    17  H    0.000026  -0.000174
    18  H   -0.002253  -0.000189
    19  H    0.618871  -0.006410
    20  H   -0.006410   0.621829
 Mulliken charges:
               1
     1  Br  -0.151781
     2  C   -0.206630
     3  C   -0.172998
     4  C   -0.264722
     5  C    0.100916
     6  C    0.054151
     7  N   -0.437830
     8  C    0.093300
     9  C   -0.093930
    10  C   -0.085101
    11  H    0.144802
    12  H    0.157529
    13  H    0.119834
    14  H    0.121580
    15  H    0.107851
    16  H    0.118753
    17  H    0.098431
    18  H    0.104231
    19  H    0.095048
    20  H    0.096567
 Sum of Mulliken charges =  -0.00000
 Mulliken charges with hydrogens summed into heavy atoms:
               1
     1  Br  -0.151781
     2  C    0.095701
     3  C    0.068416
     4  C   -0.038118
     5  C    0.100916
     6  C    0.152582
     7  N   -0.437830
     8  C    0.197531
     9  C    0.001118
    10  C    0.011466
 Electronic spatial extent (au):  <R**2>=           3132.8570
 Charge=             -0.0000 electrons
 Dipole moment (field-independent basis, Debye):
    X=             -1.0233    Y=              1.7130    Z=              1.3885  Tot=              2.4309
 Quadrupole moment (field-independent basis, Debye-Ang):
   XX=            -81.3740   YY=            -70.6564   ZZ=            -69.9908
   XY=              1.1512   XZ=             -7.9680   YZ=             -2.4778
 Traceless Quadrupole moment (field-independent basis, Debye-Ang):
   XX=             -7.3670   YY=              3.3507   ZZ=              4.0163
   XY=              1.1512   XZ=             -7.9680   YZ=             -2.4778
 Octapole moment (field-independent basis, Debye-Ang**2):
  XXX=             91.6694  YYY=            -10.7620  ZZZ=              7.6595  XYY=             29.2515
  XXY=            -11.6360  XXZ=             32.2065  XZZ=             34.0351  YZZ=              0.9230
  YYZ=              3.3712  XYZ=              8.3586
 Hexadecapole moment (field-independent basis, Debye-Ang**3):
 XXXX=          -2943.7483 YYYY=           -423.3657 ZZZZ=           -337.5940 XXXY=              5.4541
 XXXZ=            -81.5116 YYYX=            -32.3378 YYYZ=             -1.2958 ZZZX=            -23.6231
 ZZZY=            -11.4438 XXYY=           -545.1170 XXZZ=           -565.0357 YYZZ=           -133.9301
 XXYZ=            -39.8184 YYXZ=             -5.8895 ZZXY=            -24.2008
 N-N= 6.923213983477D+02 E-N=-8.365195095333D+03  KE= 2.918020034645D+03
 Calling FoFJK, ICntrl=      2127 FMM=F ISym2X=0 I1Cent= 0 IOpClX= 0 NMat=1 NMatS=1 NMatT=0.
 ***** Axes restored to original set *****
 -------------------------------------------------------------------
 Center     Atomic                   Forces (Hartrees/Bohr)
 Number     Number              X              Y              Z
 -------------------------------------------------------------------
      1       35          -0.004402941   -0.005045167    0.002480077
      2        6          -0.007862880   -0.001070816   -0.008275572
      3        6           0.002668844   -0.001253496    0.002292173
      4        6          -0.005379678    0.001329971    0.007357689
      5        6           0.007805500   -0.003496493   -0.005259896
      6        6          -0.023446675    0.015127695    0.009262791
      7        7           0.000860929    0.007048755   -0.008376816
      8        6           0.018127944   -0.012955452   -0.004525394
      9        6           0.005633936   -0.004051545   -0.000833735
     10        6          -0.003728724   -0.002956276    0.008515158
     11        1           0.003851682    0.001575230   -0.000829026
     12        1           0.002582533    0.003191973   -0.000546671
     13        1          -0.001356301    0.002572483    0.001192930
     14        1           0.002278234   -0.000914856   -0.001071854
     15        1           0.001705546   -0.002287787    0.003088017
     16        1           0.001443207    0.003132246   -0.003809203
     17        1           0.003475593   -0.003865993    0.000078298
     18        1          -0.002886891   -0.000221280    0.003103933
     19        1          -0.002710087    0.002326854   -0.000008459
     20        1           0.001340230    0.001813954   -0.003834441
 -------------------------------------------------------------------
 Cartesian Forces:  Max     0.023446675 RMS     0.006057906

 GradGradGradGradGradGradGradGradGradGradGradGradGradGradGradGradGradGrad
 Berny optimization.
 FormGI is forming the generalized inverse of G from B-inverse, IUseBI=4.
 Internal  Forces:  Max     0.018585732 RMS     0.003629990
 Search for a local minimum.
 Step number   1 out of a maximum of  108
 All quantities printed in internal units (Hartrees-Bohrs-Radians)
 Mixed Optimization -- RFO/linear search
 Second derivative matrix not updated -- first step.
 ITU=  0
     Eigenvalues ---    0.00230   0.00274   0.00475   0.01424   0.02103
     Eigenvalues ---    0.02116   0.02137   0.02140   0.02144   0.02177
     Eigenvalues ---    0.02228   0.03305   0.03819   0.04712   0.05239
     Eigenvalues ---    0.05560   0.05634   0.08508   0.09532   0.12343
     Eigenvalues ---    0.12952   0.14493   0.16000   0.16000   0.16000
     Eigenvalues ---    0.16000   0.16000   0.16000   0.21894   0.21910
     Eigenvalues ---    0.22000   0.22249   0.23191   0.23456   0.25000
     Eigenvalues ---    0.28324   0.28767   0.30175   0.34627   0.34634
     Eigenvalues ---    0.34643   0.34671   0.34682   0.34733   0.35890
     Eigenvalues ---    0.35926   0.35950   0.35969   0.42085   0.43650
     Eigenvalues ---    0.45863   0.46094   0.51765   0.52880
 RFO step:  Lambda=-4.35288310D-03 EMin= 2.30000000D-03
 Linear search not attempted -- first point.
 Iteration  1 RMS(Cart)=  0.04560062 RMS(Int)=  0.00073772
 Iteration  2 RMS(Cart)=  0.00097769 RMS(Int)=  0.00010301
 Iteration  3 RMS(Cart)=  0.00000057 RMS(Int)=  0.00010301
 Variable       Old X    -DE/DX   Delta X   Delta X   Delta X     New X
                                 (Linear)    (Quad)   (Total)
    R1        3.75965  -0.00665   0.00000  -0.04454  -0.04454   3.71511
    R2        2.90492  -0.00900   0.00000  -0.03080  -0.03080   2.87411
    R3        2.06111  -0.00002   0.00000  -0.00006  -0.00006   2.06105
    R4        2.06258  -0.00128   0.00000  -0.00366  -0.00366   2.05892
    R5        2.91435  -0.00272   0.00000  -0.00944  -0.00944   2.90490
    R6        2.06212   0.00259   0.00000   0.00737   0.00737   2.06949
    R7        2.06195   0.00250   0.00000   0.00712   0.00712   2.06907
    R8        2.87616  -0.00478   0.00000  -0.01562  -0.01562   2.86054
    R9        2.06284   0.00313   0.00000   0.00894   0.00894   2.07178
   R10        2.06273   0.00308   0.00000   0.00878   0.00878   2.07151
   R11        2.64493  -0.00156   0.00000  -0.00351  -0.00347   2.64146
   R12        2.64448  -0.00393   0.00000  -0.00700  -0.00697   2.63751
   R13        2.56490  -0.01699   0.00000  -0.03285  -0.03283   2.53207
   R14        2.04159   0.00512   0.00000   0.01406   0.01406   2.05566
   R15        2.56420  -0.01859   0.00000  -0.03569  -0.03572   2.52848
   R16        2.63866  -0.00124   0.00000  -0.00264  -0.00268   2.63598
   R17        2.04253   0.00418   0.00000   0.01151   0.01151   2.05404
   R18        2.63886  -0.00516   0.00000  -0.00949  -0.00951   2.62936
   R19        2.04130   0.00351   0.00000   0.00964   0.00964   2.05094
   R20        2.04197   0.00424   0.00000   0.01167   0.01167   2.05363
    A1        1.90458   0.00542   0.00000   0.01678   0.01681   1.92139
    A2        1.88040  -0.00409   0.00000  -0.03191  -0.03188   1.84852
    A3        1.87929  -0.00421   0.00000  -0.03187  -0.03185   1.84744
    A4        1.95440   0.00054   0.00000   0.00908   0.00887   1.96326
    A5        1.95268   0.00096   0.00000   0.01201   0.01179   1.96447
    A6        1.88965   0.00094   0.00000   0.02239   0.02200   1.91165
    A7        1.98770  -0.00662   0.00000  -0.03503  -0.03517   1.95253
    A8        1.90539   0.00119   0.00000  -0.00580  -0.00602   1.89937
    A9        1.90054   0.00170   0.00000   0.00724   0.00742   1.90795
   A10        1.91526   0.00212   0.00000   0.00465   0.00417   1.91943
   A11        1.90132   0.00241   0.00000   0.01590   0.01588   1.91720
   A12        1.84841  -0.00037   0.00000   0.01689   0.01677   1.86518
   A13        1.98088  -0.00059   0.00000  -0.00737  -0.00743   1.97345
   A14        1.92169   0.00021   0.00000  -0.00594  -0.00605   1.91564
   A15        1.91577  -0.00307   0.00000  -0.02398  -0.02391   1.89187
   A16        1.91833  -0.00079   0.00000  -0.00960  -0.00975   1.90859
   A17        1.88754   0.00285   0.00000   0.02532   0.02526   1.91280
   A18        1.83353   0.00158   0.00000   0.02443   0.02436   1.85788
   A19        2.11287   0.00242   0.00000   0.00828   0.00816   2.12102
   A20        2.10851   0.00253   0.00000   0.00870   0.00857   2.11708
   A21        2.06180  -0.00495   0.00000  -0.01704  -0.01705   2.04476
   A22        2.14706   0.00763   0.00000   0.03028   0.03034   2.17739
   A23        2.11464  -0.00470   0.00000  -0.02055  -0.02058   2.09406
   A24        2.02149  -0.00292   0.00000  -0.00972  -0.00975   2.01173
   A25        2.05752  -0.00272   0.00000  -0.01964  -0.01965   2.03787
   A26        2.14371   0.00357   0.00000   0.01263   0.01258   2.15629
   A27        2.02891  -0.00253   0.00000  -0.01085  -0.01082   2.01808
   A28        2.11057  -0.00104   0.00000  -0.00178  -0.00175   2.10881
   A29        2.06917  -0.00056   0.00000   0.00072   0.00067   2.06984
   A30        2.10794  -0.00037   0.00000  -0.00433  -0.00431   2.10363
   A31        2.10608   0.00093   0.00000   0.00361   0.00363   2.10971
   A32        2.08711  -0.00296   0.00000  -0.00691  -0.00689   2.08021
   A33        2.10385   0.00015   0.00000  -0.00462  -0.00464   2.09921
   A34        2.09223   0.00281   0.00000   0.01155   0.01153   2.10376
    D1        3.10054   0.00037   0.00000   0.02438   0.02428   3.12482
    D2       -1.03548  -0.00063   0.00000   0.00144   0.00154  -1.03393
    D3        0.97501   0.00050   0.00000   0.02233   0.02230   0.99732
    D4        1.02029   0.00158   0.00000   0.04745   0.04747   1.06776
    D5       -3.11573   0.00058   0.00000   0.02451   0.02473  -3.09100
    D6       -1.10524   0.00171   0.00000   0.04540   0.04549  -1.05975
    D7       -1.10484  -0.00073   0.00000   0.00314   0.00294  -1.10190
    D8        1.04233  -0.00173   0.00000  -0.01980  -0.01980   1.02253
    D9        3.05282  -0.00060   0.00000   0.00109   0.00096   3.05378
   D10        1.07366  -0.00111   0.00000  -0.01793  -0.01788   1.05578
   D11       -1.08502   0.00020   0.00000   0.00459   0.00462  -1.08040
   D12       -3.09525  -0.00007   0.00000  -0.00778  -0.00769  -3.10294
   D13       -1.06811   0.00044   0.00000   0.01101   0.01104  -1.05707
   D14        3.05639   0.00175   0.00000   0.03353   0.03355   3.08994
   D15        1.04616   0.00147   0.00000   0.02117   0.02123   1.06739
   D16       -3.08443  -0.00164   0.00000  -0.02069  -0.02079  -3.10522
   D17        1.04007  -0.00033   0.00000   0.00183   0.00172   1.04179
   D18       -0.97015  -0.00060   0.00000  -0.01054  -0.01060  -0.98075
   D19       -1.87597  -0.00026   0.00000   0.01366   0.01367  -1.86230
   D20        1.26293  -0.00073   0.00000  -0.01151  -0.01168   1.25125
   D21        0.28454  -0.00102   0.00000  -0.00683  -0.00673   0.27781
   D22       -2.85974  -0.00150   0.00000  -0.03199  -0.03209  -2.89183
   D23        2.27717   0.00199   0.00000   0.03089   0.03106   2.30823
   D24       -0.86712   0.00152   0.00000   0.00572   0.00571  -0.86141
   D25        3.13442  -0.00032   0.00000  -0.01594  -0.01580   3.11862
   D26       -0.00424  -0.00046   0.00000  -0.02183  -0.02172  -0.02595
   D27       -0.00455   0.00013   0.00000   0.00853   0.00851   0.00396
   D28        3.13997  -0.00001   0.00000   0.00265   0.00260  -3.14062
   D29       -3.13542   0.00032   0.00000   0.01677   0.01677  -3.11865
   D30        0.00304   0.00045   0.00000   0.02212   0.02206   0.02511
   D31        0.00356  -0.00013   0.00000  -0.00764  -0.00749  -0.00393
   D32       -3.14116   0.00000   0.00000  -0.00229  -0.00219   3.13983
   D33        0.00278  -0.00007   0.00000  -0.00431  -0.00432  -0.00154
   D34        3.14159   0.00005   0.00000   0.00126   0.00132  -3.14028
   D35       -0.00005   0.00001   0.00000  -0.00081  -0.00084  -0.00088
   D36        3.14112  -0.00004   0.00000  -0.00155  -0.00157   3.13955
   D37       -0.00077   0.00002   0.00000   0.00149   0.00147   0.00070
   D38        3.14141  -0.00009   0.00000  -0.00199  -0.00198   3.13944
   D39        3.14127   0.00007   0.00000   0.00227   0.00224  -3.13967
   D40        0.00027  -0.00004   0.00000  -0.00122  -0.00120  -0.00093
   D41       -0.00106   0.00003   0.00000   0.00285   0.00288   0.00182
   D42       -3.13955  -0.00009   0.00000  -0.00243  -0.00240   3.14124
   D43        3.13994   0.00014   0.00000   0.00633   0.00634  -3.13690
   D44        0.00146   0.00001   0.00000   0.00105   0.00106   0.00252
         Item               Value     Threshold  Converged?
 Maximum Force            0.018586     0.000450     NO 
 RMS     Force            0.003630     0.000300     NO 
 Maximum Displacement     0.196582     0.001800     NO 
 RMS     Displacement     0.045821     0.001200     NO 
 Predicted change in Energy=-2.242131D-03
 GradGradGradGradGradGradGradGradGradGradGradGradGradGradGradGradGradGrad

                          Input orientation:                          
 ---------------------------------------------------------------------
 Center     Atomic      Atomic             Coordinates (Angstroms)
 Number     Number       Type             X           Y           Z
 ---------------------------------------------------------------------
      1         35           0        4.970573   -0.113312    1.445038
      2          6           0        3.551556   -1.468910    1.327954
      3          6           0        2.956138   -1.482322   -0.071502
      4          6           0        1.856079   -2.546326   -0.215632
      5          6           0        0.693194   -2.328934    0.728733
      6          6           0        0.496343   -3.145675    1.845887
      7          7           0       -0.493816   -2.996494    2.736221
      8          6           0       -1.345756   -1.986362    2.526201
      9          6           0       -1.247091   -1.106161    1.448584
     10          6           0       -0.209856   -1.281979    0.537974
     11          1           0        4.021720   -2.417398    1.590355
     12          1           0        2.820785   -1.201380    2.090502
     13          1           0        2.548081   -0.490145   -0.291461
     14          1           0        3.750810   -1.667975   -0.801463
     15          1           0        2.280103   -3.543089   -0.046426
     16          1           0        1.496181   -2.533777   -1.250986
     17          1           0        1.173583   -3.974695    2.039275
     18          1           0       -2.142670   -1.883551    3.258200
     19          1           0       -1.967304   -0.303812    1.324367
     20          1           0       -0.103355   -0.614805   -0.313221
 ---------------------------------------------------------------------
                    Distance matrix (angstroms):
                    1          2          3          4          5
     1  Br   0.000000
     2  C    1.965951   0.000000
     3  C    2.869152   1.520915   0.000000
     4  C    4.286894   2.533402   1.537208   0.000000
     5  C    4.870118   3.044494   2.545200   1.513732   0.000000
     6  C    5.419838   3.523368   3.534645   2.541252   1.397802
     7  N    6.311849   4.547721   4.698746   3.799749   2.425828
     8  C    6.676320   5.068256   5.050585   4.252406   2.739629
     9  C    6.296436   4.813850   4.485453   3.804386   2.403761
    10  C    5.387522   3.848017   3.230343   2.536647   1.395709
    11  H    2.496047   1.090659   2.184400   2.822803   3.439376
    12  H    2.494415   1.089531   2.184378   2.838625   2.766304
    13  H    3.004314   2.141833   1.095129   2.170829   2.804024
    14  H    2.991917   2.147964   1.094904   2.169033   3.482439
    15  H    4.607219   2.794232   2.168966   1.096341   2.143203
    16  H    5.019821   3.465465   2.151329   1.096194   2.146167
    17  H    5.447985   3.526995   3.720861   2.755112   2.157967
    18  H    7.551129   6.026773   6.102930   5.338237   3.826056
    19  H    6.941541   5.640504   5.251440   4.692411   3.396197
    20  H    5.393303   4.096502   3.189281   2.753122   2.158332
                    6          7          8          9         10
     6  C    0.000000
     7  N    1.339912   0.000000
     8  C    2.280387   1.338013   0.000000
     9  C    2.712384   2.408068   1.394900   0.000000
    10  C    2.383845   2.802229   2.395719   1.391395   0.000000
    11  H    3.608873   4.694510   5.465473   5.431373   4.505876
    12  H    3.040255   3.824391   4.262170   4.119313   3.406115
    13  H    3.978659   4.970089   5.033870   4.220256   2.986834
    14  H    4.447878   5.683047   6.095056   5.509751   4.198804
    15  H    2.630700   3.966928   4.710484   4.540348   3.413800
    16  H    3.311301   4.480180   4.758509   4.105034   2.770909
    17  H    1.087808   2.054952   3.246172   3.799613   3.379130
    18  H    3.248381   2.056654   1.086953   2.163587   3.390766
    19  H    3.797068   3.378614   2.159096   1.085311   2.159595
    20  H    3.380339   3.888959   3.389254   2.157202   1.086737
                   11         12         13         14         15
    11  H    0.000000
    12  H    1.780756   0.000000
    13  H    3.070366   2.500794   0.000000
    14  H    2.521076   3.073454   1.758961   0.000000
    15  H    2.641868   3.215960   3.074463   2.499823   0.000000
    16  H    3.803303   3.833458   2.490706   2.456632   1.756192
    17  H    3.276979   3.226015   4.411764   4.475807   2.400170
    18  H    6.408308   5.144392   6.045232   7.159641   5.765027
    19  H    6.356603   4.931367   4.799409   6.251154   5.514748
    20  H    4.887657   3.830476   2.654454   4.025188   3.785089
                   16         17         18         19         20
    16  H    0.000000
    17  H    3.606401   0.000000
    18  H    5.830677   4.105630   0.000000
    19  H    4.858077   4.883814   2.503205   0.000000
    20  H    2.668403   4.295773   4.303902   2.500543   0.000000
 Stoichiometry    C8H10BrN
 Framework group  C1[X(C8H10BrN)]
 Deg. of freedom    54
 Full point group                 C1      NOp   1
 Largest Abelian subgroup         C1      NOp   1
 Largest concise Abelian subgroup C1      NOp   1
                         Standard orientation:                         
 ---------------------------------------------------------------------
 Center     Atomic      Atomic             Coordinates (Angstroms)
 Number     Number       Type             X           Y           Z
 ---------------------------------------------------------------------
      1         35           0        2.958236   -0.476639    0.091314
      2          6           0        1.187727    0.097085   -0.542015
      3          6           0        0.718190    1.309388    0.247312
      4          6           0       -0.654929    1.807726   -0.231449
      5          6           0       -1.746513    0.769080   -0.086383
      6          6           0       -2.274317    0.103541   -1.196486
      7          7           0       -3.221370   -0.842687   -1.140728
      8          6           0       -3.682741   -1.162479    0.073829
      9          6           0       -3.229692   -0.568082    1.251617
     10          6           0       -2.245476    0.411799    1.167168
     11          1           0        1.305341    0.311363   -1.604931
     12          1           0        0.532589   -0.764068   -0.414386
     13          1           0        0.670417    1.043276    1.308542
     14          1           0        1.457934    2.111169    0.153828
     15          1           0       -0.590082    2.122708   -1.279564
     16          1           0       -0.918971    2.701608    0.345526
     17          1           0       -1.917826    0.345297   -2.195383
     18          1           0       -4.451626   -1.930413    0.097476
     19          1           0       -3.640148   -0.863958    2.211765
     20          1           0       -1.869785    0.895843    2.064695
 ---------------------------------------------------------------------
 Rotational constants (GHZ):           2.1376081           0.3489699           0.3388186
 Standard basis: 6-31G(d,p) (6D, 7F)
 There are   215 symmetry adapted cartesian basis functions of A   symmetry.
 There are   215 symmetry adapted basis functions of A   symmetry.
   215 basis functions,   405 primitive gaussians,   215 cartesian basis functions
    50 alpha electrons       50 beta electrons
       nuclear repulsion energy       699.4418259151 Hartrees.
 NAtoms=   20 NActive=   20 NUniq=   20 SFac= 1.00D+00 NAtFMM=   60 NAOKFM=F Big=F
 Integral buffers will be    131072 words long.
 Raffenetti 2 integral format.
 Two-electron integral symmetry is turned on.
 Nuclear repulsion after empirical dispersion term =      699.4035995441 Hartrees.
 One-electron integrals computed using PRISM.
 NBasis=   215 RedAO= T EigKep=  7.50D-04  NBF=   215
 NBsUse=   215 1.00D-06 EigRej= -1.00D+00 NBFU=   215
 Initial guess from the checkpoint file:  "pyrd10_conf-3.chk"
 B after Tr=    -0.000000   -0.000000    0.000000
         Rot=    0.999879    0.015568    0.000548    0.000095 Ang=   1.79 deg.
 ExpMin= 1.43D-01 ExpMax= 5.74D+05 ExpMxC= 5.74D+03 IAcc=3 IRadAn=         5 AccDes= 0.00D+00
 Harris functional with IExCor=  402 and IRadAn=       5 diagonalized for initial guess.
 HarFok:  IExCor=  402 AccDes= 0.00D+00 IRadAn=         5 IDoV= 1 UseB2=F ITyADJ=14
 ICtDFT=  3500011 ScaDFX=  1.000000  1.000000  1.000000  1.000000
 FoFCou: FMM=F IPFlag=           0 FMFlag=      100000 FMFlg1=           0
         NFxFlg=           0 DoJE=T BraDBF=F KetDBF=T FulRan=T
         wScrn=  0.000000 ICntrl=       500 IOpCl=  0 I1Cent=   200000004 NGrid=           0
         NMat0=    1 NMatS0=      1 NMatT0=    0 NMatD0=    1 NMtDS0=    0 NMtDT0=    0
 Petite list used in FoFCou.
 Requested convergence on RMS density matrix=1.00D-08 within 128 cycles.
 Requested convergence on MAX density matrix=1.00D-06.
 Requested convergence on             energy=1.00D-06.
 No special actions if energy rises.
 Integral accuracy reduced to 1.0D-05 until final iterations.
 Initial convergence to 1.0D-05 achieved.  Increase integral accuracy.
 SCF Done:  E(RB3LYP) =  -2937.38667099     A.U. after   12 cycles
            NFock= 12  Conv=0.78D-08     -V/T= 2.0066
 Calling FoFJK, ICntrl=      2127 FMM=F ISym2X=0 I1Cent= 0 IOpClX= 0 NMat=1 NMatS=1 NMatT=0.
 ***** Axes restored to original set *****
 -------------------------------------------------------------------
 Center     Atomic                   Forces (Hartrees/Bohr)
 Number     Number              X              Y              Z
 -------------------------------------------------------------------
      1       35           0.002593197    0.002113057    0.001213957
      2        6          -0.001595303   -0.001077742   -0.001179262
      3        6           0.001212962    0.000744167    0.001194165
      4        6          -0.003066958   -0.001970401    0.000877026
      5        6           0.003678182   -0.001286592   -0.002870853
      6        6          -0.001684617   -0.001283088    0.002940239
      7        7           0.001354580    0.001580315   -0.002935214
      8        6          -0.000521144   -0.001215798    0.001901570
      9        6          -0.000413528    0.001158994   -0.000807641
     10        6          -0.001995394    0.001106448    0.001003812
     11        1          -0.000009574    0.000129422   -0.000116215
     12        1           0.000295278   -0.000210247   -0.000425297
     13        1          -0.000133089    0.000012557   -0.000166579
     14        1          -0.000355016   -0.000130846    0.000096272
     15        1           0.000303271    0.000217119    0.000176106
     16        1          -0.000023879   -0.000028644    0.000035506
     17        1           0.001469625   -0.000662722   -0.001047794
     18        1          -0.000971566    0.001102400   -0.000115053
     19        1          -0.000158507   -0.000237895    0.000453382
     20        1           0.000021479   -0.000060504   -0.000228127
 -------------------------------------------------------------------
 Cartesian Forces:  Max     0.003678182 RMS     0.001325674

 GradGradGradGradGradGradGradGradGradGradGradGradGradGradGradGradGradGrad
 Berny optimization.
 Using GEDIIS/GDIIS optimizer.
 FormGI is forming the generalized inverse of G from B-inverse, IUseBI=4.
 Internal  Forces:  Max     0.003400913 RMS     0.000825319
 Search for a local minimum.
 Step number   2 out of a maximum of  108
 All quantities printed in internal units (Hartrees-Bohrs-Radians)
 Mixed Optimization -- En-DIIS/RFO-DIIS
 Update second derivatives using D2CorX and points    1    2
 DE= -2.11D-03 DEPred=-2.24D-03 R= 9.39D-01
 TightC=F SS=  1.41D+00  RLast= 1.72D-01 DXNew= 5.0454D-01 5.1485D-01
 Trust test= 9.39D-01 RLast= 1.72D-01 DXMaxT set to 5.05D-01
 ITU=  1  0
 Use linear search instead of GDIIS.
     Eigenvalues ---    0.00230   0.00274   0.00475   0.01418   0.02099
     Eigenvalues ---    0.02116   0.02137   0.02140   0.02145   0.02177
     Eigenvalues ---    0.02227   0.03531   0.03929   0.04781   0.05318
     Eigenvalues ---    0.05478   0.05565   0.08162   0.09313   0.12076
     Eigenvalues ---    0.12870   0.15175   0.15683   0.16000   0.16000
     Eigenvalues ---    0.16000   0.16000   0.16310   0.20731   0.21945
     Eigenvalues ---    0.21993   0.22137   0.23302   0.24480   0.25161
     Eigenvalues ---    0.28196   0.29481   0.29954   0.34536   0.34631
     Eigenvalues ---    0.34653   0.34669   0.34727   0.34767   0.35509
     Eigenvalues ---    0.35907   0.35943   0.36039   0.41987   0.43472
     Eigenvalues ---    0.45836   0.46133   0.52007   0.53541
 RFO step:  Lambda=-3.20748769D-04 EMin= 2.29814790D-03
 Quartic linear search produced a step of -0.04342.
 Iteration  1 RMS(Cart)=  0.02460449 RMS(Int)=  0.00034421
 Iteration  2 RMS(Cart)=  0.00045776 RMS(Int)=  0.00000415
 Iteration  3 RMS(Cart)=  0.00000016 RMS(Int)=  0.00000415
 Variable       Old X    -DE/DX   Delta X   Delta X   Delta X     New X
                                 (Linear)    (Quad)   (Total)
    R1        3.71511   0.00340   0.00193   0.01718   0.01912   3.73423
    R2        2.87411   0.00005   0.00134  -0.00340  -0.00206   2.87205
    R3        2.06105  -0.00014   0.00000  -0.00040  -0.00040   2.06065
    R4        2.05892  -0.00055   0.00016  -0.00193  -0.00177   2.05714
    R5        2.90490   0.00259   0.00041   0.00764   0.00805   2.91295
    R6        2.06949   0.00009  -0.00032   0.00111   0.00079   2.07028
    R7        2.06907  -0.00030  -0.00031  -0.00001  -0.00031   2.06875
    R8        2.86054  -0.00163   0.00068  -0.00698  -0.00630   2.85424
    R9        2.07178  -0.00005  -0.00039   0.00088   0.00049   2.07228
   R10        2.07151  -0.00003  -0.00038   0.00094   0.00056   2.07207
   R11        2.64146   0.00063   0.00015   0.00094   0.00109   2.64255
   R12        2.63751   0.00294   0.00030   0.00544   0.00574   2.64325
   R13        2.53207  -0.00068   0.00143  -0.00503  -0.00360   2.52847
   R14        2.05566   0.00123  -0.00061   0.00490   0.00429   2.05995
   R15        2.52848   0.00071   0.00155  -0.00291  -0.00135   2.52712
   R16        2.63598   0.00029   0.00012   0.00026   0.00038   2.63636
   R17        2.05404   0.00074  -0.00050   0.00329   0.00279   2.05684
   R18        2.62936   0.00048   0.00041  -0.00003   0.00038   2.62974
   R19        2.05094  -0.00012  -0.00042   0.00078   0.00037   2.05131
   R20        2.05363   0.00014  -0.00051   0.00173   0.00122   2.05485
    A1        1.92139   0.00285  -0.00073   0.01520   0.01447   1.93586
    A2        1.84852  -0.00100   0.00138  -0.00620  -0.00481   1.84371
    A3        1.84744  -0.00098   0.00138  -0.00598  -0.00460   1.84284
    A4        1.96326  -0.00053  -0.00038  -0.00211  -0.00249   1.96077
    A5        1.96447  -0.00055  -0.00051  -0.00183  -0.00234   1.96212
    A6        1.91165   0.00017  -0.00096   0.00054  -0.00041   1.91124
    A7        1.95253   0.00064   0.00153  -0.00110   0.00043   1.95297
    A8        1.89937   0.00007   0.00026   0.00228   0.00255   1.90193
    A9        1.90795  -0.00021  -0.00032  -0.00079  -0.00112   1.90684
   A10        1.91943  -0.00032  -0.00018  -0.00058  -0.00075   1.91869
   A11        1.91720  -0.00030  -0.00069  -0.00142  -0.00211   1.91509
   A12        1.86518   0.00011  -0.00073   0.00177   0.00104   1.86623
   A13        1.97345   0.00026   0.00032   0.00007   0.00039   1.97384
   A14        1.91564  -0.00041   0.00026  -0.00372  -0.00345   1.91219
   A15        1.89187   0.00004   0.00104  -0.00262  -0.00159   1.89028
   A16        1.90859   0.00019   0.00042   0.00073   0.00116   1.90975
   A17        1.91280  -0.00022  -0.00110   0.00168   0.00059   1.91339
   A18        1.85788   0.00013  -0.00106   0.00410   0.00304   1.86093
   A19        2.12102  -0.00046  -0.00035  -0.00104  -0.00140   2.11963
   A20        2.11708   0.00129  -0.00037   0.00571   0.00534   2.12243
   A21        2.04476  -0.00083   0.00074  -0.00481  -0.00408   2.04068
   A22        2.17739  -0.00090  -0.00132  -0.00032  -0.00164   2.17575
   A23        2.09406  -0.00106   0.00089  -0.00948  -0.00859   2.08547
   A24        2.01173   0.00196   0.00042   0.00981   0.01024   2.02197
   A25        2.03787   0.00226   0.00085   0.00613   0.00698   2.04485
   A26        2.15629  -0.00098  -0.00055  -0.00289  -0.00343   2.15285
   A27        2.01808   0.00180   0.00047   0.00872   0.00919   2.02728
   A28        2.10881  -0.00082   0.00008  -0.00583  -0.00576   2.10306
   A29        2.06984  -0.00039  -0.00003  -0.00141  -0.00144   2.06840
   A30        2.10363  -0.00034   0.00019  -0.00295  -0.00276   2.10087
   A31        2.10971   0.00073  -0.00016   0.00436   0.00420   2.11391
   A32        2.08021   0.00084   0.00030   0.00332   0.00362   2.08383
   A33        2.09921  -0.00054   0.00020  -0.00332  -0.00311   2.09610
   A34        2.10376  -0.00030  -0.00050  -0.00001  -0.00051   2.10326
    D1        3.12482  -0.00001  -0.00105   0.01769   0.01663   3.14146
    D2       -1.03393   0.00004  -0.00007   0.01780   0.01773  -1.01621
    D3        0.99732   0.00010  -0.00097   0.02075   0.01979   1.01710
    D4        1.06776  -0.00031  -0.00206   0.01673   0.01467   1.08242
    D5       -3.09100  -0.00026  -0.00107   0.01684   0.01576  -3.07524
    D6       -1.05975  -0.00020  -0.00198   0.01980   0.01782  -1.04193
    D7       -1.10190   0.00030  -0.00013   0.01911   0.01899  -1.08291
    D8        1.02253   0.00036   0.00086   0.01922   0.02008   1.04261
    D9        3.05378   0.00041  -0.00004   0.02217   0.02214   3.07592
   D10        1.05578   0.00029   0.00078   0.03876   0.03953   1.09531
   D11       -1.08040   0.00016  -0.00020   0.04049   0.04028  -1.04012
   D12       -3.10294   0.00021   0.00033   0.03908   0.03941  -3.06353
   D13       -1.05707  -0.00000  -0.00048   0.03700   0.03652  -1.02056
   D14        3.08994  -0.00013  -0.00146   0.03873   0.03727   3.12721
   D15        1.06739  -0.00008  -0.00092   0.03732   0.03640   1.10379
   D16       -3.10522   0.00023   0.00090   0.03603   0.03694  -3.06828
   D17        1.04179   0.00010  -0.00007   0.03776   0.03770   1.07949
   D18       -0.98075   0.00015   0.00046   0.03636   0.03682  -0.94393
   D19       -1.86230   0.00010  -0.00059   0.00043  -0.00016  -1.86246
   D20        1.25125   0.00005   0.00051  -0.00587  -0.00536   1.24589
   D21        0.27781  -0.00011   0.00029  -0.00378  -0.00348   0.27432
   D22       -2.89183  -0.00016   0.00139  -0.01007  -0.00868  -2.90051
   D23        2.30823   0.00003  -0.00135   0.00254   0.00119   2.30942
   D24       -0.86141  -0.00002  -0.00025  -0.00376  -0.00401  -0.86542
   D25        3.11862  -0.00015   0.00069  -0.01004  -0.00934   3.10928
   D26       -0.02595  -0.00010   0.00094  -0.00856  -0.00761  -0.03357
   D27        0.00396  -0.00014  -0.00037  -0.00415  -0.00452  -0.00056
   D28       -3.14062  -0.00008  -0.00011  -0.00267  -0.00279   3.13978
   D29       -3.11865   0.00014  -0.00073   0.00887   0.00815  -3.11051
   D30        0.02511   0.00013  -0.00096   0.00940   0.00845   0.03355
   D31       -0.00393   0.00010   0.00033   0.00288   0.00320  -0.00073
   D32        3.13983   0.00009   0.00010   0.00341   0.00350  -3.13985
   D33       -0.00154   0.00007   0.00019   0.00216   0.00236   0.00082
   D34       -3.14028   0.00002  -0.00006   0.00077   0.00071  -3.13956
   D35       -0.00088   0.00003   0.00004   0.00106   0.00110   0.00022
   D36        3.13955   0.00001   0.00007   0.00040   0.00046   3.14001
   D37        0.00070  -0.00006  -0.00006  -0.00209  -0.00215  -0.00145
   D38        3.13944  -0.00003   0.00009  -0.00149  -0.00141   3.13803
   D39       -3.13967  -0.00004  -0.00010  -0.00140  -0.00150  -3.14117
   D40       -0.00093  -0.00001   0.00005  -0.00081  -0.00076  -0.00169
   D41        0.00182  -0.00001  -0.00013  -0.00004  -0.00016   0.00166
   D42        3.14124  -0.00001   0.00010  -0.00057  -0.00047   3.14077
   D43       -3.13690  -0.00004  -0.00028  -0.00062  -0.00090  -3.13780
   D44        0.00252  -0.00003  -0.00005  -0.00116  -0.00120   0.00131
         Item               Value     Threshold  Converged?
 Maximum Force            0.003401     0.000450     NO 
 RMS     Force            0.000825     0.000300     NO 
 Maximum Displacement     0.101062     0.001800     NO 
 RMS     Displacement     0.024639     0.001200     NO 
 Predicted change in Energy=-1.665619D-04
 GradGradGradGradGradGradGradGradGradGradGradGradGradGradGradGradGradGrad

                          Input orientation:                          
 ---------------------------------------------------------------------
 Center     Atomic      Atomic             Coordinates (Angstroms)
 Number     Number       Type             X           Y           Z
 ---------------------------------------------------------------------
      1         35           0        4.977388   -0.096001    1.468241
      2          6           0        3.577215   -1.482419    1.319230
      3          6           0        2.951475   -1.474964   -0.065781
      4          6           0        1.855054   -2.549224   -0.207031
      5          6           0        0.687988   -2.330891    0.726559
      6          6           0        0.490679   -3.140539    1.849504
      7          7           0       -0.498281   -2.983075    2.736874
      8          6           0       -1.354034   -1.977469    2.525199
      9          6           0       -1.259457   -1.105426    1.440349
     10          6           0       -0.222082   -1.286904    0.530700
     11          1           0        4.073511   -2.426808    1.544827
     12          1           0        2.855767   -1.254859    2.102023
     13          1           0        2.529625   -0.482859   -0.260694
     14          1           0        3.731633   -1.642453   -0.815281
     15          1           0        2.286886   -3.540691   -0.025232
     16          1           0        1.501891   -2.546440   -1.245086
     17          1           0        1.174358   -3.967564    2.041544
     18          1           0       -2.152794   -1.865349    3.256015
     19          1           0       -1.983413   -0.306589    1.313588
     20          1           0       -0.118109   -0.626576   -0.326946
 ---------------------------------------------------------------------
                    Distance matrix (angstroms):
                    1          2          3          4          5
     1  Br   0.000000
     2  C    1.976067   0.000000
     3  C    2.891208   1.519822   0.000000
     4  C    4.309734   2.536412   1.541468   0.000000
     5  C    4.893237   3.069006   2.546328   1.510399   0.000000
     6  C    5.435543   3.543623   3.535247   2.537816   1.398380
     7  N    6.318827   4.568518   4.693622   3.793810   2.423622
     8  C    6.689094   5.100653   5.050059   4.253262   2.744060
     9  C    6.318065   4.852855   4.487420   3.807702   2.409108
    10  C    5.415877   3.885186   3.234598   2.540117   1.398748
    11  H    2.501103   1.090447   2.181520   2.829407   3.484327
    12  H    2.499181   1.088594   2.181050   2.829936   2.783704
    13  H    3.021658   2.143064   1.095547   2.174348   2.789537
    14  H    3.026200   2.146064   1.094737   2.171117   3.480660
    15  H    4.618999   2.776511   2.170380   1.096602   2.141327
    16  H    5.044390   3.466241   2.154093   1.096490   2.143895
    17  H    5.457170   3.531487   3.716452   2.744289   2.155096
    18  H    7.560835   6.060593   6.102483   5.340714   3.832090
    19  H    6.965703   5.683590   5.255557   4.698460   3.402761
    20  H    5.428470   4.134946   3.195359   2.757594   2.159711
                    6          7          8          9         10
     6  C    0.000000
     7  N    1.338007   0.000000
     8  C    2.283038   1.337297   0.000000
     9  C    2.715156   2.405397   1.395100   0.000000
    10  C    2.383954   2.796513   2.395041   1.391597   0.000000
    11  H    3.665914   4.757278   5.533650   5.495227   4.558504
    12  H    3.035325   3.826148   4.292280   4.170757   3.455899
    13  H    3.958977   4.940112   5.007781   4.199795   2.974002
    14  H    4.455236   5.683946   6.093854   5.503385   4.191652
    15  H    2.626997   3.961984   4.712182   4.544777   3.418119
    16  H    3.309379   4.477426   4.763936   4.112557   2.777036
    17  H    1.090076   2.061656   3.253792   3.804829   3.379146
    18  H    3.254587   2.063064   1.088430   2.161522   3.389630
    19  H    3.799949   3.375639   2.157768   1.085505   2.162457
    20  H    3.380468   3.883891   3.389270   2.157615   1.087382
                   11         12         13         14         15
    11  H    0.000000
    12  H    1.779559   0.000000
    13  H    3.069598   2.506947   0.000000
    14  H    2.510419   3.070510   1.759844   0.000000
    15  H    2.626377   3.173935   3.076476   2.512923   0.000000
    16  H    3.796204   3.834619   2.506718   2.444111   1.758635
    17  H    3.320503   3.192109   4.390924   4.484110   2.385686
    18  H    6.481534   5.175914   6.016940   7.159023   5.769238
    19  H    6.421459   4.993848   4.782985   6.243266   5.521531
    20  H    4.930928   3.890831   2.652459   4.011358   3.790395
                   16         17         18         19         20
    16  H    0.000000
    17  H    3.595665   0.000000
    18  H    5.837852   4.118761   0.000000
    19  H    4.869403   4.889190   2.496287   0.000000
    20  H    2.674558   4.294463   4.302570   2.504616   0.000000
 Stoichiometry    C8H10BrN
 Framework group  C1[X(C8H10BrN)]
 Deg. of freedom    54
 Full point group                 C1      NOp   1
 Largest Abelian subgroup         C1      NOp   1
 Largest concise Abelian subgroup C1      NOp   1
                         Standard orientation:                         
 ---------------------------------------------------------------------
 Center     Atomic      Atomic             Coordinates (Angstroms)
 Number     Number       Type             X           Y           Z
 ---------------------------------------------------------------------
      1         35           0        2.968464   -0.481170    0.092352
      2          6           0        1.206078    0.133493   -0.556512
      3          6           0        0.706429    1.311274    0.263880
      4          6           0       -0.668357    1.809549   -0.223776
      5          6           0       -1.758024    0.773096   -0.083430
      6          6           0       -2.279063    0.106967   -1.197098
      7          7           0       -3.217531   -0.845250   -1.143968
      8          6           0       -3.684447   -1.175432    0.064888
      9          6           0       -3.242477   -0.580093    1.246639
     10          6           0       -2.264717    0.406986    1.167858
     11          1           0        1.352864    0.391665   -1.605738
     12          1           0        0.549470   -0.731706   -0.483497
     13          1           0        0.643442    1.011492    1.315729
     14          1           0        1.435840    2.125676    0.207691
     15          1           0       -0.594910    2.121680   -1.272450
     16          1           0       -0.934472    2.704050    0.351847
     17          1           0       -1.915177    0.360637   -2.192842
     18          1           0       -4.448222   -1.950513    0.088925
     19          1           0       -3.657691   -0.883394    2.202634
     20          1           0       -1.897211    0.893065    2.068450
 ---------------------------------------------------------------------
 Rotational constants (GHZ):           2.1231774           0.3469516           0.3366831
 Standard basis: 6-31G(d,p) (6D, 7F)
 There are   215 symmetry adapted cartesian basis functions of A   symmetry.
 There are   215 symmetry adapted basis functions of A   symmetry.
   215 basis functions,   405 primitive gaussians,   215 cartesian basis functions
    50 alpha electrons       50 beta electrons
       nuclear repulsion energy       697.7880924241 Hartrees.
 NAtoms=   20 NActive=   20 NUniq=   20 SFac= 1.00D+00 NAtFMM=   60 NAOKFM=F Big=F
 Integral buffers will be    131072 words long.
 Raffenetti 2 integral format.
 Two-electron integral symmetry is turned on.
 Nuclear repulsion after empirical dispersion term =      697.7499745821 Hartrees.
 One-electron integrals computed using PRISM.
 NBasis=   215 RedAO= T EigKep=  7.50D-04  NBF=   215
 NBsUse=   215 1.00D-06 EigRej= -1.00D+00 NBFU=   215
 Initial guess from the checkpoint file:  "pyrd10_conf-3.chk"
 B after Tr=    -0.000000   -0.000000    0.000000
         Rot=    0.999992   -0.003822    0.000654   -0.000811 Ang=  -0.45 deg.
 ExpMin= 1.43D-01 ExpMax= 5.74D+05 ExpMxC= 5.74D+03 IAcc=3 IRadAn=         5 AccDes= 0.00D+00
 Harris functional with IExCor=  402 and IRadAn=       5 diagonalized for initial guess.
 HarFok:  IExCor=  402 AccDes= 0.00D+00 IRadAn=         5 IDoV= 1 UseB2=F ITyADJ=14
 ICtDFT=  3500011 ScaDFX=  1.000000  1.000000  1.000000  1.000000
 FoFCou: FMM=F IPFlag=           0 FMFlag=      100000 FMFlg1=           0
         NFxFlg=           0 DoJE=T BraDBF=F KetDBF=T FulRan=T
         wScrn=  0.000000 ICntrl=       500 IOpCl=  0 I1Cent=   200000004 NGrid=           0
         NMat0=    1 NMatS0=      1 NMatT0=    0 NMatD0=    1 NMtDS0=    0 NMtDT0=    0
 Petite list used in FoFCou.
 Requested convergence on RMS density matrix=1.00D-08 within 128 cycles.
 Requested convergence on MAX density matrix=1.00D-06.
 Requested convergence on             energy=1.00D-06.
 No special actions if energy rises.
 Integral accuracy reduced to 1.0D-05 until final iterations.
 Initial convergence to 1.0D-05 achieved.  Increase integral accuracy.
 SCF Done:  E(RB3LYP) =  -2937.38683901     A.U. after   11 cycles
            NFock= 11  Conv=0.38D-08     -V/T= 2.0066
 Calling FoFJK, ICntrl=      2127 FMM=F ISym2X=0 I1Cent= 0 IOpClX= 0 NMat=1 NMatS=1 NMatT=0.
 ***** Axes restored to original set *****
 -------------------------------------------------------------------
 Center     Atomic                   Forces (Hartrees/Bohr)
 Number     Number              X              Y              Z
 -------------------------------------------------------------------
      1       35          -0.000067445   -0.000082914   -0.000010800
      2        6          -0.000578557   -0.000583153   -0.000251398
      3        6           0.001269750    0.001088244    0.000287541
      4        6          -0.001060637   -0.000609323    0.000112885
      5        6           0.000696512    0.000524596   -0.000740020
      6        6           0.000086876   -0.000922775    0.001112938
      7        7           0.000234376   -0.000023401   -0.000343412
      8        6          -0.000580554   -0.000376562    0.000981363
      9        6          -0.000002525    0.000575181   -0.000753136
     10        6          -0.000330862    0.000342221   -0.000035637
     11        1           0.000199011    0.000166408    0.000007673
     12        1          -0.000016429    0.000165041    0.000219269
     13        1          -0.000090624   -0.000331717   -0.000173674
     14        1          -0.000302457   -0.000080687   -0.000107802
     15        1           0.000004831    0.000231533   -0.000183952
     16        1           0.000268598   -0.000060435    0.000184502
     17        1          -0.000059101    0.000161811   -0.000224443
     18        1           0.000173781    0.000165146   -0.000257504
     19        1           0.000180923   -0.000209276    0.000032036
     20        1          -0.000025469   -0.000139938    0.000143572
 -------------------------------------------------------------------
 Cartesian Forces:  Max     0.001269750 RMS     0.000451020

 GradGradGradGradGradGradGradGradGradGradGradGradGradGradGradGradGradGrad
 Berny optimization.
 Using GEDIIS/GDIIS optimizer.
 FormGI is forming the generalized inverse of G from B-inverse, IUseBI=4.
 Internal  Forces:  Max     0.000901935 RMS     0.000193618
 Search for a local minimum.
 Step number   3 out of a maximum of  108
 All quantities printed in internal units (Hartrees-Bohrs-Radians)
 Mixed Optimization -- En-DIIS/RFO-DIIS
 Swapping is turned off.
 Update second derivatives using D2CorX and points    1    2    3
 DE= -1.68D-04 DEPred=-1.67D-04 R= 1.01D+00
 TightC=F SS=  1.41D+00  RLast= 1.33D-01 DXNew= 8.4853D-01 3.9968D-01
[...]
   XY=     0.5303   YY=    28.2571   ZY=    -3.9506
   XZ=     1.6125   YZ=    -2.5235   ZZ=    31.9982
   Eigenvalues:    26.0343    28.0942    34.0737
     16  H    Isotropic =    28.9186   Anisotropy =     8.0663
   XX=    27.6923   YX=    -3.0197   ZX=    -1.5040
   XY=    -0.8483   YY=    32.7255   ZY=     3.0055
   XZ=    -1.3631   YZ=     1.6973   ZZ=    26.3380
   Eigenvalues:    25.2481    27.2116    34.2962
     17  H    Isotropic =    22.5410   Anisotropy =    10.0273
   XX=    23.2336   YX=     2.7717   ZX=     4.1226
   XY=     2.7399   YY=    21.9486   ZY=     2.7671
   XZ=     4.0277   YZ=     3.3074   ZZ=    22.4407
   Eigenvalues:    18.6231    19.7739    29.2258
     18  H    Isotropic =    22.3668   Anisotropy =     7.0128
   XX=    20.5367   YX=     1.0435   ZX=     1.0665
   XY=     0.7566   YY=    20.1861   ZY=     2.0889
   XZ=     0.5956   YZ=     1.5582   ZZ=    26.3776
   Eigenvalues:    19.3023    20.7561    27.0420
     19  H    Isotropic =    23.9207   Anisotropy =     6.7806
   XX=    24.9980   YX=     3.0865   ZX=     0.6763
   XY=     3.0952   YY=    24.8768   ZY=     0.9635
   XZ=     1.4106   YZ=     1.6018   ZZ=    21.8873
   Eigenvalues:    21.4025    21.9185    28.4411
     20  H    Isotropic =    23.5960   Anisotropy =     9.7573
   XX=    25.3377   YX=     2.4268   ZX=    -4.7897
   XY=     2.3624   YY=    22.4953   ZY=    -2.5884
   XZ=    -3.7422   YZ=    -2.3498   ZZ=    22.9549
   Eigenvalues:    19.5547    21.1324    30.1008
 End of Minotr F.D. properties file   721 does not exist.
 End of Minotr F.D. properties file   722 does not exist.
 End of Minotr F.D. properties file   788 does not exist.

 **********************************************************************

            Population analysis using the SCF Density.

 **********************************************************************

 Orbital symmetries:
       Occupied  (A) (A) (A) (A) (A) (A) (A) (A) (A) (A) (A) (A)
                 (A) (A) (A) (A) (A) (A) (A) (A) (A) (A) (A) (A)
                 (A) (A) (A) (A) (A) (A) (A) (A) (A) (A) (A) (A)
                 (A) (A) (A) (A) (A) (A) (A) (A) (A) (A) (A) (A)
                 (A) (A)
       Virtual   (A) (A) (A) (A) (A) (A) (A) (A) (A) (A) (A) (A)
                 (A) (A) (A) (A) (A) (A) (A) (A) (A) (A) (A) (A)
                 (A) (A) (A) (A) (A) (A) (A) (A) (A) (A) (A) (A)
                 (A) (A) (A) (A) (A) (A) (A) (A) (A) (A) (A) (A)
                 (A) (A) (A) (A) (A) (A) (A) (A) (A) (A) (A) (A)
                 (A) (A) (A) (A) (A) (A) (A) (A) (A) (A) (A) (A)
                 (A) (A) (A) (A) (A) (A) (A) (A) (A) (A) (A) (A)
                 (A) (A) (A) (A) (A) (A) (A) (A) (A) (A) (A) (A)
                 (A) (A) (A) (A) (A) (A) (A) (A) (A) (A) (A) (A)
                 (A) (A) (A) (A) (A) (A) (A) (A) (A) (A) (A) (A)
                 (A) (A) (A) (A) (A) (A) (A) (A) (A) (A) (A) (A)
                 (A) (A) (A) (A) (A) (A) (A) (A) (A) (A) (A) (A)
                 (A) (A) (A) (A) (A) (A) (A) (A) (A) (A) (A) (A)
                 (A) (A) (A) (A) (A) (A) (A) (A) (A) (A) (A) (A)
                 (A) (A) (A) (A) (A) (A) (A) (A) (A) (A) (A) (A)
                 (A) (A) (A) (A) (A) (A) (A) (A) (A) (A) (A) (A)
                 (A) (A) (A) (A) (A) (A) (A) (A) (A) (A) (A) (A)
                 (A) (A) (A) (A) (A) (A) (A) (A) (A) (A) (A) (A)
                 (A) (A) (A) (A) (A) (A) (A) (A) (A) (A) (A) (A)
                 (A) (A) (A) (A) (A) (A) (A) (A) (A) (A) (A) (A)
                 (A) (A) (A) (A) (A) (A) (A) (A) (A) (A) (A) (A)
                 (A) (A) (A) (A) (A) (A) (A) (A) (A) (A) (A) (A)
                 (A) (A) (A) (A) (A) (A) (A) (A) (A) (A) (A) (A)
                 (A) (A) (A) (A) (A) (A) (A) (A) (A) (A) (A) (A)
                 (A) (A) (A) (A) (A) (A) (A) (A) (A) (A) (A) (A)
                 (A) (A) (A) (A) (A) (A) (A) (A) (A) (A) (A) (A)
                 (A) (A) (A) (A) (A) (A) (A) (A) (A) (A) (A) (A)
                 (A) (A) (A) (A) (A) (A) (A) (A) (A) (A) (A) (A)
                 (A)
 The electronic state is 1-A.
 Alpha  occ. eigenvalues -- -485.36057 -63.34561 -57.16503 -57.16266 -57.16263
 Alpha  occ. eigenvalues --  -14.75546 -10.59869 -10.58186 -10.58152 -10.56811
 Alpha  occ. eigenvalues --  -10.56667 -10.56134 -10.55905 -10.55902  -9.01201
 Alpha  occ. eigenvalues --   -6.83599  -6.82731  -6.82722  -2.86965  -2.86655
 Alpha  occ. eigenvalues --   -2.86648  -2.85838  -2.85837  -1.05808  -0.94510
 Alpha  occ. eigenvalues --   -0.91047  -0.88119  -0.84031  -0.77071  -0.72592
 Alpha  occ. eigenvalues --   -0.71266  -0.67559  -0.60610  -0.57576  -0.55904
 Alpha  occ. eigenvalues --   -0.53109  -0.51992  -0.49830  -0.48904  -0.47826
 Alpha  occ. eigenvalues --   -0.47066  -0.44557  -0.43250  -0.41450  -0.40959
 Alpha  occ. eigenvalues --   -0.35120  -0.33846  -0.33622  -0.33042  -0.31572
 Alpha virt. eigenvalues --   -0.00873   0.00726   0.02811   0.06805   0.07632
 Alpha virt. eigenvalues --    0.08863   0.09128   0.10953   0.11408   0.12688
 Alpha virt. eigenvalues --    0.13954   0.14282   0.15738   0.16717   0.17244
 Alpha virt. eigenvalues --    0.17687   0.19286   0.19753   0.21693   0.22240
 Alpha virt. eigenvalues --    0.23186   0.24002   0.24355   0.25905   0.26292
 Alpha virt. eigenvalues --    0.27534   0.27884   0.28635   0.29608   0.30201
 Alpha virt. eigenvalues --    0.31197   0.31604   0.32427   0.33347   0.34363
 Alpha virt. eigenvalues --    0.34860   0.35182   0.37182   0.37348   0.38448
 Alpha virt. eigenvalues --    0.39332   0.40572   0.41235   0.42175   0.43197
 Alpha virt. eigenvalues --    0.43345   0.43964   0.44772   0.45305   0.45795
 Alpha virt. eigenvalues --    0.46255   0.46889   0.47579   0.48335   0.49681
 Alpha virt. eigenvalues --    0.49953   0.50394   0.51367   0.53561   0.54052
 Alpha virt. eigenvalues --    0.55341   0.56342   0.57126   0.58324   0.60203
 Alpha virt. eigenvalues --    0.61144   0.62216   0.63792   0.65612   0.66233
 Alpha virt. eigenvalues --    0.67385   0.68110   0.69919   0.71650   0.73919
 Alpha virt. eigenvalues --    0.74095   0.77933   0.78277   0.79868   0.80412
 Alpha virt. eigenvalues --    0.83293   0.84158   0.85733   0.86553   0.89015
 Alpha virt. eigenvalues --    0.91282   0.92793   0.93461   0.94998   0.95850
 Alpha virt. eigenvalues --    0.98390   1.00916   1.02163   1.04890   1.05523
 Alpha virt. eigenvalues --    1.06570   1.09963   1.11138   1.12803   1.13237
 Alpha virt. eigenvalues --    1.14365   1.16630   1.17827   1.20698   1.20803
 Alpha virt. eigenvalues --    1.23296   1.24381   1.27583   1.27738   1.29100
 Alpha virt. eigenvalues --    1.30726   1.32401   1.33694   1.38344   1.38905
 Alpha virt. eigenvalues --    1.40215   1.41633   1.42509   1.43618   1.44356
 Alpha virt. eigenvalues --    1.45245   1.45468   1.47683   1.48882   1.50625
 Alpha virt. eigenvalues --    1.52457   1.54085   1.54905   1.56371   1.57669
 Alpha virt. eigenvalues --    1.58165   1.59220   1.59996   1.60704   1.61328
 Alpha virt. eigenvalues --    1.62479   1.63005   1.64914   1.65862   1.66616
 Alpha virt. eigenvalues --    1.67103   1.67508   1.68180   1.68814   1.69719
 Alpha virt. eigenvalues --    1.70650   1.72202   1.73089   1.75652   1.76122
 Alpha virt. eigenvalues --    1.78244   1.79320   1.81525   1.83659   1.83783
 Alpha virt. eigenvalues --    1.86432   1.88282   1.90587   1.91619   1.93817
 Alpha virt. eigenvalues --    1.96104   1.97364   1.97757   2.00840   2.01167
 Alpha virt. eigenvalues --    2.02790   2.05280   2.06957   2.12060   2.15518
 Alpha virt. eigenvalues --    2.16247   2.17427   2.18072   2.22628   2.23742
 Alpha virt. eigenvalues --    2.26410   2.27257   2.28099   2.31802   2.33216
 Alpha virt. eigenvalues --    2.36295   2.36714   2.38484   2.40450   2.44375
 Alpha virt. eigenvalues --    2.46288   2.46547   2.48596   2.51421   2.52034
 Alpha virt. eigenvalues --    2.53586   2.56184   2.57369   2.59362   2.60279
 Alpha virt. eigenvalues --    2.60989   2.62062   2.62862   2.63295   2.65776
 Alpha virt. eigenvalues --    2.66334   2.67114   2.68427   2.70210   2.71865
 Alpha virt. eigenvalues --    2.73780   2.74349   2.76472   2.77451   2.78915
 Alpha virt. eigenvalues --    2.81531   2.82659   2.83914   2.84574   2.87390
 Alpha virt. eigenvalues --    2.88746   2.91442   2.93064   2.94359   2.96310
 Alpha virt. eigenvalues --    2.98285   2.99208   3.00292   3.04118   3.05420
 Alpha virt. eigenvalues --    3.05840   3.08264   3.09879   3.10931   3.12791
 Alpha virt. eigenvalues --    3.14996   3.16115   3.16204   3.17840   3.18356
 Alpha virt. eigenvalues --    3.20248   3.21207   3.23807   3.25234   3.26274
 Alpha virt. eigenvalues --    3.27267   3.28617   3.29517   3.29987   3.30634
 Alpha virt. eigenvalues --    3.33070   3.33680   3.34732   3.36369   3.38200
 Alpha virt. eigenvalues --    3.39101   3.40940   3.42001   3.44207   3.45184
 Alpha virt. eigenvalues --    3.46724   3.47805   3.48898   3.49002   3.53309
 Alpha virt. eigenvalues --    3.54894   3.56547   3.59037   3.64897   3.68912
 Alpha virt. eigenvalues --    3.69388   3.71780   3.74095   3.75694   3.78829
 Alpha virt. eigenvalues --    3.79666   3.81744   3.83861   3.86084   3.89550
 Alpha virt. eigenvalues --    3.92236   3.95277   3.97180   4.00023   4.01920
 Alpha virt. eigenvalues --    4.05400   4.07590   4.08541   4.10613   4.10952
 Alpha virt. eigenvalues --    4.11712   4.12368   4.15171   4.18208   4.21449
 Alpha virt. eigenvalues --    4.25381   4.27038   4.28673   4.30523   4.34529
 Alpha virt. eigenvalues --    4.35779   4.36544   4.39039   4.41769   4.44195
 Alpha virt. eigenvalues --    4.48781   4.49724   4.51656   4.55937   4.57976
 Alpha virt. eigenvalues --    4.60439   4.61306   4.72655   4.75380   4.79809
 Alpha virt. eigenvalues --    4.83342   4.84108   4.85852   4.92030   4.94565
 Alpha virt. eigenvalues --    4.99631   5.05512   5.11816   5.16916   5.19616
 Alpha virt. eigenvalues --    5.26904   5.32835   5.40862   5.52239   5.57468
 Alpha virt. eigenvalues --    5.72466   5.94599   7.71414  22.36088  22.43476
 Alpha virt. eigenvalues --   22.57220  22.59921  22.73952  22.86206  22.88728
 Alpha virt. eigenvalues --   23.20045  32.50939
          Condensed to atoms (all electrons):
               1          2          3          4          5          6
     1  Br  35.008614   0.250463  -0.034543   0.007407  -0.002338   0.000571
     2  C    0.250463   4.997502   0.206551  -0.029871   0.031694  -0.009301
     3  C   -0.034543   0.206551   5.308253   0.188649  -0.046610  -0.001412
     4  C    0.007407  -0.029871   0.188649   5.350202   0.137846  -0.019417
     5  C   -0.002338   0.031694  -0.046610   0.137846   5.309524   0.420750
     6  C    0.000571  -0.009301  -0.001412  -0.019417   0.420750   4.916520
     7  N    0.000003  -0.000095  -0.000096   0.009111  -0.045206   0.507496
     8  C    0.000014  -0.000276   0.000108  -0.000546  -0.046649  -0.112489
     9  C   -0.000064  -0.000270   0.002267   0.005694  -0.055801  -0.015788
    10  C    0.000368  -0.003968  -0.002149  -0.068777   0.458525  -0.048588
    11  H   -0.038981   0.429977  -0.062016   0.019982  -0.012506   0.002757
    12  H   -0.035560   0.424455  -0.037159  -0.012771   0.018475  -0.010335
    13  H    0.000404  -0.044632   0.422880  -0.025875  -0.014317   0.003035
    14  H    0.000428  -0.034493   0.423532  -0.047756   0.014317  -0.000879
    15  H    0.000248  -0.010931  -0.031998   0.452927  -0.075305  -0.001223
    16  H   -0.000597   0.009192  -0.063113   0.434980  -0.035013   0.001597
    17  H   -0.000028  -0.000451  -0.001126   0.005556  -0.093982   0.448823
    18  H    0.000000  -0.000001   0.000004   0.000086  -0.000570   0.005811
    19  H   -0.000000  -0.000009   0.000047   0.000216   0.012274  -0.002143
    20  H    0.000010  -0.000082  -0.000783   0.003186  -0.046584   0.004404
               7          8          9         10         11         12
     1  Br   0.000003   0.000014  -0.000064   0.000368  -0.038981  -0.035560
     2  C   -0.000095  -0.000276  -0.000270  -0.003968   0.429977   0.424455
     3  C   -0.000096   0.000108   0.002267  -0.002149  -0.062016  -0.037159
     4  C    0.009111  -0.000546   0.005694  -0.068777   0.019982  -0.012771
     5  C   -0.045206  -0.046649  -0.055801   0.458525  -0.012506   0.018475
     6  C    0.507496  -0.112489  -0.015788  -0.048588   0.002757  -0.010335
     7  N    6.419604   0.496845  -0.045713  -0.065803   0.000007   0.000277
     8  C    0.496845   4.829190   0.493971  -0.022449  -0.000005   0.000196
     9  C   -0.045713   0.493971   4.967249   0.485194  -0.000006   0.000292
    10  C   -0.065803  -0.022449   0.485194   5.032759   0.000288  -0.000544
    11  H    0.000007  -0.000005  -0.000006   0.000288   0.523225  -0.031837
    12  H    0.000277   0.000196   0.000292  -0.000544  -0.031837   0.495652
    13  H   -0.000055  -0.000051   0.000356  -0.000999   0.006112  -0.002084
    14  H    0.000011  -0.000009   0.000026   0.000331  -0.004792   0.005025
    15  H    0.000280   0.000084  -0.000500   0.006906  -0.000991   0.001989
    16  H   -0.000425   0.000159  -0.000521  -0.007532   0.000139  -0.000615
    17  H   -0.030175   0.009292  -0.002418   0.005776   0.000488   0.000037
    18  H   -0.033626   0.432303  -0.065909   0.002052   0.000000   0.000005
    19  H    0.007142  -0.030023   0.414549  -0.056110   0.000001   0.000010
    20  H   -0.002111   0.003023  -0.028550   0.417959  -0.000013  -0.000005
              13         14         15         16         17         18
     1  Br   0.000404   0.000428   0.000248  -0.000597  -0.000028   0.000000
     2  C   -0.044632  -0.034493  -0.010931   0.009192  -0.000451  -0.000001
     3  C    0.422880   0.423532  -0.031998  -0.063113  -0.001126   0.000004
     4  C   -0.025875  -0.047756   0.452927   0.434980   0.005556   0.000086
     5  C   -0.014317   0.014317  -0.075305  -0.035013  -0.093982  -0.000570
     6  C    0.003035  -0.000879  -0.001223   0.001597   0.448823   0.005811
     7  N   -0.000055   0.000011   0.000280  -0.000425  -0.030175  -0.033626
     8  C   -0.000051  -0.000009   0.000084   0.000159   0.009292   0.432303
     9  C    0.000356   0.000026  -0.000500  -0.000521  -0.002418  -0.065909
    10  C   -0.000999   0.000331   0.006906  -0.007532   0.005776   0.002052
    11  H    0.006112  -0.004792  -0.000991   0.000139   0.000488   0.000000
    12  H   -0.002084   0.005025   0.001989  -0.000615   0.000037   0.000005
    13  H    0.503883  -0.017923   0.003357  -0.000640   0.000014  -0.000001
    14  H   -0.017923   0.507546  -0.000806  -0.004559   0.000020   0.000000
    15  H    0.003357  -0.000806   0.491213  -0.011628   0.000098  -0.000002
    16  H   -0.000640  -0.004559  -0.011628   0.502789   0.000170  -0.000004
    17  H    0.000014   0.000020   0.000098   0.000170   0.509568  -0.000010
    18  H   -0.000001   0.000000  -0.000002  -0.000004  -0.000010   0.513911
    19  H    0.000003  -0.000000   0.000007  -0.000036   0.000091  -0.000222
    20  H    0.000881  -0.000090   0.000111   0.000427  -0.000229  -0.000263
              19         20
     1  Br  -0.000000   0.000010
     2  C   -0.000009  -0.000082
     3  C    0.000047  -0.000783
     4  C    0.000216   0.003186
     5  C    0.012274  -0.046584
     6  C   -0.002143   0.004404
     7  N    0.007142  -0.002111
     8  C   -0.030023   0.003023
     9  C    0.414549  -0.028550
    10  C   -0.056110   0.417959
    11  H    0.000001  -0.000013
    12  H    0.000010  -0.000005
    13  H    0.000003   0.000881
    14  H   -0.000000  -0.000090
    15  H    0.000007   0.000111
    16  H   -0.000036   0.000427
    17  H    0.000091  -0.000229
    18  H   -0.000222  -0.000263
    19  H    0.515459  -0.005568
    20  H   -0.005568   0.493129
 Mulliken charges:
               1
     1  Br  -0.156419
     2  C   -0.215454
     3  C   -0.271288
     4  C   -0.410829
     5  C    0.071476
     6  C   -0.090191
     7  N   -0.217474
     8  C   -0.052688
     9  C   -0.154057
    10  C   -0.133240
    11  H    0.168173
    12  H    0.184498
    13  H    0.165653
    14  H    0.160069
    15  H    0.176163
    16  H    0.175229
    17  H    0.148485
    18  H    0.146435
    19  H    0.144312
    20  H    0.161147
 Sum of Mulliken charges =  -0.00000
 Mulliken charges with hydrogens summed into heavy atoms:
               1
     1  Br  -0.156419
     2  C    0.137216
     3  C    0.054435
     4  C   -0.059437
     5  C    0.071476
     6  C    0.058294
     7  N   -0.217474
     8  C    0.093747
     9  C   -0.009745
    10  C    0.027907
 Electronic spatial extent (au):  <R**2>=           3044.6555
 Charge=              0.0000 electrons
 Dipole moment (field-independent basis, Debye):
    X=             -1.1090    Y=              1.9745    Z=              1.3492  Tot=              2.6361
 Quadrupole moment (field-independent basis, Debye-Ang):
   XX=            -82.7831   YY=            -71.8302   ZZ=            -70.9869
   XY=              1.5540   XZ=             -8.3014   YZ=             -2.6380
 Traceless Quadrupole moment (field-independent basis, Debye-Ang):
   XX=             -7.5830   YY=              3.3698   ZZ=              4.2132
   XY=              1.5540   XZ=             -8.3014   YZ=             -2.6380
 Octapole moment (field-independent basis, Debye-Ang**2):
  XXX=             88.5221  YYY=            -10.1587  ZZZ=              8.1996  XYY=             29.6174
  XXY=            -13.3362  XXZ=             31.1159  XZZ=             32.7090  YZZ=              1.6925
  YYZ=              4.2949  XYZ=              8.4033
 Hexadecapole moment (field-independent basis, Debye-Ang**3):
 XXXX=          -2899.4932 YYYY=           -459.0556 ZZZZ=           -342.4396 XXXY=             11.2015
 XXXZ=            -80.3039 YYYX=            -31.6378 YYYZ=             -1.9976 ZZZX=            -26.2380
 ZZZY=            -12.5470 XXYY=           -539.9076 XXZZ=           -552.0836 YYZZ=           -142.6836
 XXYZ=            -42.1636 YYXZ=             -8.2454 ZZXY=            -25.3154
 N-N= 6.979103936372D+02 E-N=-8.396727529803D+03  KE= 2.934434751833D+03
 Unable to Open any file for archive entry.
 1\1\GINC-COMPUTE-0-30\SP\RM062X\def2TZVP\C8H10Br1N1\ZTAN64\14-Aug-2024
 \0\\# M062X/def2tzvp int=(grid=ultrafine) nmr=giao guess=read geom=che
 ck\\pyrd10.xyz\\0,1\Br,0,4.9724096056,-0.0960992171,1.4758582967\C,0,3
 .5740664143,-1.484587862,1.3201523093\C,0,2.9534620558,-1.4747825037,-
 0.06608861\C,0,1.8538983053,-2.5486276621,-0.2084891759\C,0,0.68888505
 26,-2.3295744704,0.725873171\C,0,0.4933431078,-3.1392272956,1.85069362
 95\N,0,-0.4948085947,-2.9811384622,2.7384065923\C,0,-1.3519787803,-1.9
 764019248,2.5272251028\C,0,-1.2596264957,-1.1056848486,1.4399758165\C,
 0,-0.2232465799,-1.287124813,0.5296397334\H,0,4.0732175465,-2.42733620
 75,1.5455696357\H,0,2.8510516271,-1.2583548407,2.1021784296\H,0,2.5315
 507722,-0.4837439688,-0.2638379354\H,0,3.7326454737,-1.6453562898,-0.8
 15499066\H,0,2.2857571516,-3.5401213269,-0.02916405\H,0,1.5023744818,-
 2.5440587868,-1.2466416794\H,0,1.1776650527,-3.9657597597,2.0405896109
 \H,0,-2.149318368,-1.862119961,3.2585315759\H,0,-1.9846220019,-0.30839
 93121,1.3129066647\H,0,-0.1214258266,-0.6286004871,-0.3292800514\\Vers
 ion=ES64L-G16RevC.01\State=1-A\HF=-2939.7887074\RMSD=9.783e-10\Dipole=
 -0.510235,-0.0349686,-0.9022348\Quadrupole=-0.6598988,-0.1761705,0.836
 0693,-7.7771323,1.5489355,1.9352683\PG=C01 [X(C8H10Br1N1)]\\@
 The archive entry for this job was punched.


 AN AIRPLANE IS A COLLECTION OF SPARE PARTS
 FLYING IN CLOSE FORMATION.
 Job cpu time:       0 days  0 hours 27 minutes 37.7 seconds.
 Elapsed time:       0 days  0 hours  1 minutes 50.8 seconds.
 File lengths (MBytes):  RWF=     88 Int=      0 D2E=      0 Chk=     15 Scr=      1
 Normal termination of Gaussian 16 at Wed Aug 14 18:56:31 2024.
 
 
-----Kestrel cluster job statistics-----
Time info:

real	10m44.462s
user	165m8.531s
sys	0m21.140s
 
Disk space usage:
15M	/scratch/362950.kestrel.chem.wisc.edu
