 Entering Gaussian System, Link 0=/share/apps/gaussian/g16/g16
 Initial command:
 /share/apps/gaussian/g16/l1.exe "/scratch/362954.kestrel.chem.wisc.edu/Gau-77048.inp" -scrdir="/scratch/362954.kestrel.chem.wisc.edu/"
 Entering Link 1 = /share/apps/gaussian/g16/l1.exe PID=     77053.
  
 Copyright (c) 1988-2019, Gaussian, Inc.  All Rights Reserved.
  
 This is part of the Gaussian(R) 16 program.  It is based on
 the Gaussian(R) 09 system (copyright 2009, Gaussian, Inc.),
 the Gaussian(R) 03 system (copyright 2003, Gaussian, Inc.),
 the Gaussian(R) 98 system (copyright 1998, Gaussian, Inc.),
 the Gaussian(R) 94 system (copyright 1995, Gaussian, Inc.),
 the Gaussian 92(TM) system (copyright 1992, Gaussian, Inc.),
 the Gaussian 90(TM) system (copyright 1990, Gaussian, Inc.),
 the Gaussian 88(TM) system (copyright 1988, Gaussian, Inc.),
 the Gaussian 86(TM) system (copyright 1986, Carnegie Mellon
 University), and the Gaussian 82(TM) system (copyright 1983,
 Carnegie Mellon University). Gaussian is a federally registered
 trademark of Gaussian, Inc.
  
 This software contains proprietary and confidential information,
 including trade secrets, belonging to Gaussian, Inc.
  
 This software is provided under written license and may be
 used, copied, transmitted, or stored only in accord with that
 written license.
  
 The following legend is applicable only to US Government
 contracts under FAR:
  
                    RESTRICTED RIGHTS LEGEND
  
 Use, reproduction and disclosure by the US Government is
 subject to restrictions as set forth in subparagraphs (a)
 and (c) of the Commercial Computer Software - Restricted
 Rights clause in FAR 52.227-19.
  
 Gaussian, Inc.
 340 Quinnipiac St., Bldg. 40, Wallingford CT 06492
  
  
 ---------------------------------------------------------------
 Warning -- This program may not be used in any manner that
 competes with the business of Gaussian, Inc. or will provide
 assistance to any competitor of Gaussian, Inc.  The licensee
 of this program is prohibited from giving any competitor of
 Gaussian, Inc. access to this program.  By using this program,
 the user acknowledges that Gaussian, Inc. is engaged in the
 business of creating and licensing software in the field of
 computational chemistry and represents and warrants to the
 licensee that it is not a competitor of Gaussian, Inc. and that
 it will not use this program in any manner prohibited above.
 ---------------------------------------------------------------
  

 Cite this work as:
 Gaussian 16, Revision C.01,
 M. J. Frisch, G. W. Trucks, H. B. Schlegel, G. E. Scuseria, 
 M. A. Robb, J. R. Cheeseman, G. Scalmani, V. Barone, 
 G. A. Petersson, H. Nakatsuji, X. Li, M. Caricato, A. V. Marenich, 
 J. Bloino, B. G. Janesko, R. Gomperts, B. Mennucci, H. P. Hratchian, 
 J. V. Ortiz, A. F. Izmaylov, J. L. Sonnenberg, D. Williams-Young, 
 F. Ding, F. Lipparini, F. Egidi, J. Goings, B. Peng, A. Petrone, 
 T. Henderson, D. Ranasinghe, V. G. Zakrzewski, J. Gao, N. Rega, 
 G. Zheng, W. Liang, M. Hada, M. Ehara, K. Toyota, R. Fukuda, 
 J. Hasegawa, M. Ishida, T. Nakajima, Y. Honda, O. Kitao, H. Nakai, 
 T. Vreven, K. Throssell, J. A. Montgomery, Jr., J. E. Peralta, 
 F. Ogliaro, M. J. Bearpark, J. J. Heyd, E. N. Brothers, K. N. Kudin, 
 V. N. Staroverov, T. A. Keith, R. Kobayashi, J. Normand, 
 K. Raghavachari, A. P. Rendell, J. C. Burant, S. S. Iyengar, 
 J. Tomasi, M. Cossi, J. M. Millam, M. Klene, C. Adamo, R. Cammi, 
 J. W. Ochterski, R. L. Martin, K. Morokuma, O. Farkas, 
 J. B. Foresman, and D. J. Fox, Gaussian, Inc., Wallingford CT, 2019.
 
 ******************************************
 Gaussian 16:  ES64L-G16RevC.01  3-Jul-2019
                14-Aug-2024 
 ******************************************
 %nprocs=16
 Will use up to   16 processors via shared memory.
 %mem=16GB
 %chk=pyrd10_conf-7.chk
 ----------------------------------------------------------------------
 # B3LYP/6-31G(d,p) symmetry=loose empiricaldispersion=GD3BJ int=(grid=
 ultrafine) opt freq=noraman
 ----------------------------------------------------------------------
 1/18=20,19=15,26=4,38=1/1,3;
 2/9=110,12=2,17=4,18=3,40=1/2;
 3/5=1,6=6,7=101,11=2,25=1,30=1,71=1,74=-5,75=-5,124=41/1,2,3;
 4//1;
 5/5=2,38=5/2;
 6/7=2,8=2,9=2,10=2,28=1/1;
 7//1,2,3,16;
 1/18=20,19=15,26=4/3(2);
 2/9=110/2;
 99//99;
 2/9=110/2;
 3/5=1,6=6,7=101,11=2,25=1,30=1,71=1,74=-5,75=-5,124=41/1,2,3;
 4/5=5,16=3,69=1/1;
 5/5=2,38=5/2;
 7//1,2,3,16;
 1/18=20,19=15,26=4/3(-5);
 2/9=110/2;
 6/7=2,8=2,9=2,10=2,19=2,28=1/1;
 99/9=1/99;
 ----------
 pyrd10.xyz
 ----------
 Symbolic Z-matrix:
 Charge =  0 Multiplicity = 1
 Br                    5.8807   -2.129     0.6795 
 C                     4.2946   -1.0124    0.2381 
 C                     3.0364   -1.6693    0.823 
 C                     1.7527   -0.8738    0.525 
 C                     0.5144   -1.5346    1.1085 
 C                     0.0137   -1.151     2.3577 
 N                    -1.0866   -1.7148    2.9182 
 C                    -1.7201   -2.6948    2.2256 
 C                    -1.2872   -3.1387    0.9745 
 C                    -0.1537   -2.5478    0.4119 
 H                     4.4649   -0.0177    0.6525 
 H                     4.2423   -0.9275   -0.8483 
 H                     2.9416   -2.681     0.4245 
 H                     3.1566   -1.7789    1.9024 
 H                     1.6145   -0.7589   -0.5518 
 H                     1.8347    0.1421    0.9161 
 H                     0.4952   -0.3773    2.938 
 H                    -2.5923   -3.1255    2.6968 
 H                    -1.8163   -3.9228    0.4528 
 H                     0.2012   -2.8769   -0.5541 
 

 GradGradGradGradGradGradGradGradGradGradGradGradGradGradGradGradGradGrad
 Berny optimization.
 Initialization pass.
                           ----------------------------
                           !    Initial Parameters    !
                           ! (Angstroms and Degrees)  !
 --------------------------                            --------------------------
 ! Name  Definition              Value          Derivative Info.                !
 --------------------------------------------------------------------------------
 ! R1    R(1,2)                  1.9893         estimate D2E/DX2                !
 ! R2    R(2,3)                  1.5352         estimate D2E/DX2                !
 ! R3    R(2,11)                 1.0909         estimate D2E/DX2                !
 ! R4    R(2,12)                 1.091          estimate D2E/DX2                !
 ! R5    R(3,4)                  1.5393         estimate D2E/DX2                !
 ! R6    R(3,13)                 1.0915         estimate D2E/DX2                !
 ! R7    R(3,14)                 1.0916         estimate D2E/DX2                !
 ! R8    R(4,5)                  1.52           estimate D2E/DX2                !
 ! R9    R(4,15)                 1.0917         estimate D2E/DX2                !
 ! R10   R(4,16)                 1.0917         estimate D2E/DX2                !
 ! R11   R(5,6)                  1.3994         estimate D2E/DX2                !
 ! R12   R(5,10)                 1.3994         estimate D2E/DX2                !
 ! R13   R(6,7)                  1.3575         estimate D2E/DX2                !
 ! R14   R(6,17)                 1.0804         estimate D2E/DX2                !
 ! R15   R(7,8)                  1.357          estimate D2E/DX2                !
 ! R16   R(8,9)                  1.3963         estimate D2E/DX2                !
 ! R17   R(8,18)                 1.0809         estimate D2E/DX2                !
 ! R18   R(9,10)                 1.3966         estimate D2E/DX2                !
 ! R19   R(9,19)                 1.0802         estimate D2E/DX2                !
 ! R20   R(10,20)                1.0805         estimate D2E/DX2                !
 ! A1    A(1,2,3)              109.1928         estimate D2E/DX2                !
 ! A2    A(1,2,11)             107.64           estimate D2E/DX2                !
 ! A3    A(1,2,12)             107.6295         estimate D2E/DX2                !
 ! A4    A(3,2,11)             111.9236         estimate D2E/DX2                !
 ! A5    A(3,2,12)             111.9266         estimate D2E/DX2                !
 ! A6    A(11,2,12)            108.3483         estimate D2E/DX2                !
 ! A7    A(2,3,4)              112.8671         estimate D2E/DX2                !
 ! A8    A(2,3,13)             109.1904         estimate D2E/DX2                !
 ! A9    A(2,3,14)             109.2363         estimate D2E/DX2                !
 ! A10   A(4,3,13)             109.6273         estimate D2E/DX2                !
 ! A11   A(4,3,14)             109.5815         estimate D2E/DX2                !
 ! A12   A(13,3,14)            106.1124         estimate D2E/DX2                !
 ! A13   A(3,4,5)              112.3581         estimate D2E/DX2                !
 ! A14   A(3,4,15)             110.5431         estimate D2E/DX2                !
 ! A15   A(3,4,16)             110.4214         estimate D2E/DX2                !
 ! A16   A(5,4,15)             108.7392         estimate D2E/DX2                !
 ! A17   A(5,4,16)             109.1608         estimate D2E/DX2                !
 ! A18   A(15,4,16)            105.3631         estimate D2E/DX2                !
 ! A19   A(4,5,6)              120.9961         estimate D2E/DX2                !
 ! A20   A(4,5,10)             120.8381         estimate D2E/DX2                !
 ! A21   A(6,5,10)             118.1654         estimate D2E/DX2                !
 ! A22   A(5,6,7)              123.0074         estimate D2E/DX2                !
 ! A23   A(5,6,17)             121.0857         estimate D2E/DX2                !
 ! A24   A(7,6,17)             115.9067         estimate D2E/DX2                !
 ! A25   A(6,7,8)              117.8792         estimate D2E/DX2                !
 ! A26   A(7,8,9)              122.8313         estimate D2E/DX2                !
 ! A27   A(7,8,18)             116.2308         estimate D2E/DX2                !
 ! A28   A(9,8,18)             120.9379         estimate D2E/DX2                !
 ! A29   A(8,9,10)             118.5586         estimate D2E/DX2                !
 ! A30   A(8,9,19)             120.772          estimate D2E/DX2                !
 ! A31   A(10,9,19)            120.6694         estimate D2E/DX2                !
 ! A32   A(5,10,9)             119.558          estimate D2E/DX2                !
 ! A33   A(5,10,20)            120.5825         estimate D2E/DX2                !
 ! A34   A(9,10,20)            119.8594         estimate D2E/DX2                !
 ! D1    D(1,2,3,4)           -179.7825         estimate D2E/DX2                !
 ! D2    D(1,2,3,13)           -57.5885         estimate D2E/DX2                !
 ! D3    D(1,2,3,14)            58.0493         estimate D2E/DX2                !
 ! D4    D(11,2,3,4)            61.1406         estimate D2E/DX2                !
 ! D5    D(11,2,3,13)         -176.6654         estimate D2E/DX2                !
 ! D6    D(11,2,3,14)          -61.0277         estimate D2E/DX2                !
 ! D7    D(12,2,3,4)           -60.7167         estimate D2E/DX2                !
 ! D8    D(12,2,3,13)           61.4773         estimate D2E/DX2                !
 ! D9    D(12,2,3,14)          177.1151         estimate D2E/DX2                !
 ! D10   D(2,3,4,5)            179.9699         estimate D2E/DX2                !
 ! D11   D(2,3,4,15)            58.2948         estimate D2E/DX2                !
 ! D12   D(2,3,4,16)           -57.9001         estimate D2E/DX2                !
 ! D13   D(13,3,4,5)            58.0215         estimate D2E/DX2                !
 ! D14   D(13,3,4,15)          -63.6536         estimate D2E/DX2                !
 ! D15   D(13,3,4,16)         -179.8485         estimate D2E/DX2                !
 ! D16   D(14,3,4,5)           -58.056          estimate D2E/DX2                !
 ! D17   D(14,3,4,15)         -179.731          estimate D2E/DX2                !
 ! D18   D(14,3,4,16)           64.074          estimate D2E/DX2                !
 ! D19   D(3,4,5,6)             95.1623         estimate D2E/DX2                !
 ! D20   D(3,4,5,10)           -84.6056         estimate D2E/DX2                !
 ! D21   D(15,4,5,6)          -142.1397         estimate D2E/DX2                !
 ! D22   D(15,4,5,10)           38.0924         estimate D2E/DX2                !
 ! D23   D(16,4,5,6)           -27.6802         estimate D2E/DX2                !
 ! D24   D(16,4,5,10)          152.552          estimate D2E/DX2                !
 ! D25   D(4,5,6,7)           -179.8741         estimate D2E/DX2                !
 ! D26   D(4,5,6,17)            -0.0715         estimate D2E/DX2                !
 ! D27   D(10,5,6,7)            -0.1002         estimate D2E/DX2                !
 ! D28   D(10,5,6,17)          179.7023         estimate D2E/DX2                !
 ! D29   D(4,5,10,9)           179.8539         estimate D2E/DX2                !
 ! D30   D(4,5,10,20)           -0.0053         estimate D2E/DX2                !
 ! D31   D(6,5,10,9)             0.0796         estimate D2E/DX2                !
 ! D32   D(6,5,10,20)         -179.7796         estimate D2E/DX2                !
 ! D33   D(5,6,7,8)              0.0524         estimate D2E/DX2                !
 ! D34   D(17,6,7,8)          -179.7596         estimate D2E/DX2                !
 ! D35   D(6,7,8,9)              0.0159         estimate D2E/DX2                !
 ! D36   D(6,7,8,18)           179.9537         estimate D2E/DX2                !
 ! D37   D(7,8,9,10)            -0.0327         estimate D2E/DX2                !
 ! D38   D(7,8,9,19)           179.9044         estimate D2E/DX2                !
 ! D39   D(18,8,9,10)         -179.9678         estimate D2E/DX2                !
 ! D40   D(18,8,9,19)           -0.0307         estimate D2E/DX2                !
 ! D41   D(8,9,10,5)            -0.0172         estimate D2E/DX2                !
 ! D42   D(8,9,10,20)          179.8431         estimate D2E/DX2                !
 ! D43   D(19,9,10,5)         -179.9543         estimate D2E/DX2                !
 ! D44   D(19,9,10,20)          -0.0941         estimate D2E/DX2                !
 --------------------------------------------------------------------------------
 Trust Radius=3.00D-01 FncErr=1.00D-07 GrdErr=1.00D-06 EigMax=2.50D+02 EigMin=1.00D-04
 Number of steps in this run=    108 maximum allowed number of steps=    120.
 GradGradGradGradGradGradGradGradGradGradGradGradGradGradGradGradGradGrad

                          Input orientation:                          
 ---------------------------------------------------------------------
 Center     Atomic      Atomic             Coordinates (Angstroms)
 Number     Number       Type             X           Y           Z
 ---------------------------------------------------------------------
      1         35           0        5.880700   -2.129000    0.679500
      2          6           0        4.294600   -1.012400    0.238100
      3          6           0        3.036400   -1.669300    0.823000
      4          6           0        1.752700   -0.873800    0.525000
      5          6           0        0.514400   -1.534600    1.108500
      6          6           0        0.013700   -1.151000    2.357700
      7          7           0       -1.086600   -1.714800    2.918200
      8          6           0       -1.720100   -2.694800    2.225600
      9          6           0       -1.287200   -3.138700    0.974500
     10          6           0       -0.153700   -2.547800    0.411900
     11          1           0        4.464900   -0.017700    0.652500
     12          1           0        4.242300   -0.927500   -0.848300
     13          1           0        2.941600   -2.681000    0.424500
     14          1           0        3.156600   -1.778900    1.902400
     15          1           0        1.614500   -0.758900   -0.551800
     16          1           0        1.834700    0.142100    0.916100
     17          1           0        0.495200   -0.377300    2.938000
     18          1           0       -2.592300   -3.125500    2.696800
     19          1           0       -1.816300   -3.922800    0.452800
     20          1           0        0.201200   -2.876900   -0.554100
 ---------------------------------------------------------------------
                    Distance matrix (angstroms):
                    1          2          3          4          5
     1  Br   0.000000
     2  C    1.989307   0.000000
     3  C    2.884781   1.535152   0.000000
     4  C    4.317381   2.561792   1.539321   0.000000
     5  C    5.416136   3.914103   2.541680   1.520038   0.000000
     6  C    6.180172   4.778914   3.429381   2.541604   1.399411
     7  N    7.329844   6.052571   4.625047   3.807402   2.422950
     8  C    7.777063   6.554177   5.063914   4.274157   2.754445
     9  C    7.244675   6.018299   4.568983   3.817436   2.415958
    10  C    6.054832   4.709037   3.334292   2.539573   1.399351
    11  H    2.542205   1.090943   2.190312   2.846962   4.256216
    12  H    2.542072   1.090967   2.190367   2.843755   4.253807
    13  H    3.001339   2.156288   1.091479   2.165538   2.770088
    14  H    3.006456   2.156956   1.091588   2.165034   2.769690
    15  H    4.646906   2.805555   2.177316   1.091696   2.137411
    16  H    4.645857   2.800654   2.175757   1.091667   2.142786
    17  H    6.096957   4.704068   3.549674   2.765933   2.164898
    18  H    8.766655   7.611819   6.108511   5.354054   3.834742
    19  H    7.906511   6.771973   5.363209   4.694611   3.400824
    20  H    5.859850   4.567260   3.375361   2.753910   2.159653
                    6          7          8          9         10
     6  C    0.000000
     7  N    1.357457   0.000000
     8  C    2.325259   1.356988   0.000000
     9  C    2.748915   2.417789   1.396317   0.000000
    10  C    2.401085   2.801023   2.400984   1.396604   0.000000
    11  H    4.899516   6.231589   6.920674   6.552174   5.271694
    12  H    5.311257   6.572940   6.937033   6.227951   4.851628
    13  H    3.827631   4.835130   4.997559   4.288909   3.098190
    14  H    3.237187   4.363566   4.972478   4.738925   3.710914
    15  H    3.343874   4.500065   4.751970   4.051284   2.693587
    16  H    2.658262   3.998809   4.732800   4.529163   3.382826
    17  H    1.080371   2.071567   3.284185   3.828526   3.393129
    18  H    3.287077   2.075145   1.080863   2.160967   3.391353
    19  H    3.828893   3.389089   2.158717   1.080246   2.157901
    20  H    3.390054   3.881465   3.383975   2.149533   1.080471
                   11         12         13         14         15
    11  H    0.000000
    12  H    1.769092   0.000000
    13  H    3.076621   2.527173   0.000000
    14  H    2.525020   3.077333   1.744763   0.000000
    15  H    3.181901   2.649844   2.531566   3.072714   0.000000
    16  H    2.648202   3.170755   3.071936   2.531886   1.736381
    17  H    4.594708   5.355329   4.196378   3.181195   3.684719
    18  H    7.977572   8.006915   5.998748   5.957705   5.818192
    19  H    7.398862   6.882682   4.917365   5.606013   4.773874
    20  H    5.273523   4.496354   2.916475   3.996797   2.546242
                   16         17         18         19         20
    16  H    0.000000
    17  H    2.480346   0.000000
    18  H    5.783289   4.140463   0.000000
    19  H    5.483417   4.908138   2.504675   0.000000
    20  H    3.734190   4.304556   4.293460   2.485570   0.000000
 Stoichiometry    C8H10BrN
 Framework group  C1[X(C8H10BrN)]
 Deg. of freedom    54
 Full point group                 C1      NOp   1
 Largest Abelian subgroup         C1      NOp   1
 Largest concise Abelian subgroup C1      NOp   1
                         Standard orientation:                         
 ---------------------------------------------------------------------
 Center     Atomic      Atomic             Coordinates (Angstroms)
 Number     Number       Type             X           Y           Z
 ---------------------------------------------------------------------
      1         35           0        3.366921    0.150659   -0.390920
      2          6           0        1.925314   -0.359021    0.881613
      3          6           0        0.560530   -0.094879    0.230240
      4          6           0       -0.620653   -0.456689    1.148614
      5          6           0       -1.965761   -0.190046    0.492793
      6          6           0       -2.657954   -1.208551   -0.171937
      7          7           0       -3.859454   -1.015444   -0.773434
      8          6           0       -4.402744    0.226949   -0.721371
      9          6           0       -3.779339    1.299575   -0.080636
     10          6           0       -2.543731    1.083718    0.533517
     11          1           0        2.060972   -1.412585    1.130123
     12          1           0        2.063644    0.228729    1.790251
     13          1           0        0.495794    0.957205   -0.053054
     14          1           0        0.489269   -0.663686   -0.698708
     15          1           0       -0.567348    0.107645    2.081613
     16          1           0       -0.567081   -1.506750    1.442277
     17          1           0       -2.253132   -2.208145   -0.236232
     18          1           0       -5.359143    0.350967   -1.209414
     19          1           0       -4.241484    2.275770   -0.060775
     20          1           0       -2.041523    1.899540    1.033155
 ---------------------------------------------------------------------
 Rotational constants (GHZ):           3.0529149           0.2659756           0.2631953
 Standard basis: 6-31G(d,p) (6D, 7F)
 There are   215 symmetry adapted cartesian basis functions of A   symmetry.
 There are   215 symmetry adapted basis functions of A   symmetry.
   215 basis functions,   405 primitive gaussians,   215 cartesian basis functions
    50 alpha electrons       50 beta electrons
       nuclear repulsion energy       672.0887352562 Hartrees.
 NAtoms=   20 NActive=   20 NUniq=   20 SFac= 1.00D+00 NAtFMM=   60 NAOKFM=F Big=F
 Integral buffers will be    131072 words long.
 Raffenetti 2 integral format.
 Two-electron integral symmetry is turned on.
 Nuclear repulsion after empirical dispersion term =      672.0521739747 Hartrees.
 One-electron integrals computed using PRISM.
 NBasis=   215 RedAO= T EigKep=  7.52D-04  NBF=   215
 NBsUse=   215 1.00D-06 EigRej= -1.00D+00 NBFU=   215
 ExpMin= 1.43D-01 ExpMax= 5.74D+05 ExpMxC= 5.74D+03 IAcc=3 IRadAn=         5 AccDes= 0.00D+00
 Harris functional with IExCor=  402 and IRadAn=       5 diagonalized for initial guess.
 HarFok:  IExCor=  402 AccDes= 0.00D+00 IRadAn=         5 IDoV= 1 UseB2=F ITyADJ=14
 ICtDFT=  3500011 ScaDFX=  1.000000  1.000000  1.000000  1.000000
 FoFCou: FMM=F IPFlag=           0 FMFlag=      100000 FMFlg1=           0
         NFxFlg=           0 DoJE=T BraDBF=F KetDBF=T FulRan=T
         wScrn=  0.000000 ICntrl=       500 IOpCl=  0 I1Cent=   200000004 NGrid=           0
         NMat0=    1 NMatS0=      1 NMatT0=    0 NMatD0=    1 NMtDS0=    0 NMtDT0=    0
 Petite list used in FoFCou.
 Requested convergence on RMS density matrix=1.00D-08 within 128 cycles.
 Requested convergence on MAX density matrix=1.00D-06.
 Requested convergence on             energy=1.00D-06.
 No special actions if energy rises.
 Integral accuracy reduced to 1.0D-05 until final iterations.
 Initial convergence to 1.0D-05 achieved.  Increase integral accuracy.
 SCF Done:  E(RB3LYP) =  -2937.38379051     A.U. after   14 cycles
            NFock= 14  Conv=0.52D-08     -V/T= 2.0066

 **********************************************************************

            Population analysis using the SCF Density.

 **********************************************************************

 Orbital symmetries:
       Occupied  (A) (A) (A) (A) (A) (A) (A) (A) (A) (A) (A) (A)
                 (A) (A) (A) (A) (A) (A) (A) (A) (A) (A) (A) (A)
                 (A) (A) (A) (A) (A) (A) (A) (A) (A) (A) (A) (A)
                 (A) (A) (A) (A) (A) (A) (A) (A) (A) (A) (A) (A)
                 (A) (A)
       Virtual   (A) (A) (A) (A) (A) (A) (A) (A) (A) (A) (A) (A)
                 (A) (A) (A) (A) (A) (A) (A) (A) (A) (A) (A) (A)
                 (A) (A) (A) (A) (A) (A) (A) (A) (A) (A) (A) (A)
                 (A) (A) (A) (A) (A) (A) (A) (A) (A) (A) (A) (A)
                 (A) (A) (A) (A) (A) (A) (A) (A) (A) (A) (A) (A)
                 (A) (A) (A) (A) (A) (A) (A) (A) (A) (A) (A) (A)
                 (A) (A) (A) (A) (A) (A) (A) (A) (A) (A) (A) (A)
                 (A) (A) (A) (A) (A) (A) (A) (A) (A) (A) (A) (A)
                 (A) (A) (A) (A) (A) (A) (A) (A) (A) (A) (A) (A)
                 (A) (A) (A) (A) (A) (A) (A) (A) (A) (A) (A) (A)
                 (A) (A) (A) (A) (A) (A) (A) (A) (A) (A) (A) (A)
                 (A) (A) (A) (A) (A) (A) (A) (A) (A) (A) (A) (A)
                 (A) (A) (A) (A) (A) (A) (A) (A) (A) (A) (A) (A)
                 (A) (A) (A) (A) (A) (A) (A) (A) (A)
 The electronic state is 1-A.
 Alpha  occ. eigenvalues -- -482.89721 -61.85971 -56.38046 -56.37669 -56.37662
 Alpha  occ. eigenvalues --  -14.33341 -10.24919 -10.22492 -10.22467 -10.21106
 Alpha  occ. eigenvalues --  -10.21050 -10.20678 -10.20569 -10.20320  -8.57120
 Alpha  occ. eigenvalues --   -6.52506  -6.51234  -6.51223  -2.64068  -2.63715
 Alpha  occ. eigenvalues --   -2.63706  -2.62691  -2.62691  -0.93224  -0.83564
 Alpha  occ. eigenvalues --   -0.80690  -0.77921  -0.74189  -0.67836  -0.63428
 Alpha  occ. eigenvalues --   -0.61976  -0.59876  -0.52338  -0.50011  -0.47473
 Alpha  occ. eigenvalues --   -0.46789  -0.43913  -0.43081  -0.41285  -0.40427
 Alpha  occ. eigenvalues --   -0.39028  -0.38935  -0.36299  -0.35510  -0.34984
 Alpha  occ. eigenvalues --   -0.28447  -0.27512  -0.27375  -0.25743  -0.25323
 Alpha virt. eigenvalues --   -0.02964  -0.01525  -0.00335   0.08107   0.10238
 Alpha virt. eigenvalues --    0.11555   0.12378   0.13010   0.14670   0.15419
 Alpha virt. eigenvalues --    0.15541   0.16945   0.17160   0.18775   0.20708
 Alpha virt. eigenvalues --    0.22927   0.23602   0.24822   0.29007   0.31237
 Alpha virt. eigenvalues --    0.31977   0.35634   0.41724   0.43165   0.43378
 Alpha virt. eigenvalues --    0.44956   0.45479   0.46859   0.47768   0.50165
 Alpha virt. eigenvalues --    0.51222   0.51870   0.53057   0.54054   0.55177
 Alpha virt. eigenvalues --    0.55539   0.57975   0.58704   0.59062   0.59610
 Alpha virt. eigenvalues --    0.61749   0.62764   0.63669   0.65869   0.66301
 Alpha virt. eigenvalues --    0.67732   0.69528   0.76130   0.78028   0.78595
 Alpha virt. eigenvalues --    0.78704   0.80002   0.80920   0.83389   0.84450
 Alpha virt. eigenvalues --    0.85243   0.86620   0.86924   0.88294   0.89353
 Alpha virt. eigenvalues --    0.89902   0.92407   0.93739   0.95055   0.96275
 Alpha virt. eigenvalues --    0.98838   1.05340   1.08016   1.12308   1.13052
 Alpha virt. eigenvalues --    1.18944   1.21379   1.24881   1.27615   1.32926
 Alpha virt. eigenvalues --    1.34558   1.37617   1.39802   1.40176   1.42783
 Alpha virt. eigenvalues --    1.46939   1.47598   1.50619   1.52422   1.57613
 Alpha virt. eigenvalues --    1.65050   1.65234   1.71612   1.74285   1.75359
 Alpha virt. eigenvalues --    1.77940   1.79986   1.80609   1.84561   1.85667
 Alpha virt. eigenvalues --    1.88867   1.89516   1.94411   1.95973   1.96838
 Alpha virt. eigenvalues --    2.00499   2.05441   2.07444   2.08398   2.10350
 Alpha virt. eigenvalues --    2.11266   2.12178   2.17947   2.20231   2.21123
 Alpha virt. eigenvalues --    2.23782   2.29061   2.30498   2.30993   2.31843
 Alpha virt. eigenvalues --    2.33323   2.35592   2.37432   2.38955   2.41210
 Alpha virt. eigenvalues --    2.45851   2.49061   2.49660   2.51690   2.52547
 Alpha virt. eigenvalues --    2.54315   2.58495   2.60898   2.64678   2.66153
 Alpha virt. eigenvalues --    2.67287   2.69479   2.72159   2.73647   2.76945
 Alpha virt. eigenvalues --    2.81109   2.81737   2.84741   2.87437   2.88523
 Alpha virt. eigenvalues --    2.98339   3.04453   3.17716   3.20528   3.23618
 Alpha virt. eigenvalues --    3.26446   3.28530   3.34613   3.35718   3.39040
 Alpha virt. eigenvalues --    3.46395   3.48739   3.55253   3.79028   4.09316
 Alpha virt. eigenvalues --    4.16241   4.17784   4.25266   4.31351   4.43210
 Alpha virt. eigenvalues --    4.48148   4.67139   4.74628   8.62229  72.89317
          Condensed to atoms (all electrons):
               1          2          3          4          5          6
     1  Br  35.012866   0.251883  -0.048171   0.004517  -0.000148  -0.000004
     2  C    0.251883   4.981655   0.330401  -0.033164   0.003480   0.000061
     3  C   -0.048171   0.330401   4.973302   0.329332  -0.038197  -0.002977
     4  C    0.004517  -0.033164   0.329332   5.060655   0.341662  -0.042591
     5  C   -0.000148   0.003480  -0.038197   0.341662   4.811610   0.488295
     6  C   -0.000004   0.000061  -0.002977  -0.042591   0.488295   4.806751
     7  N   -0.000000   0.000001  -0.000027   0.005725  -0.016081   0.439174
     8  C    0.000000  -0.000000   0.000018   0.000304  -0.032369  -0.072910
     9  C   -0.000000   0.000003  -0.000002   0.007204  -0.021243  -0.041700
    10  C   -0.000006   0.000070  -0.003751  -0.062351   0.537547  -0.036317
    11  H   -0.036595   0.379200  -0.035913  -0.002183  -0.000014   0.000001
    12  H   -0.036713   0.378640  -0.036178  -0.002121   0.000003  -0.000001
    13  H    0.001079  -0.038454   0.387606  -0.038490  -0.002691  -0.000088
    14  H    0.000968  -0.037992   0.387860  -0.037971  -0.001214   0.002653
    15  H   -0.000016  -0.003827  -0.037698   0.370178  -0.028096   0.002931
    16  H   -0.000014  -0.003820  -0.036300   0.371889  -0.030204  -0.005355
    17  H    0.000000  -0.000026   0.000269  -0.004344  -0.067056   0.388347
    18  H   -0.000000   0.000000   0.000000   0.000014   0.000728   0.004533
    19  H    0.000000  -0.000000  -0.000001  -0.000112   0.005033   0.000495
    20  H    0.000001  -0.000066   0.000308  -0.009462  -0.048501   0.005494
               7          8          9         10         11         12
     1  Br  -0.000000   0.000000  -0.000000  -0.000006  -0.036595  -0.036713
     2  C    0.000001  -0.000000   0.000003   0.000070   0.379200   0.378640
     3  C   -0.000027   0.000018  -0.000002  -0.003751  -0.035913  -0.036178
     4  C    0.005725   0.000304   0.007204  -0.062351  -0.002183  -0.002121
     5  C   -0.016081  -0.032369  -0.021243   0.537547  -0.000014   0.000003
     6  C    0.439174  -0.072910  -0.041700  -0.036317   0.000001  -0.000001
     7  N    6.727597   0.458481  -0.023830  -0.056165  -0.000000  -0.000000
     8  C    0.458481   4.725658   0.503182  -0.039103  -0.000000   0.000000
     9  C   -0.023830   0.503182   4.903664   0.515192  -0.000000  -0.000000
    10  C   -0.056165  -0.039103   0.515192   4.882797  -0.000000   0.000001
    11  H   -0.000000  -0.000000  -0.000000  -0.000000   0.583732  -0.039003
    12  H   -0.000000   0.000000  -0.000000   0.000001  -0.039003   0.586051
    13  H   -0.000004  -0.000004  -0.000155   0.003621   0.005384  -0.005687
    14  H   -0.000078  -0.000004  -0.000016  -0.000134  -0.005741   0.005360
    15  H   -0.000173   0.000025  -0.000013  -0.005573  -0.000513   0.004342
    16  H    0.000069   0.000010  -0.000231   0.004205   0.004256  -0.000512
    17  H   -0.049352   0.004806   0.000311   0.004072   0.000002   0.000000
    18  H   -0.050108   0.388259  -0.061419   0.003398   0.000000  -0.000000
    19  H    0.004853  -0.035373   0.358863  -0.039591   0.000000  -0.000000
    20  H   -0.000289   0.004807  -0.045100   0.374750   0.000000   0.000005
              13         14         15         16         17         18
     1  Br   0.001079   0.000968  -0.000016  -0.000014   0.000000  -0.000000
     2  C   -0.038454  -0.037992  -0.003827  -0.003820  -0.000026   0.000000
     3  C    0.387606   0.387860  -0.037698  -0.036300   0.000269   0.000000
     4  C   -0.038490  -0.037971   0.370178   0.371889  -0.004344   0.000014
     5  C   -0.002691  -0.001214  -0.028096  -0.030204  -0.067056   0.000728
     6  C   -0.000088   0.002653   0.002931  -0.005355   0.388347   0.004533
     7  N   -0.000004  -0.000078  -0.000173   0.000069  -0.049352  -0.050108
     8  C   -0.000004  -0.000004   0.000025   0.000010   0.004806   0.388259
     9  C   -0.000155  -0.000016  -0.000013  -0.000231   0.000311  -0.061419
    10  C    0.003621  -0.000134  -0.005573   0.004205   0.004072   0.003398
    11  H    0.005384  -0.005741  -0.000513   0.004256   0.000002   0.000000
    12  H   -0.005687   0.005360   0.004342  -0.000512   0.000000  -0.000000
    13  H    0.600054  -0.036170  -0.005368   0.005679   0.000014  -0.000000
    14  H   -0.036170   0.594605   0.005742  -0.005356   0.000336  -0.000000
    15  H   -0.005368   0.005742   0.625547  -0.039086  -0.000041  -0.000000
    16  H    0.005679  -0.005356  -0.039086   0.621614   0.005054  -0.000000
    17  H    0.000014   0.000336  -0.000041   0.005054   0.619004  -0.000191
    18  H   -0.000000  -0.000000  -0.000000  -0.000000  -0.000191   0.613881
    19  H    0.000003   0.000000  -0.000010   0.000003   0.000026  -0.002265
    20  H    0.000948   0.000038   0.004177   0.000064  -0.000175  -0.000190
              19         20
     1  Br   0.000000   0.000001
     2  C   -0.000000  -0.000066
     3  C   -0.000001   0.000308
     4  C   -0.000112  -0.009462
     5  C    0.005033  -0.048501
     6  C    0.000495   0.005494
     7  N    0.004853  -0.000289
     8  C   -0.035373   0.004807
     9  C    0.358863  -0.045100
    10  C   -0.039591   0.374750
    11  H    0.000000   0.000000
    12  H   -0.000000   0.000005
    13  H    0.000003   0.000948
    14  H    0.000000   0.000038
    15  H   -0.000010   0.004177
    16  H    0.000003   0.000064
    17  H    0.000026  -0.000175
    18  H   -0.002265  -0.000190
    19  H    0.620856  -0.006465
    20  H   -0.006465   0.625652
 Mulliken charges:
               1
     1  Br  -0.149647
     2  C   -0.208044
     3  C   -0.169879
     4  C   -0.258692
     5  C    0.097458
     6  C    0.063208
     7  N   -0.439793
     8  C    0.094212
     9  C   -0.094707
    10  C   -0.082660
    11  H    0.147387
    12  H    0.145812
    13  H    0.122724
    14  H    0.127114
    15  H    0.107473
    16  H    0.108036
    17  H    0.098945
    18  H    0.103361
    19  H    0.093687
    20  H    0.094005
 Sum of Mulliken charges =  -0.00000
 Mulliken charges with hydrogens summed into heavy atoms:
               1
     1  Br  -0.149647
     2  C    0.085155
     3  C    0.079959
     4  C   -0.043182
     5  C    0.097458
     6  C    0.162153
     7  N   -0.439793
     8  C    0.197573
     9  C   -0.001021
    10  C    0.011345
 Electronic spatial extent (au):  <R**2>=           3732.2697
 Charge=             -0.0000 electrons
 Dipole moment (field-independent basis, Debye):
    X=             -0.5028    Y=              1.1572    Z=              2.1922  Tot=              2.5293
 Quadrupole moment (field-independent basis, Debye-Ang):
   XX=            -83.2087   YY=            -69.5646   ZZ=            -71.6937
   XY=             -9.2872   XZ=             -0.0285   YZ=             -1.4834
 Traceless Quadrupole moment (field-independent basis, Debye-Ang):
   XX=             -8.3863   YY=              5.2577   ZZ=              3.1286
   XY=             -9.2872   XZ=             -0.0285   YZ=             -1.4834
 Octapole moment (field-independent basis, Debye-Ang**2):
  XXX=             91.1858  YYY=              6.9389  ZZZ=             -8.7244  XYY=             35.1357
  XXY=             40.9985  XXZ=             -1.7515  XZZ=             45.6722  YZZ=              3.8400
  YYZ=              1.0718  XYZ=              4.7110
 Hexadecapole moment (field-independent basis, Debye-Ang**3):
 XXXX=          -3835.4953 YYYY=           -320.6665 ZZZZ=           -269.4600 XXXY=           -157.2040
 XXXZ=            -37.4386 YYYX=            -12.6019 YYYZ=             -3.1157 ZZZX=            -40.3059
 ZZZY=             -2.5135 XXYY=           -700.4017 XXZZ=           -683.1953 YYZZ=           -104.4396
 XXYZ=            -41.8546 YYXZ=            -24.5826 ZZXY=             -0.6094
 N-N= 6.720521739747D+02 E-N=-8.324646193380D+03  KE= 2.918027602701D+03
 Calling FoFJK, ICntrl=      2127 FMM=F ISym2X=0 I1Cent= 0 IOpClX= 0 NMat=1 NMatS=1 NMatT=0.
 ***** Axes restored to original set *****
 -------------------------------------------------------------------
 Center     Atomic                   Forces (Hartrees/Bohr)
 Number     Number              X              Y              Z
 -------------------------------------------------------------------
      1       35          -0.003108823    0.005282765   -0.002769607
      2        6          -0.009534816   -0.003376240    0.003412192
      3        6           0.004293236    0.003225021   -0.002470022
      4        6          -0.004730585   -0.001438424    0.002204423
      5        6           0.006764569    0.004205486   -0.004210845
      6        6          -0.021542192   -0.019624465   -0.000542429
      7        7           0.004273982   -0.003208437   -0.009942108
      8        6           0.016177783    0.015361588    0.002961328
      9        6           0.004605319    0.004476533    0.002122119
     10        6          -0.005389053   -0.000212015    0.008492822
     11        1           0.003121069   -0.001655536    0.002043711
     12        1           0.002814307   -0.002944887   -0.000155986
     13        1          -0.000148320   -0.001866702   -0.001442994
     14        1           0.000303921    0.000478067    0.002085073
     15        1           0.001321093   -0.001503198   -0.003895464
     16        1           0.001714698    0.002257856    0.003006178
     17        1           0.002424835    0.004150444    0.002062857
     18        1          -0.003391574   -0.001121175    0.002305704
     19        1          -0.002230095   -0.002470454   -0.001282674
     20        1           0.002260645   -0.000016229   -0.003984280
 -------------------------------------------------------------------
 Cartesian Forces:  Max     0.021542192 RMS     0.005907437

 GradGradGradGradGradGradGradGradGradGradGradGradGradGradGradGradGradGrad
 Berny optimization.
 FormGI is forming the generalized inverse of G from B-inverse, IUseBI=4.
 Internal  Forces:  Max     0.018154827 RMS     0.003516353
 Search for a local minimum.
 Step number   1 out of a maximum of  108
 All quantities printed in internal units (Hartrees-Bohrs-Radians)
 Mixed Optimization -- RFO/linear search
 Second derivative matrix not updated -- first step.
 ITU=  0
     Eigenvalues ---    0.00246   0.00301   0.00501   0.01436   0.02104
     Eigenvalues ---    0.02115   0.02136   0.02139   0.02145   0.02177
     Eigenvalues ---    0.02227   0.03421   0.03958   0.04750   0.05240
     Eigenvalues ---    0.05576   0.05648   0.08345   0.09389   0.12222
     Eigenvalues ---    0.12832   0.14501   0.16000   0.16000   0.16000
     Eigenvalues ---    0.16000   0.16000   0.16000   0.21879   0.21894
     Eigenvalues ---    0.22000   0.22250   0.23191   0.23456   0.25000
     Eigenvalues ---    0.28579   0.28953   0.30363   0.34617   0.34621
     Eigenvalues ---    0.34630   0.34642   0.34701   0.34704   0.35890
     Eigenvalues ---    0.35938   0.35950   0.35965   0.42096   0.43643
     Eigenvalues ---    0.45874   0.46092   0.51742   0.52858
 RFO step:  Lambda=-3.79351369D-03 EMin= 2.45802646D-03
 Linear search not attempted -- first point.
 Iteration  1 RMS(Cart)=  0.02410650 RMS(Int)=  0.00026976
 Iteration  2 RMS(Cart)=  0.00036053 RMS(Int)=  0.00007966
 Iteration  3 RMS(Cart)=  0.00000006 RMS(Int)=  0.00007966
 Variable       Old X    -DE/DX   Delta X   Delta X   Delta X     New X
                                 (Linear)    (Quad)   (Total)
    R1        3.75925  -0.00606   0.00000  -0.04071  -0.04071   3.71853
    R2        2.90102  -0.00761   0.00000  -0.02596  -0.02596   2.87506
    R3        2.06158  -0.00025   0.00000  -0.00070  -0.00070   2.06088
    R4        2.06163  -0.00021   0.00000  -0.00060  -0.00060   2.06103
    R5        2.90890  -0.00131   0.00000  -0.00451  -0.00451   2.90439
    R6        2.06260   0.00227   0.00000   0.00648   0.00648   2.06908
    R7        2.06280   0.00205   0.00000   0.00585   0.00585   2.06865
    R8        2.87246  -0.00467   0.00000  -0.01518  -0.01518   2.85728
    R9        2.06301   0.00352   0.00000   0.01005   0.01005   2.07305
   R10        2.06295   0.00331   0.00000   0.00945   0.00945   2.07240
   R11        2.64450  -0.00150   0.00000  -0.00340  -0.00336   2.64114
   R12        2.64439  -0.00442   0.00000  -0.00807  -0.00804   2.63635
   R13        2.56522  -0.01776   0.00000  -0.03435  -0.03434   2.53088
   R14        2.04161   0.00516   0.00000   0.01421   0.01421   2.05581
   R15        2.56434  -0.01815   0.00000  -0.03493  -0.03496   2.52937
   R16        2.63866  -0.00168   0.00000  -0.00355  -0.00360   2.63506
   R17        2.04254   0.00419   0.00000   0.01155   0.01155   2.05408
   R18        2.63920  -0.00501   0.00000  -0.00917  -0.00918   2.63002
   R19        2.04137   0.00351   0.00000   0.00964   0.00964   2.05101
   R20        2.04179   0.00431   0.00000   0.01187   0.01187   2.05366
    A1        1.90577   0.00624   0.00000   0.02072   0.02074   1.92651
    A2        1.87867  -0.00450   0.00000  -0.03308  -0.03306   1.84561
    A3        1.87849  -0.00453   0.00000  -0.03344  -0.03342   1.84507
    A4        1.95344   0.00076   0.00000   0.01071   0.01049   1.96393
    A5        1.95349   0.00079   0.00000   0.01082   0.01061   1.96409
    A6        1.89103   0.00077   0.00000   0.02057   0.02019   1.91122
    A7        1.96990  -0.00376   0.00000  -0.02003  -0.02007   1.94983
    A8        1.90573   0.00098   0.00000   0.00205   0.00202   1.90775
    A9        1.90653   0.00106   0.00000   0.00302   0.00300   1.90953
   A10        1.91336   0.00111   0.00000   0.00362   0.00357   1.91693
   A11        1.91256   0.00106   0.00000   0.00354   0.00350   1.91606
   A12        1.85201  -0.00022   0.00000   0.00964   0.00960   1.86161
   A13        1.96102  -0.00137   0.00000  -0.01024  -0.01029   1.95073
   A14        1.92934  -0.00132   0.00000  -0.01390  -0.01386   1.91548
   A15        1.92722  -0.00081   0.00000  -0.01157  -0.01158   1.91564
   A16        1.89786   0.00157   0.00000   0.01218   0.01205   1.90990
   A17        1.90522   0.00093   0.00000   0.00545   0.00530   1.91051
   A18        1.83893   0.00122   0.00000   0.02053   0.02039   1.85932
   A19        2.11178   0.00139   0.00000   0.00424   0.00408   2.11586
   A20        2.10902   0.00323   0.00000   0.01151   0.01135   2.12037
   A21        2.06238  -0.00463   0.00000  -0.01584  -0.01585   2.04653
   A22        2.14688   0.00733   0.00000   0.02896   0.02903   2.17591
   A23        2.11334  -0.00432   0.00000  -0.01850  -0.01854   2.09480
   A24        2.02295  -0.00300   0.00000  -0.01045  -0.01049   2.01246
   A25        2.05738  -0.00259   0.00000  -0.01915  -0.01914   2.03824
   A26        2.14381   0.00366   0.00000   0.01318   0.01313   2.15694
   A27        2.02861  -0.00255   0.00000  -0.01100  -0.01098   2.01763
   A28        2.11076  -0.00111   0.00000  -0.00218  -0.00216   2.10861
   A29        2.06924  -0.00080   0.00000  -0.00022  -0.00026   2.06897
   A30        2.10787  -0.00025   0.00000  -0.00387  -0.00386   2.10401
   A31        2.10608   0.00105   0.00000   0.00410   0.00411   2.11019
   A32        2.08668  -0.00297   0.00000  -0.00695  -0.00691   2.07977
   A33        2.10456  -0.00003   0.00000  -0.00577  -0.00579   2.09877
   A34        2.09194   0.00300   0.00000   0.01272   0.01270   2.10464
    D1       -3.13780   0.00002   0.00000   0.00211   0.00210  -3.13569
    D2       -1.00511  -0.00041   0.00000  -0.00535  -0.00534  -1.01045
    D3        1.01315   0.00045   0.00000   0.00898   0.00898   1.02213
    D4        1.06710   0.00107   0.00000   0.02306   0.02316   1.09026
    D5       -3.08339   0.00064   0.00000   0.01561   0.01572  -3.06768
    D6       -1.06513   0.00150   0.00000   0.02994   0.03003  -1.03510
    D7       -1.05971  -0.00105   0.00000  -0.01923  -0.01934  -1.07904
    D8        1.07298  -0.00148   0.00000  -0.02669  -0.02678   1.04620
    D9        3.09124  -0.00062   0.00000  -0.01236  -0.01246   3.07878
   D10        3.14107   0.00011   0.00000  -0.00055  -0.00055   3.14051
   D11        1.01744  -0.00001   0.00000   0.00085   0.00081   1.01825
   D12       -1.01055  -0.00023   0.00000  -0.00901  -0.00898  -1.01952
   D13        1.01267   0.00064   0.00000   0.00790   0.00790   1.02057
   D14       -1.11096   0.00051   0.00000   0.00930   0.00927  -1.10169
   D15       -3.13895   0.00030   0.00000  -0.00056  -0.00052  -3.13947
   D16       -1.01327  -0.00034   0.00000  -0.00780  -0.00781  -1.02108
   D17       -3.13690  -0.00046   0.00000  -0.00641  -0.00644   3.13984
   D18        1.11830  -0.00068   0.00000  -0.01626  -0.01623   1.10207
   D19        1.66089  -0.00014   0.00000  -0.00861  -0.00869   1.65220
   D20       -1.47665   0.00037   0.00000   0.01912   0.01924  -1.45741
   D21       -2.48081  -0.00162   0.00000  -0.02450  -0.02470  -2.50551
   D22        0.66484  -0.00111   0.00000   0.00323   0.00323   0.66807
   D23       -0.48311   0.00116   0.00000   0.00923   0.00921  -0.47390
   D24        2.66253   0.00167   0.00000   0.03696   0.03714   2.69968
   D25       -3.13940   0.00046   0.00000   0.02272   0.02256  -3.11683
   D26       -0.00125   0.00065   0.00000   0.03057   0.03042   0.02918
   D27       -0.00175  -0.00002   0.00000  -0.00423  -0.00417  -0.00592
   D28        3.13640   0.00017   0.00000   0.00362   0.00369   3.14009
   D29        3.13904  -0.00049   0.00000  -0.02378  -0.02379   3.11525
   D30       -0.00009  -0.00060   0.00000  -0.02847  -0.02843  -0.02853
   D31        0.00139  -0.00001   0.00000   0.00314   0.00303   0.00442
   D32       -3.13775  -0.00012   0.00000  -0.00155  -0.00161  -3.13935
   D33        0.00091   0.00002   0.00000   0.00237   0.00235   0.00327
   D34       -3.13740  -0.00016   0.00000  -0.00508  -0.00516   3.14063
   D35        0.00028  -0.00000   0.00000   0.00056   0.00056   0.00084
   D36        3.14079   0.00014   0.00000   0.00513   0.00513  -3.13727
   D37       -0.00057  -0.00002   0.00000  -0.00145  -0.00142  -0.00199
   D38        3.13992   0.00014   0.00000   0.00427   0.00427  -3.13899
   D39       -3.14103  -0.00016   0.00000  -0.00623  -0.00621   3.13594
   D40       -0.00054  -0.00001   0.00000  -0.00050  -0.00052  -0.00106
   D41       -0.00030   0.00002   0.00000  -0.00051  -0.00052  -0.00082
   D42        3.13885   0.00012   0.00000   0.00412   0.00411  -3.14022
   D43       -3.14080  -0.00013   0.00000  -0.00622  -0.00623   3.13616
   D44       -0.00164  -0.00003   0.00000  -0.00159  -0.00160  -0.00324
         Item               Value     Threshold  Converged?
 Maximum Force            0.018155     0.000450     NO 
 RMS     Force            0.003516     0.000300     NO 
 Maximum Displacement     0.071099     0.001800     NO 
 RMS     Displacement     0.024169     0.001200     NO 
 Predicted change in Energy=-1.942451D-03
 GradGradGradGradGradGradGradGradGradGradGradGradGradGradGradGradGradGrad

                          Input orientation:                          
 ---------------------------------------------------------------------
 Center     Atomic      Atomic             Coordinates (Angstroms)
 Number     Number       Type             X           Y           Z
 ---------------------------------------------------------------------
      1         35           0        5.859182   -2.098200    0.664451
      2          6           0        4.263849   -1.020882    0.256548
      3          6           0        3.018112   -1.681506    0.827876
      4          6           0        1.750866   -0.868459    0.519305
      5          6           0        0.511891   -1.524765    1.085315
      6          6           0        0.005842   -1.160207    2.336069
      7          7           0       -1.067972   -1.713664    2.914253
      8          6           0       -1.685857   -2.686072    2.232942
      9          6           0       -1.268710   -3.135340    0.980529
     10          6           0       -0.150887   -2.543321    0.400067
     11          1           0        4.451695   -0.037991    0.690124
     12          1           0        4.232503   -0.939375   -0.830602
     13          1           0        2.921707   -2.690819    0.414574
     14          1           0        3.130811   -1.795209    1.910790
     15          1           0        1.639426   -0.753325   -0.565943
     16          1           0        1.849608    0.142831    0.931883
     17          1           0        0.488675   -0.372175    2.909984
     18          1           0       -2.557149   -3.118732    2.717885
     19          1           0       -1.808680   -3.926576    0.470273
     20          1           0        0.202390   -2.866811   -0.575421
 ---------------------------------------------------------------------
                    Distance matrix (angstroms):
                    1          2          3          4          5
     1  Br   0.000000
     2  C    1.967762   0.000000
     3  C    2.876112   1.521414   0.000000
     4  C    4.290873   2.531276   1.536936   0.000000
     5  C    5.394393   3.875299   2.524279   1.512006   0.000000
     6  C    6.159199   4.740722   3.408836   2.535913   1.397632
     7  N    7.293486   5.997637   4.588036   3.794205   2.424183
     8  C    7.728737   6.486755   5.011056   4.248686   2.737842
     9  C    7.209883   5.966933   4.529214   3.803855   2.403221
    10  C    6.032326   4.672078   3.311842   2.536936   1.395097
    11  H    2.495223   1.090573   2.185241   2.830783   4.229507
    12  H    2.494823   1.090651   2.185419   2.825916   4.225680
    13  H    3.007058   2.148257   1.094909   2.168601   2.759853
    14  H    3.014826   2.149389   1.094683   2.167797   2.759219
    15  H    4.596618   2.763272   2.169107   1.097013   2.143154
    16  H    4.601133   2.763849   2.168968   1.096667   2.143340
    17  H    6.071567   4.659773   3.528111   2.748594   2.158338
    18  H    8.723113   7.548852   6.059808   5.334460   3.824267
    19  H    7.885225   6.735306   5.335367   4.693064   3.395883
    20  H    5.841861   4.538179   3.361916   2.754925   2.157526
                    6          7          8          9         10
     6  C    0.000000
     7  N    1.339286   0.000000
     8  C    2.280514   1.338486   0.000000
     9  C    2.713507   2.408474   1.394414   0.000000
    10  C    2.384465   2.801876   2.394983   1.391744   0.000000
    11  H    4.871767   6.182342   6.860187   6.511600   5.248292
    12  H    5.285947   6.535939   6.889357   6.194014   4.827142
    13  H    3.812766   4.808405   4.953396   4.251764   3.076166
    14  H    3.217067   4.317796   4.908942   4.692241   3.689376
    15  H    3.354970   4.512651   4.756761   4.064828   2.709702
    16  H    2.658782   3.986056   4.711153   4.524675   3.391198
    17  H    1.087889   2.054936   3.246706   3.800826   3.379734
    18  H    3.248157   2.056799   1.086974   2.163043   3.390202
    19  H    3.798221   3.379151   2.158920   1.085349   2.160232
    20  H    3.380518   3.888623   3.388960   2.158061   1.086751
                   11         12         13         14         15
    11  H    0.000000
    12  H    1.781332   0.000000
    13  H    3.074782   2.517182   0.000000
    14  H    2.514473   3.075940   1.756275   0.000000
    15  H    3.162002   2.613179   2.521812   3.073101   0.000000
    16  H    2.619541   3.155267   3.073528   2.521059   1.758054
    17  H    4.554666   5.322589   4.186027   3.162957   3.681246
    18  H    7.920017   7.964969   5.958709   5.895422   5.830087
    19  H    7.373040   6.863785   4.889454   5.569235   4.799240
    20  H    5.259317   4.474588   2.899266   3.988135   2.555775
                   16         17         18         19         20
    16  H    0.000000
    17  H    2.455658   0.000000
    18  H    5.766030   4.105791   0.000000
    19  H    5.491469   4.885059   2.502913   0.000000
    20  H    3.747430   4.295721   4.303996   2.502196   0.000000
 Stoichiometry    C8H10BrN
 Framework group  C1[X(C8H10BrN)]
 Deg. of freedom    54
 Full point group                 C1      NOp   1
 Largest Abelian subgroup         C1      NOp   1
 Largest concise Abelian subgroup C1      NOp   1
                         Standard orientation:                         
 ---------------------------------------------------------------------
 Center     Atomic      Atomic             Coordinates (Angstroms)
 Number     Number       Type             X           Y           Z
 ---------------------------------------------------------------------
      1         35           0        3.352761    0.135209   -0.385970
      2          6           0        1.900033   -0.330257    0.857014
      3          6           0        0.546925   -0.076039    0.209579
      4          6           0       -0.611552   -0.422080    1.158452
      5          6           0       -1.956900   -0.168434    0.516683
      6          6           0       -2.656277   -1.191866   -0.128943
      7          7           0       -3.836834   -1.038481   -0.742494
      8          6           0       -4.368138    0.189971   -0.729612
      9          6           0       -3.759569    1.287208   -0.121251
     10          6           0       -2.533665    1.101844    0.511008
     11          1           0        2.051671   -1.380298    1.109537
     12          1           0        2.061369    0.284417    1.743393
     13          1           0        0.480605    0.975071   -0.089744
     14          1           0        0.464989   -0.669141   -0.706852
     15          1           0       -0.527910    0.171263    2.077357
     16          1           0       -0.542722   -1.474458    1.459186
     17          1           0       -2.247101   -2.199582   -0.153124
     18          1           0       -5.328082    0.291804   -1.229263
     19          1           0       -4.236147    2.262175   -0.138444
     20          1           0       -2.030616    1.933707    0.996778
 ---------------------------------------------------------------------
 Rotational constants (GHZ):           3.0996114           0.2687978           0.2659112
 Standard basis: 6-31G(d,p) (6D, 7F)
 There are   215 symmetry adapted cartesian basis functions of A   symmetry.
 There are   215 symmetry adapted basis functions of A   symmetry.
   215 basis functions,   405 primitive gaussians,   215 cartesian basis functions
    50 alpha electrons       50 beta electrons
       nuclear repulsion energy       675.8243230127 Hartrees.
 NAtoms=   20 NActive=   20 NUniq=   20 SFac= 1.00D+00 NAtFMM=   60 NAOKFM=F Big=F
 Integral buffers will be    131072 words long.
 Raffenetti 2 integral format.
 Two-electron integral symmetry is turned on.
 Nuclear repulsion after empirical dispersion term =      675.7875966007 Hartrees.
 One-electron integrals computed using PRISM.
 NBasis=   215 RedAO= T EigKep=  7.47D-04  NBF=   215
 NBsUse=   215 1.00D-06 EigRej= -1.00D+00 NBFU=   215
 Initial guess from the checkpoint file:  "pyrd10_conf-7.chk"
 B after Tr=    -0.000000   -0.000000    0.000000
         Rot=    0.999892    0.014712    0.000029    0.000059 Ang=   1.69 deg.
 ExpMin= 1.43D-01 ExpMax= 5.74D+05 ExpMxC= 5.74D+03 IAcc=3 IRadAn=         5 AccDes= 0.00D+00
 Harris functional with IExCor=  402 and IRadAn=       5 diagonalized for initial guess.
 HarFok:  IExCor=  402 AccDes= 0.00D+00 IRadAn=         5 IDoV= 1 UseB2=F ITyADJ=14
 ICtDFT=  3500011 ScaDFX=  1.000000  1.000000  1.000000  1.000000
 FoFCou: FMM=F IPFlag=           0 FMFlag=      100000 FMFlg1=           0
         NFxFlg=           0 DoJE=T BraDBF=F KetDBF=T FulRan=T
         wScrn=  0.000000 ICntrl=       500 IOpCl=  0 I1Cent=   200000004 NGrid=           0
         NMat0=    1 NMatS0=      1 NMatT0=    0 NMatD0=    1 NMtDS0=    0 NMtDT0=    0
 Petite list used in FoFCou.
 Requested convergence on RMS density matrix=1.00D-08 within 128 cycles.
 Requested convergence on MAX density matrix=1.00D-06.
 Requested convergence on             energy=1.00D-06.
 No special actions if energy rises.
 Integral accuracy reduced to 1.0D-05 until final iterations.
 Initial convergence to 1.0D-05 achieved.  Increase integral accuracy.
 SCF Done:  E(RB3LYP) =  -2937.38569193     A.U. after   11 cycles
            NFock= 11  Conv=0.87D-08     -V/T= 2.0066
 Calling FoFJK, ICntrl=      2127 FMM=F ISym2X=0 I1Cent= 0 IOpClX= 0 NMat=1 NMatS=1 NMatT=0.
 ***** Axes restored to original set *****
 -------------------------------------------------------------------
 Center     Atomic                   Forces (Hartrees/Bohr)
 Number     Number              X              Y              Z
 -------------------------------------------------------------------
      1       35           0.002918509   -0.001035024    0.000180863
      2        6          -0.002863115    0.000216348    0.000274966
      3        6           0.002128917    0.000339449   -0.000521240
      4        6          -0.003414828    0.000878028    0.000668093
      5        6           0.003511198    0.002351563   -0.001662977
      6        6          -0.002358652   -0.000070245    0.003044987
      7        7           0.002085786   -0.000219255   -0.002813916
      8        6          -0.001104030    0.000351053    0.001873312
      9        6          -0.000219150   -0.000819984   -0.000974814
     10        6          -0.001512136   -0.001418553    0.000308265
     11        1          -0.000119378   -0.000195435   -0.000046684
     12        1          -0.000099215   -0.000025688    0.000215870
     13        1          -0.000211442   -0.000050068    0.000104976
     14        1          -0.000231640   -0.000044962    0.000013008
     15        1           0.000509814   -0.000269501    0.000030654
     16        1           0.000443804   -0.000306548    0.000201421
     17        1           0.001410805    0.001193061   -0.000504057
     18        1          -0.000697792   -0.001143818   -0.000602257
     19        1          -0.000243777    0.000070033    0.000457657
     20        1           0.000066323    0.000199545   -0.000248127
 -------------------------------------------------------------------
 Cartesian Forces:  Max     0.003511198 RMS     0.001300845

 GradGradGradGradGradGradGradGradGradGradGradGradGradGradGradGradGradGrad
 Berny optimization.
 Using GEDIIS/GDIIS optimizer.
 FormGI is forming the generalized inverse of G from B-inverse, IUseBI=4.
 Internal  Forces:  Max     0.002970307 RMS     0.000748658
 Search for a local minimum.
 Step number   2 out of a maximum of  108
 All quantities printed in internal units (Hartrees-Bohrs-Radians)
 Mixed Optimization -- En-DIIS/RFO-DIIS
 Update second derivatives using D2CorX and points    1    2
 DE= -1.90D-03 DEPred=-1.94D-03 R= 9.79D-01
 TightC=F SS=  1.41D+00  RLast= 1.51D-01 DXNew= 5.0454D-01 4.5150D-01
 Trust test= 9.79D-01 RLast= 1.51D-01 DXMaxT set to 4.52D-01
 ITU=  1  0
 Use linear search instead of GDIIS.
     Eigenvalues ---    0.00246   0.00301   0.00501   0.01427   0.02091
     Eigenvalues ---    0.02115   0.02136   0.02139   0.02146   0.02178
     Eigenvalues ---    0.02227   0.03544   0.04071   0.04787   0.05321
     Eigenvalues ---    0.05503   0.05552   0.08139   0.09049   0.12069
     Eigenvalues ---    0.12732   0.15125   0.15597   0.16000   0.16000
     Eigenvalues ---    0.16000   0.16000   0.16372   0.20635   0.21922
     Eigenvalues ---    0.21948   0.22014   0.23307   0.24616   0.25093
     Eigenvalues ---    0.28373   0.29107   0.30138   0.34617   0.34625
     Eigenvalues ---    0.34637   0.34652   0.34703   0.34744   0.35482
     Eigenvalues ---    0.35908   0.35948   0.36050   0.41994   0.43455
     Eigenvalues ---    0.45881   0.46155   0.52190   0.54129
 RFO step:  Lambda=-2.67057329D-04 EMin= 2.45805115D-03
 Quartic linear search produced a step of -0.00934.
 Iteration  1 RMS(Cart)=  0.00923608 RMS(Int)=  0.00004388
 Iteration  2 RMS(Cart)=  0.00006698 RMS(Int)=  0.00000604
 Iteration  3 RMS(Cart)=  0.00000000 RMS(Int)=  0.00000604
 Variable       Old X    -DE/DX   Delta X   Delta X   Delta X     New X
                                 (Linear)    (Quad)   (Total)
    R1        3.71853   0.00297   0.00038   0.01702   0.01740   3.73594
    R2        2.87506  -0.00082   0.00024  -0.00485  -0.00461   2.87045
    R3        2.06088  -0.00021   0.00001  -0.00067  -0.00066   2.06022
    R4        2.06103  -0.00021   0.00001  -0.00066  -0.00065   2.06038
    R5        2.90439   0.00172   0.00004   0.00560   0.00564   2.91003
    R6        2.06908   0.00003  -0.00006   0.00058   0.00052   2.06960
    R7        2.06865  -0.00001  -0.00005   0.00044   0.00039   2.06904
    R8        2.85728  -0.00140   0.00014  -0.00577  -0.00563   2.85165
    R9        2.07305  -0.00011  -0.00009   0.00048   0.00038   2.07344
   R10        2.07240  -0.00017  -0.00009   0.00027   0.00018   2.07258
   R11        2.64114   0.00092   0.00003   0.00176   0.00179   2.64293
   R12        2.63635   0.00254   0.00008   0.00494   0.00501   2.64137
   R13        2.53088  -0.00068   0.00032  -0.00402  -0.00369   2.52719
   R14        2.05581   0.00122  -0.00013   0.00449   0.00436   2.06017
   R15        2.52937   0.00080   0.00033  -0.00135  -0.00102   2.52835
   R16        2.63506   0.00023   0.00003   0.00018   0.00021   2.63527
   R17        2.05408   0.00075  -0.00011   0.00297   0.00286   2.05694
   R18        2.63002   0.00068   0.00009   0.00078   0.00087   2.63088
   R19        2.05101  -0.00014  -0.00009   0.00036   0.00027   2.05129
   R20        2.05366   0.00019  -0.00011   0.00145   0.00134   2.05500
    A1        1.92651   0.00246  -0.00019   0.01362   0.01342   1.93993
    A2        1.84561  -0.00082   0.00031  -0.00432  -0.00401   1.84160
    A3        1.84507  -0.00082   0.00031  -0.00440  -0.00409   1.84097
    A4        1.96393  -0.00050  -0.00010  -0.00230  -0.00240   1.96152
    A5        1.96409  -0.00052  -0.00010  -0.00243  -0.00253   1.96156
    A6        1.91122   0.00018  -0.00019  -0.00032  -0.00051   1.91071
    A7        1.94983  -0.00047   0.00019  -0.00373  -0.00354   1.94630
    A8        1.90775   0.00028  -0.00002   0.00235   0.00233   1.91008
    A9        1.90953   0.00029  -0.00003   0.00256   0.00252   1.91205
   A10        1.91693   0.00002  -0.00003  -0.00064  -0.00067   1.91626
   A11        1.91606   0.00001  -0.00003  -0.00068  -0.00071   1.91535
   A12        1.86161  -0.00011  -0.00009   0.00036   0.00027   1.86188
   A13        1.95073   0.00027   0.00010   0.00003   0.00013   1.95086
   A14        1.91548  -0.00049   0.00013  -0.00555  -0.00543   1.91005
   A15        1.91564  -0.00041   0.00011  -0.00500  -0.00489   1.91075
   A16        1.90990   0.00024  -0.00011   0.00404   0.00392   1.91383
   A17        1.91051   0.00013  -0.00005   0.00243   0.00237   1.91288
   A18        1.85932   0.00026  -0.00019   0.00429   0.00407   1.86340
   A19        2.11586  -0.00046  -0.00004  -0.00172  -0.00177   2.11410
   A20        2.12037   0.00127  -0.00011   0.00567   0.00555   2.12592
   A21        2.04653  -0.00081   0.00015  -0.00419  -0.00405   2.04248
   A22        2.17591  -0.00084  -0.00027  -0.00139  -0.00166   2.17425
   A23        2.09480  -0.00108   0.00017  -0.00889  -0.00872   2.08609
   A24        2.01246   0.00192   0.00010   0.01028   0.01038   2.02284
   A25        2.03824   0.00216   0.00018   0.00686   0.00704   2.04527
   A26        2.15694  -0.00100  -0.00012  -0.00357  -0.00370   2.15324
   A27        2.01763   0.00180   0.00010   0.00945   0.00955   2.02718
   A28        2.10861  -0.00079   0.00002  -0.00587  -0.00585   2.10276
   A29        2.06897  -0.00030   0.00000  -0.00116  -0.00116   2.06781
   A30        2.10401  -0.00037   0.00004  -0.00292  -0.00288   2.10113
   A31        2.11019   0.00066  -0.00004   0.00408   0.00404   2.11424
   A32        2.07977   0.00080   0.00006   0.00348   0.00355   2.08331
   A33        2.09877  -0.00058   0.00005  -0.00357  -0.00351   2.09526
   A34        2.10464  -0.00022  -0.00012   0.00008  -0.00004   2.10461
    D1       -3.13569   0.00001  -0.00002   0.00271   0.00269  -3.13300
    D2       -1.01045  -0.00008   0.00005   0.00106   0.00111  -1.00934
    D3        1.02213   0.00010  -0.00008   0.00428   0.00420   1.02632
    D4        1.09026  -0.00027  -0.00022   0.00055   0.00034   1.09060
    D5       -3.06768  -0.00036  -0.00015  -0.00110  -0.00125  -3.06893
    D6       -1.03510  -0.00018  -0.00028   0.00212   0.00184  -1.03326
    D7       -1.07904   0.00028   0.00018   0.00469   0.00487  -1.07418
    D8        1.04620   0.00019   0.00025   0.00303   0.00328   1.04948
    D9        3.07878   0.00038   0.00012   0.00625   0.00637   3.08515
   D10        3.14051   0.00001   0.00001  -0.00281  -0.00281   3.13771
   D11        1.01825  -0.00013  -0.00001  -0.00412  -0.00412   1.01413
   D12       -1.01952   0.00008   0.00008  -0.00316  -0.00308  -1.02261
   D13        1.02057  -0.00004  -0.00007  -0.00286  -0.00294   1.01764
   D14       -1.10169  -0.00018  -0.00009  -0.00417  -0.00425  -1.10594
   D15       -3.13947   0.00003   0.00000  -0.00321  -0.00321   3.14051
   D16       -1.02108   0.00008   0.00007  -0.00253  -0.00245  -1.02353
   D17        3.13984  -0.00007   0.00006  -0.00384  -0.00377   3.13607
   D18        1.10207   0.00015   0.00015  -0.00288  -0.00273   1.09934
   D19        1.65220  -0.00001   0.00008   0.00173   0.00180   1.65400
   D20       -1.45741   0.00010  -0.00018   0.01096   0.01079  -1.44662
   D21       -2.50551  -0.00029   0.00023  -0.00249  -0.00227  -2.50778
   D22        0.66807  -0.00018  -0.00003   0.00674   0.00671   0.67478
   D23       -0.47390   0.00023  -0.00009   0.00635   0.00627  -0.46764
   D24        2.69968   0.00035  -0.00035   0.01558   0.01525   2.71493
   D25       -3.11683   0.00021  -0.00021   0.01332   0.01309  -3.10375
   D26        0.02918   0.00019  -0.00028   0.01321   0.01291   0.04208
   D27       -0.00592   0.00014   0.00004   0.00464   0.00468  -0.00124
   D28        3.14009   0.00012  -0.00003   0.00453   0.00450  -3.13860
   D29        3.11525  -0.00020   0.00022  -0.01198  -0.01178   3.10347
   D30       -0.02853  -0.00020   0.00027  -0.01288  -0.01263  -0.04115
   D31        0.00442  -0.00010  -0.00003  -0.00314  -0.00317   0.00125
   D32       -3.13935  -0.00010   0.00002  -0.00404  -0.00402   3.13981
   D33        0.00327  -0.00006  -0.00002  -0.00225  -0.00228   0.00099
   D34        3.14063  -0.00005   0.00005  -0.00218  -0.00215   3.13848
   D35        0.00084  -0.00004  -0.00001  -0.00161  -0.00162  -0.00078
   D36       -3.13727  -0.00005  -0.00005  -0.00215  -0.00220  -3.13948
   D37       -0.00199   0.00007   0.00001   0.00284   0.00286   0.00087
   D38       -3.13899   0.00003  -0.00004   0.00141   0.00137  -3.13762
   D39        3.13594   0.00009   0.00006   0.00344   0.00350   3.13944
   D40       -0.00106   0.00005   0.00000   0.00201   0.00201   0.00096
   D41       -0.00082   0.00000   0.00000  -0.00027  -0.00027  -0.00109
   D42       -3.14022   0.00001  -0.00004   0.00063   0.00059  -3.13964
   D43        3.13616   0.00004   0.00006   0.00114   0.00120   3.13737
   D44       -0.00324   0.00005   0.00001   0.00205   0.00206  -0.00118
         Item               Value     Threshold  Converged?
 Maximum Force            0.002970     0.000450     NO 
 RMS     Force            0.000749     0.000300     NO 
 Maximum Displacement     0.032652     0.001800     NO 
 RMS     Displacement     0.009253     0.001200     NO 
 Predicted change in Energy=-1.339354D-04
 GradGradGradGradGradGradGradGradGradGradGradGradGradGradGradGradGradGrad

                          Input orientation:                          
 ---------------------------------------------------------------------
 Center     Atomic      Atomic             Coordinates (Angstroms)
 Number     Number       Type             X           Y           Z
 ---------------------------------------------------------------------
      1         35           0        5.876460   -2.096862    0.651103
      2          6           0        4.260702   -1.026473    0.261217
      3          6           0        3.016175   -1.685440    0.830601
      4          6           0        1.750608   -0.864524    0.521084
      5          6           0        0.509730   -1.516803    1.079578
      6          6           0        0.001676   -1.151919    2.330482
      7          7           0       -1.066119   -1.712179    2.908735
      8          6           0       -1.683362   -2.689810    2.235425
      9          6           0       -1.268382   -3.138281    0.981883
     10          6           0       -0.154326   -2.540958    0.398519
     11          1           0        4.448175   -0.045552    0.698521
     12          1           0        4.224480   -0.939325   -0.824996
     13          1           0        2.915060   -2.693680    0.415080
     14          1           0        3.125970   -1.801529    1.913768
     15          1           0        1.648519   -0.746453   -0.564973
     16          1           0        1.856881    0.143382    0.940274
     17          1           0        0.486536   -0.355800    2.895842
     18          1           0       -2.551411   -3.132409    2.720610
     19          1           0       -1.808009   -3.933289    0.476847
     20          1           0        0.197935   -2.862697   -0.578701
 ---------------------------------------------------------------------
                    Distance matrix (angstroms):
                    1          2          3          4          5
     1  Br   0.000000
     2  C    1.976972   0.000000
     3  C    2.895293   1.518975   0.000000
     4  C    4.307925   2.528701   1.539923   0.000000
     5  C    5.414966   3.870392   2.524420   1.509027   0.000000
     6  C    6.182744   4.736760   3.409030   2.532840   1.398578
     7  N    7.310560   5.987869   4.580882   3.788581   2.422249
     8  C    7.746779   6.480439   5.006789   4.250034   2.742550
     9  C    7.227914   5.962371   4.526706   3.807442   2.408406
    10  C    6.052388   4.669582   3.312202   2.540518   1.397750
    11  H    2.500024   1.090223   2.181124   2.824724   4.221508
    12  H    2.499559   1.090305   2.181213   2.817369   4.214291
    13  H    3.030147   2.148024   1.095185   2.170944   2.759024
    14  H    3.040846   2.149245   1.094889   2.170061   2.760734
    15  H    4.601949   2.753998   2.167903   1.097216   2.143554
    16  H    4.610784   2.758267   2.168082   1.096763   2.142530
    17  H    6.092737   4.651385   3.525938   2.737911   2.155756
    18  H    8.739807   7.542444   6.055069   5.337470   3.830633
    19  H    7.902778   6.732409   5.333921   4.699259   3.402147
    20  H    5.860424   4.536878   3.363710   2.759170   2.158364
                    6          7          8          9         10
     6  C    0.000000
     7  N    1.337331   0.000000
     8  C    2.283309   1.337945   0.000000
     9  C    2.716137   2.405709   1.394526   0.000000
    10  C    2.384586   2.796324   2.394646   1.392203   0.000000
    11  H    4.864020   6.170100   6.852001   6.505712   5.244051
    12  H    5.275823   6.521387   6.879896   6.186417   4.820390
    13  H    3.812296   4.799109   4.945620   4.245012   3.073228
    14  H    3.218206   4.309472   4.901242   4.686752   3.688235
    15  H    3.355615   4.513151   4.766581   4.076999   2.720077
    16  H    2.655611   3.982697   4.715688   4.531922   3.397666
    17  H    1.090195   2.061714   3.254567   3.805940   3.379681
    18  H    3.254657   2.063622   1.088488   2.160872   3.389385
    19  H    3.800914   3.376065   2.157400   1.085494   2.163189
    20  H    3.380625   3.883779   3.389465   2.159041   1.087457
                   11         12         13         14         15
    11  H    0.000000
    12  H    1.780442   0.000000
    13  H    3.073006   2.515975   0.000000
    14  H    2.511674   3.074239   1.756839   0.000000
    15  H    3.150516   2.596226   2.521175   3.072491   0.000000
    16  H    2.609395   3.145466   3.073190   2.518125   1.760963
    17  H    4.540822   5.306352   4.185403   3.165630   3.671519
    18  H    7.912757   7.955730   5.948971   5.886840   5.841853
    19  H    7.369089   6.859267   4.883424   5.563568   4.815485
    20  H    5.256629   4.469126   2.898092   3.988968   2.565711
                   16         17         18         19         20
    16  H    0.000000
    17  H    2.439524   0.000000
    18  H    5.773512   4.119391   0.000000
    19  H    5.501403   4.890286   2.495702   0.000000
    20  H    3.754451   4.294214   4.303150   2.506822   0.000000
 Stoichiometry    C8H10BrN
 Framework group  C1[X(C8H10BrN)]
 Deg. of freedom    54
 Full point group                 C1      NOp   1
 Largest Abelian subgroup         C1      NOp   1
 Largest concise Abelian subgroup C1      NOp   1
                         Standard orientation:                         
 ---------------------------------------------------------------------
 Center     Atomic      Atomic             Coordinates (Angstroms)
 Number     Number       Type             X           Y           Z
 ---------------------------------------------------------------------
      1         35           0        3.365954    0.143757   -0.379560
      2          6           0        1.889732   -0.348756    0.839710
      3          6           0        0.538216   -0.080892    0.200227
      4          6           0       -0.618076   -0.450310    1.147793
      5          6           0       -1.963820   -0.181406    0.520237
      6          6           0       -2.666308   -1.191529   -0.144732
      7          7           0       -3.841328   -1.020171   -0.759891
      8          6           0       -4.372535    0.207488   -0.732135
      9          6           0       -3.764688    1.292225   -0.100812
     10          6           0       -2.541698    1.091225    0.533320
     11          1           0        2.039438   -1.404367    1.067433
     12          1           0        2.047200    0.243541    1.741461
     13          1           0        0.468512    0.976805   -0.075183
     14          1           0        0.452432   -0.653826   -0.728842
     15          1           0       -0.524124    0.122242    2.079050
     16          1           0       -0.543950   -1.510344    1.419308
     17          1           0       -2.254198   -2.200293   -0.177658
     18          1           0       -5.329839    0.327454   -1.236103
     19          1           0       -4.241149    2.267553   -0.105042
     20          1           0       -2.038371    1.912670    1.037755
 ---------------------------------------------------------------------
 Rotational constants (GHZ):           3.1035742           0.2675342           0.2645908
 Standard basis: 6-31G(d,p) (6D, 7F)
 There are   215 symmetry adapted cartesian basis functions of A   symmetry.
 There are   215 symmetry adapted basis functions of A   symmetry.
   215 basis functions,   405 primitive gaussians,   215 cartesian basis functions
    50 alpha electrons       50 beta electrons
       nuclear repulsion energy       674.7583056184 Hartrees.
 NAtoms=   20 NActive=   20 NUniq=   20 SFac= 1.00D+00 NAtFMM=   60 NAOKFM=F Big=F
 Integral buffers will be    131072 words long.
 Raffenetti 2 integral format.
 Two-electron integral symmetry is turned on.
 Nuclear repulsion after empirical dispersion term =      674.7216054312 Hartrees.
 One-electron integrals computed using PRISM.
 NBasis=   215 RedAO= T EigKep=  7.46D-04  NBF=   215
 NBsUse=   215 1.00D-06 EigRej= -1.00D+00 NBFU=   215
 Initial guess from the checkpoint file:  "pyrd10_conf-7.chk"
 B after Tr=    -0.000000    0.000000    0.000000
         Rot=    0.999949   -0.010135    0.000324    0.000128 Ang=  -1.16 deg.
 ExpMin= 1.43D-01 ExpMax= 5.74D+05 ExpMxC= 5.74D+03 IAcc=3 IRadAn=         5 AccDes= 0.00D+00
 Harris functional with IExCor=  402 and IRadAn=       5 diagonalized for initial guess.
 HarFok:  IExCor=  402 AccDes= 0.00D+00 IRadAn=         5 IDoV= 1 UseB2=F ITyADJ=14
 ICtDFT=  3500011 ScaDFX=  1.000000  1.000000  1.000000  1.000000
 FoFCou: FMM=F IPFlag=           0 FMFlag=      100000 FMFlg1=           0
         NFxFlg=           0 DoJE=T BraDBF=F KetDBF=T FulRan=T
         wScrn=  0.000000 ICntrl=       500 IOpCl=  0 I1Cent=   200000004 NGrid=           0
         NMat0=    1 NMatS0=      1 NMatT0=    0 NMatD0=    1 NMtDS0=    0 NMtDT0=    0
 Petite list used in FoFCou.
 Requested convergence on RMS density matrix=1.00D-08 within 128 cycles.
 Requested convergence on MAX density matrix=1.00D-06.
 Requested convergence on             energy=1.00D-06.
 No special actions if energy rises.
 Integral accuracy reduced to 1.0D-05 until final iterations.
 Initial convergence to 1.0D-05 achieved.  Increase integral accuracy.
 SCF Done:  E(RB3LYP) =  -2937.38583283     A.U. after   10 cycles
            NFock= 10  Conv=0.83D-08     -V/T= 2.0066
 Calling FoFJK, ICntrl=      2127 FMM=F ISym2X=0 I1Cent= 0 IOpClX= 0 NMat=1 NMatS=1 NMatT=0.
 ***** Axes restored to original set *****
 -------------------------------------------------------------------
 Center     Atomic                   Forces (Hartrees/Bohr)
 Number     Number              X              Y              Z
 -------------------------------------------------------------------
      1       35          -0.000095682    0.000062673   -0.000016825
      2        6          -0.000753192    0.000354388   -0.000084841
      3        6           0.001452914   -0.000853027    0.000230709
      4        6          -0.001177224    0.000547015   -0.000206495
      5        6           0.000780900   -0.000159424   -0.000784518
      6        6          -0.000345714    0.000539199    0.001328202
      7        7           0.000301008    0.000253636   -0.000192925
      8        6          -0.000712543   -0.000132406    0.000782236
      9        6           0.000177763   -0.000254322   -0.000752013
     10        6          -0.000072949   -0.000281289   -0.000202241
     11        1           0.000218659   -0.000035288    0.000017070
     12        1           0.000193334   -0.000063781   -0.000020960
     13        1          -0.000222192    0.000114134    0.000148147
     14        1          -0.000252367   -0.000049093   -0.000097956
     15        1           0.000194828    0.000057580    0.000223624
     16        1           0.000034380   -0.000267546   -0.000126715
     17        1          -0.000023214   -0.000120076   -0.000277455
     18        1           0.000267916   -0.000005709   -0.000226900
     19        1           0.000127880    0.000211209    0.000095066
     20        1          -0.000094504    0.000082127    0.000164789
 -------------------------------------------------------------------
 Cartesian Forces:  Max     0.001452914 RMS     0.000440340

 GradGradGradGradGradGradGradGradGradGradGradGradGradGradGradGradGradGrad
 Berny optimization.
 Using GEDIIS/GDIIS optimizer.
 FormGI is forming the generalized inverse of G from B-inverse, IUseBI=4.
 Internal  Forces:  Max     0.000933064 RMS     0.000193380
 Search for a local minimum.
 Step number   3 out of a maximum of  108
 All quantities printed in internal units (Hartrees-Bohrs-Radians)
 Mixed Optimization -- En-DIIS/RFO-DIIS
 Swapping is turned off.
 Update second derivatives using D2CorX and points    1    2    3
 DE= -1.41D-04 DEPred=-1.34D-04 R= 1.05D+00
 TightC=F SS=  1.41D+00  RLast= 5.18D-02 DXNew= 7.5933D-01 1.5534D-01
[...]
   XZ=     0.6233   YZ=     3.0651   ZZ=    32.0244
   Eigenvalues:    25.6969    29.3904    33.0868
     16  H    Isotropic =    29.3279   Anisotropy =     6.4509
   XX=    29.3118   YX=     0.9957   ZX=    -0.2726
   XY=     1.7095   YY=    32.6485   ZY=    -1.4882
   XZ=     1.1814   YZ=    -2.8972   ZZ=    26.0235
   Eigenvalues:    25.1913    29.1638    33.6285
     17  H    Isotropic =    22.4085   Anisotropy =    10.4375
   XX=    24.6421   YX=     4.0322   ZX=     3.4659
   XY=     3.9880   YY=    21.4522   ZY=     2.4707
   XZ=     3.4105   YZ=     1.8647   ZZ=    21.1312
   Eigenvalues:    18.6963    19.1623    29.3669
     18  H    Isotropic =    22.4077   Anisotropy =     7.1099
   XX=    20.9766   YX=     1.6079   ZX=     1.2433
   XY=     1.0438   YY=    25.6229   ZY=     2.4137
   XZ=     0.7686   YZ=     2.7705   ZZ=    20.6238
   Eigenvalues:    19.3879    20.6876    27.1477
     19  H    Isotropic =    23.9493   Anisotropy =     6.9538
   XX=    26.7794   YX=     0.3580   ZX=     2.7970
   XY=     1.2525   YY=    21.6573   ZY=     0.7528
   XZ=     3.0004   YZ=     0.3614   ZZ=    23.4112
   Eigenvalues:    21.4939    21.7688    28.5852
     20  H    Isotropic =    23.6291   Anisotropy =     9.9094
   XX=    26.3047   YX=    -5.3889   ZX=     0.5254
   XY=    -4.5043   YY=    23.6952   ZY=    -1.0001
   XZ=     0.7643   YZ=    -0.7891   ZZ=    20.8873
   Eigenvalues:    19.7844    20.8675    30.2353
 End of Minotr F.D. properties file   721 does not exist.
 End of Minotr F.D. properties file   722 does not exist.
 End of Minotr F.D. properties file   788 does not exist.

 **********************************************************************

            Population analysis using the SCF Density.

 **********************************************************************

 Orbital symmetries:
       Occupied  (A) (A) (A) (A) (A) (A) (A) (A) (A) (A) (A) (A)
                 (A) (A) (A) (A) (A) (A) (A) (A) (A) (A) (A) (A)
                 (A) (A) (A) (A) (A) (A) (A) (A) (A) (A) (A) (A)
                 (A) (A) (A) (A) (A) (A) (A) (A) (A) (A) (A) (A)
                 (A) (A)
       Virtual   (A) (A) (A) (A) (A) (A) (A) (A) (A) (A) (A) (A)
                 (A) (A) (A) (A) (A) (A) (A) (A) (A) (A) (A) (A)
                 (A) (A) (A) (A) (A) (A) (A) (A) (A) (A) (A) (A)
                 (A) (A) (A) (A) (A) (A) (A) (A) (A) (A) (A) (A)
                 (A) (A) (A) (A) (A) (A) (A) (A) (A) (A) (A) (A)
                 (A) (A) (A) (A) (A) (A) (A) (A) (A) (A) (A) (A)
                 (A) (A) (A) (A) (A) (A) (A) (A) (A) (A) (A) (A)
                 (A) (A) (A) (A) (A) (A) (A) (A) (A) (A) (A) (A)
                 (A) (A) (A) (A) (A) (A) (A) (A) (A) (A) (A) (A)
                 (A) (A) (A) (A) (A) (A) (A) (A) (A) (A) (A) (A)
                 (A) (A) (A) (A) (A) (A) (A) (A) (A) (A) (A) (A)
                 (A) (A) (A) (A) (A) (A) (A) (A) (A) (A) (A) (A)
                 (A) (A) (A) (A) (A) (A) (A) (A) (A) (A) (A) (A)
                 (A) (A) (A) (A) (A) (A) (A) (A) (A) (A) (A) (A)
                 (A) (A) (A) (A) (A) (A) (A) (A) (A) (A) (A) (A)
                 (A) (A) (A) (A) (A) (A) (A) (A) (A) (A) (A) (A)
                 (A) (A) (A) (A) (A) (A) (A) (A) (A) (A) (A) (A)
                 (A) (A) (A) (A) (A) (A) (A) (A) (A) (A) (A) (A)
                 (A) (A) (A) (A) (A) (A) (A) (A) (A) (A) (A) (A)
                 (A) (A) (A) (A) (A) (A) (A) (A) (A) (A) (A) (A)
                 (A) (A) (A) (A) (A) (A) (A) (A) (A) (A) (A) (A)
                 (A) (A) (A) (A) (A) (A) (A) (A) (A) (A) (A) (A)
                 (A) (A) (A) (A) (A) (A) (A) (A) (A) (A) (A) (A)
                 (A) (A) (A) (A) (A) (A) (A) (A) (A) (A) (A) (A)
                 (A) (A) (A) (A) (A) (A) (A) (A) (A) (A) (A) (A)
                 (A) (A) (A) (A) (A) (A) (A) (A) (A) (A) (A) (A)
                 (A) (A) (A) (A) (A) (A) (A) (A) (A) (A) (A) (A)
                 (A) (A) (A) (A) (A) (A) (A) (A) (A) (A) (A) (A)
                 (A)
 The electronic state is 1-A.
 Alpha  occ. eigenvalues -- -485.36277 -63.34783 -57.16725 -57.16487 -57.16484
 Alpha  occ. eigenvalues --  -14.75359 -10.60285 -10.58024 -10.57966 -10.56667
 Alpha  occ. eigenvalues --  -10.56567 -10.56167 -10.55909 -10.55719  -9.01423
 Alpha  occ. eigenvalues --   -6.83824  -6.82951  -6.82943  -2.87190  -2.86879
 Alpha  occ. eigenvalues --   -2.86872  -2.86057  -2.86057  -1.05621  -0.94408
 Alpha  occ. eigenvalues --   -0.91250  -0.88147  -0.84042  -0.77095  -0.72284
 Alpha  occ. eigenvalues --   -0.70600  -0.68483  -0.60394  -0.58009  -0.55206
 Alpha  occ. eigenvalues --   -0.54126  -0.51095  -0.49947  -0.48316  -0.47549
 Alpha  occ. eigenvalues --   -0.47051  -0.45586  -0.42735  -0.41848  -0.40964
 Alpha  occ. eigenvalues --   -0.35016  -0.33980  -0.33836  -0.32852  -0.31435
 Alpha virt. eigenvalues --   -0.00487   0.00867   0.02613   0.05689   0.08131
 Alpha virt. eigenvalues --    0.09011   0.09756   0.10069   0.12114   0.13115
 Alpha virt. eigenvalues --    0.13518   0.14198   0.15343   0.16328   0.16532
 Alpha virt. eigenvalues --    0.18238   0.18509   0.20584   0.21106   0.22967
 Alpha virt. eigenvalues --    0.23225   0.23790   0.25061   0.25527   0.26270
 Alpha virt. eigenvalues --    0.27564   0.28313   0.28883   0.29759   0.30010
 Alpha virt. eigenvalues --    0.31190   0.31949   0.32715   0.33536   0.33706
 Alpha virt. eigenvalues --    0.35075   0.36543   0.36857   0.36891   0.37367
 Alpha virt. eigenvalues --    0.38651   0.40183   0.40450   0.40626   0.41149
 Alpha virt. eigenvalues --    0.43481   0.44243   0.44843   0.45858   0.46355
 Alpha virt. eigenvalues --    0.47010   0.47720   0.48111   0.48987   0.49207
 Alpha virt. eigenvalues --    0.49774   0.50967   0.51639   0.52302   0.53089
 Alpha virt. eigenvalues --    0.55072   0.56802   0.57782   0.59144   0.60484
 Alpha virt. eigenvalues --    0.61508   0.63392   0.64126   0.65942   0.66527
 Alpha virt. eigenvalues --    0.68657   0.69578   0.70563   0.71932   0.72241
 Alpha virt. eigenvalues --    0.74202   0.75266   0.76571   0.78726   0.80785
 Alpha virt. eigenvalues --    0.81223   0.82757   0.84716   0.85683   0.87373
 Alpha virt. eigenvalues --    0.87676   0.89776   0.91544   0.94298   0.97740
 Alpha virt. eigenvalues --    0.98598   1.01628   1.02328   1.02767   1.05896
 Alpha virt. eigenvalues --    1.06221   1.07440   1.08563   1.12213   1.12873
 Alpha virt. eigenvalues --    1.14215   1.17432   1.19480   1.20019   1.22664
 Alpha virt. eigenvalues --    1.23367   1.24402   1.26229   1.28485   1.29174
 Alpha virt. eigenvalues --    1.31187   1.32701   1.34569   1.36362   1.37610
 Alpha virt. eigenvalues --    1.40097   1.40513   1.41293   1.42807   1.43729
 Alpha virt. eigenvalues --    1.44578   1.45596   1.47116   1.48183   1.50834
 Alpha virt. eigenvalues --    1.51493   1.54294   1.55777   1.56807   1.56986
 Alpha virt. eigenvalues --    1.57207   1.58234   1.59334   1.59970   1.60317
 Alpha virt. eigenvalues --    1.61841   1.63034   1.63786   1.64541   1.65027
 Alpha virt. eigenvalues --    1.66205   1.66780   1.67645   1.68484   1.69696
 Alpha virt. eigenvalues --    1.70734   1.72083   1.74168   1.75142   1.75642
 Alpha virt. eigenvalues --    1.79278   1.79373   1.80444   1.81929   1.85545
 Alpha virt. eigenvalues --    1.86079   1.87144   1.90030   1.92286   1.94440
 Alpha virt. eigenvalues --    1.95248   1.95753   1.96530   1.97861   2.02390
 Alpha virt. eigenvalues --    2.03359   2.06318   2.08344   2.09266   2.12525
 Alpha virt. eigenvalues --    2.15263   2.17415   2.18870   2.22428   2.24346
 Alpha virt. eigenvalues --    2.26289   2.27367   2.29845   2.30021   2.31799
 Alpha virt. eigenvalues --    2.33392   2.34952   2.38536   2.41104   2.44346
 Alpha virt. eigenvalues --    2.44840   2.46388   2.48294   2.49763   2.51184
 Alpha virt. eigenvalues --    2.52755   2.55825   2.57168   2.57538   2.59728
 Alpha virt. eigenvalues --    2.60536   2.62013   2.63129   2.64078   2.64340
 Alpha virt. eigenvalues --    2.66063   2.66700   2.68726   2.70823   2.71644
 Alpha virt. eigenvalues --    2.72816   2.73235   2.74216   2.75917   2.77272
 Alpha virt. eigenvalues --    2.79364   2.81821   2.82439   2.83588   2.84510
 Alpha virt. eigenvalues --    2.88192   2.89543   2.93407   2.94400   2.95320
 Alpha virt. eigenvalues --    2.97834   3.00808   3.02159   3.04228   3.06766
 Alpha virt. eigenvalues --    3.07829   3.09681   3.11030   3.11559   3.13133
 Alpha virt. eigenvalues --    3.13537   3.16487   3.17318   3.17534   3.19029
 Alpha virt. eigenvalues --    3.19647   3.21265   3.23672   3.23865   3.24415
 Alpha virt. eigenvalues --    3.26946   3.27828   3.29153   3.30833   3.31328
 Alpha virt. eigenvalues --    3.33123   3.33410   3.36012   3.38203   3.38952
 Alpha virt. eigenvalues --    3.40003   3.41885   3.42290   3.43428   3.45111
 Alpha virt. eigenvalues --    3.46671   3.47851   3.49645   3.50114   3.51436
 Alpha virt. eigenvalues --    3.52819   3.56472   3.60355   3.61963   3.65342
 Alpha virt. eigenvalues --    3.69762   3.71817   3.75480   3.76401   3.78084
 Alpha virt. eigenvalues --    3.79525   3.82876   3.83983   3.86534   3.86960
 Alpha virt. eigenvalues --    3.90600   3.94374   3.97048   4.00643   4.03081
 Alpha virt. eigenvalues --    4.04688   4.05688   4.07744   4.08340   4.10879
 Alpha virt. eigenvalues --    4.10921   4.13083   4.15392   4.17822   4.19971
 Alpha virt. eigenvalues --    4.26208   4.27211   4.28428   4.29679   4.34487
 Alpha virt. eigenvalues --    4.35815   4.38707   4.39707   4.45259   4.47249
 Alpha virt. eigenvalues --    4.49009   4.50111   4.53012   4.55526   4.56901
 Alpha virt. eigenvalues --    4.58499   4.61080   4.71706   4.73210   4.78260
 Alpha virt. eigenvalues --    4.83040   4.84507   4.89519   4.91938   4.92546
 Alpha virt. eigenvalues --    5.02589   5.06086   5.15915   5.16917   5.19778
 Alpha virt. eigenvalues --    5.26443   5.34628   5.41310   5.52691   5.57685
 Alpha virt. eigenvalues --    5.72365   5.94690   7.69609  22.33053  22.43077
 Alpha virt. eigenvalues --   22.52381  22.58973  22.73162  22.84928  22.88526
 Alpha virt. eigenvalues --   23.20550  32.51271
          Condensed to atoms (all electrons):
               1          2          3          4          5          6
     1  Br  35.003985   0.263214  -0.045916   0.008894  -0.001083  -0.000093
     2  C    0.263214   4.951162   0.223454  -0.018614   0.007567   0.000358
     3  C   -0.045916   0.223454   5.370220   0.135141  -0.015885  -0.013563
     4  C    0.008894  -0.018614   0.135141   5.387893   0.213535  -0.033377
     5  C   -0.001083   0.007567  -0.015885   0.213535   5.098283   0.464107
     6  C   -0.000093   0.000358  -0.013563  -0.033377   0.464107   4.891689
     7  N   -0.000001  -0.000001   0.000358   0.008366  -0.044365   0.513349
     8  C    0.000000  -0.000005  -0.000166  -0.000399  -0.043051  -0.116396
     9  C   -0.000001  -0.000065   0.002276   0.006784  -0.045248  -0.011859
    10  C   -0.000108   0.000378  -0.010701  -0.077912   0.448366  -0.060572
    11  H   -0.040128   0.431449  -0.049783   0.001399  -0.000149   0.000345
    12  H   -0.040482   0.430471  -0.050705   0.002684  -0.000968  -0.000208
    13  H    0.001999  -0.039063   0.422011  -0.040738   0.005163   0.004031
    14  H    0.001698  -0.036055   0.416155  -0.037529   0.003665  -0.004887
    15  H   -0.000033  -0.001905  -0.058610   0.439141  -0.042511   0.001085
    16  H   -0.000021  -0.002799  -0.045285   0.441052  -0.050636   0.000792
    17  H    0.000001   0.000035  -0.001446   0.005097  -0.089217   0.442441
    18  H   -0.000000  -0.000000   0.000014   0.000059  -0.000709   0.005899
    19  H    0.000000  -0.000002   0.000048   0.000019   0.012621  -0.001782
    20  H    0.000008   0.000095  -0.003726   0.006155  -0.049424   0.004148
               7          8          9         10         11         12
     1  Br  -0.000001   0.000000  -0.000001  -0.000108  -0.040128  -0.040482
     2  C   -0.000001  -0.000005  -0.000065   0.000378   0.431449   0.430471
     3  C    0.000358  -0.000166   0.002276  -0.010701  -0.049783  -0.050705
     4  C    0.008366  -0.000399   0.006784  -0.077912   0.001399   0.002684
     5  C   -0.044365  -0.043051  -0.045248   0.448366  -0.000149  -0.000968
     6  C    0.513349  -0.116396  -0.011859  -0.060572   0.000345  -0.000208
     7  N    6.418929   0.495209  -0.043541  -0.067530  -0.000001   0.000000
     8  C    0.495209   4.830401   0.487842  -0.015085  -0.000006   0.000005
     9  C   -0.043541   0.487842   4.985980   0.459295   0.000019  -0.000036
    10  C   -0.067530  -0.015085   0.459295   5.093936  -0.000375   0.000612
    11  H   -0.000001  -0.000006   0.000019  -0.000375   0.518657  -0.033861
    12  H    0.000000   0.000005  -0.000036   0.000612  -0.033861   0.522772
    13  H   -0.000060  -0.000243   0.000931  -0.008112   0.005826  -0.004028
    14  H   -0.000170   0.000236  -0.000738   0.006189  -0.003677   0.005620
    15  H   -0.000438   0.000307  -0.001297  -0.000165   0.001116  -0.000202
    16  H    0.000192  -0.000087  -0.000070   0.003904  -0.000368   0.001087
    17  H   -0.031923   0.009290  -0.002509   0.006304  -0.000008   0.000008
    18  H   -0.034012   0.433270  -0.067083   0.002341  -0.000000   0.000000
    19  H    0.007125  -0.030242   0.414803  -0.057402   0.000000  -0.000000
    20  H   -0.002171   0.002965  -0.031367   0.420238  -0.000001   0.000030
              13         14         15         16         17         18
     1  Br   0.001999   0.001698  -0.000033  -0.000021   0.000001  -0.000000
     2  C   -0.039063  -0.036055  -0.001905  -0.002799   0.000035  -0.000000
     3  C    0.422011   0.416155  -0.058610  -0.045285  -0.001446   0.000014
     4  C   -0.040738  -0.037529   0.439141   0.441052   0.005097   0.000059
     5  C    0.005163   0.003665  -0.042511  -0.050636  -0.089217  -0.000709
     6  C    0.004031  -0.004887   0.001085   0.000792   0.442441   0.005899
     7  N   -0.000060  -0.000170  -0.000438   0.000192  -0.031923  -0.034012
     8  C   -0.000243   0.000236   0.000307  -0.000087   0.009290   0.433270
     9  C    0.000931  -0.000738  -0.001297  -0.000070  -0.002509  -0.067083
    10  C   -0.008112   0.006189  -0.000165   0.003904   0.006304   0.002341
    11  H    0.005826  -0.003677   0.001116  -0.000368  -0.000008  -0.000000
    12  H   -0.004028   0.005620  -0.000202   0.001087   0.000008   0.000000
    13  H    0.494373  -0.013258   0.001055   0.002997  -0.000017  -0.000002
    14  H   -0.013258   0.488228   0.003744   0.000850   0.000506  -0.000001
    15  H    0.001055   0.003744   0.496882  -0.013161   0.000136  -0.000003
    16  H    0.002997   0.000850  -0.013161   0.490689   0.000729  -0.000002
    17  H   -0.000017   0.000506   0.000136   0.000729   0.515562  -0.000018
    18  H   -0.000002  -0.000001  -0.000003  -0.000002  -0.000018   0.515598
    19  H    0.000028  -0.000007  -0.000066   0.000014   0.000093  -0.000307
    20  H    0.000523   0.000194   0.000819   0.000165  -0.000239  -0.000270
              19         20
     1  Br   0.000000   0.000008
     2  C   -0.000002   0.000095
     3  C    0.000048  -0.003726
     4  C    0.000019   0.006155
     5  C    0.012621  -0.049424
     6  C   -0.001782   0.004148
     7  N    0.007125  -0.002171
     8  C   -0.030242   0.002965
     9  C    0.414803  -0.031367
    10  C   -0.057402   0.420238
    11  H    0.000000  -0.000001
    12  H   -0.000000   0.000030
    13  H    0.000028   0.000523
    14  H   -0.000007   0.000194
    15  H   -0.000066   0.000819
    16  H    0.000014   0.000165
    17  H    0.000093  -0.000239
    18  H   -0.000307  -0.000270
    19  H    0.517397  -0.005639
    20  H   -0.005639   0.498224
 Mulliken charges:
               1
     1  Br  -0.151933
     2  C   -0.209674
     3  C   -0.273892
     4  C   -0.447650
     5  C    0.129938
     6  C   -0.085507
     7  N   -0.219315
     8  C   -0.053846
     9  C   -0.154116
    10  C   -0.143603
    11  H    0.169544
    12  H    0.167203
    13  H    0.166583
    14  H    0.169236
    15  H    0.174107
    16  H    0.169956
    17  H    0.145175
    18  H    0.145226
    19  H    0.143297
    20  H    0.159272
 Sum of Mulliken charges =  -0.00000
 Mulliken charges with hydrogens summed into heavy atoms:
               1
     1  Br  -0.151933
     2  C    0.127073
     3  C    0.061927
     4  C   -0.103587
     5  C    0.129938
     6  C    0.059667
     7  N   -0.219315
     8  C    0.091380
     9  C   -0.010819
    10  C    0.015669
 Electronic spatial extent (au):  <R**2>=           3714.6456
 Charge=              0.0000 electrons
 Dipole moment (field-independent basis, Debye):
    X=             -0.5367    Y=              1.1061    Z=              2.2349  Tot=              2.5507
 Quadrupole moment (field-independent basis, Debye-Ang):
   XX=            -85.1618   YY=            -70.4139   ZZ=            -73.5762
   XY=             -9.6655   XZ=              0.2908   YZ=             -1.1881
 Traceless Quadrupole moment (field-independent basis, Debye-Ang):
   XX=             -8.7778   YY=              5.9701   ZZ=              2.8077
   XY=             -9.6655   XZ=              0.2908   YZ=             -1.1881
 Octapole moment (field-independent basis, Debye-Ang**2):
  XXX=             91.0504  YYY=              6.9050  ZZZ=             -7.5195  XYY=             34.9918
  XXY=             42.2941  XXZ=             -2.6585  XZZ=             46.6571  YZZ=              4.3905
  YYZ=              1.7870  XYZ=              4.7649
 Hexadecapole moment (field-independent basis, Debye-Ang**3):
 XXXX=          -3900.6267 YYYY=           -327.5420 ZZZZ=           -275.6551 XXXY=           -165.4444
 XXXZ=            -22.9686 YYYX=            -15.4784 YYYZ=             -2.2801 ZZZX=            -37.4265
 ZZZY=             -1.3697 XXYY=           -708.9239 XXZZ=           -701.1057 YYZZ=           -108.0161
 XXYZ=            -42.3182 YYXZ=            -24.7878 ZZXY=             -0.8035
 N-N= 6.746935041603D+02 E-N=-8.350249586858D+03  KE= 2.934434261847D+03
 Unable to Open any file for archive entry.
 1\1\GINC-COMPUTE-0-27\SP\RM062X\def2TZVP\C8H10Br1N1\ZTAN64\14-Aug-2024
 \0\\# M062X/def2tzvp int=(grid=ultrafine) nmr=giao guess=read geom=che
 ck\\pyrd10.xyz\\0,1\Br,0,5.8750250457,-2.1036948173,0.633507993\C,0,4.
 2588151484,-1.0271693667,0.2595256611\C,0,3.0167088406,-1.6908260255,0
 .8263611724\C,0,1.7510190799,-0.8619557923,0.5271844596\C,0,0.51044180
 8,-1.5150360489,1.0825092272\C,0,-0.0074282706,-1.1421993924,2.3284193
 492\N,0,-1.0763797733,-1.70261674,2.9035880437\C,0,-1.6858711096,-2.68
 79443428,2.2338852049\C,0,-1.2618821545,-3.1427329738,0.9848524697\C,0
 ,-0.1465026251,-2.5457205973,0.4042193142\H,0,4.4510674233,-0.05149705
 95,0.7062594803\H,0,4.2210983478,-0.9299070138,-0.8257306578\H,0,2.909
 8768525,-2.6942342888,0.4014481125\H,0,3.1264562431,-1.8175155293,1.90
 80745846\H,0,1.6492969459,-0.7328047711,-0.5572947528\H,0,1.8626654523
 ,0.1408848048,0.9557291197\H,0,0.471022417,-0.3394329761,2.8890555942\
 H,0,-2.5539416349,-3.1319597515,2.7165965398\H,0,-1.7959175682,-3.9421
 976564,0.4816944237\H,0,0.2117295319,-2.8720396613,-0.5689853391\\Vers
 ion=ES64L-G16RevC.01\State=1-A\HF=-2939.7880803\RMSD=3.989e-09\Dipole=
 -0.385556,0.1482138,-0.914573\Quadrupole=-5.3273173,4.9478799,0.379437
 4,5.5933567,5.2916951,-0.0035632\PG=C01 [X(C8H10Br1N1)]\\@
 The archive entry for this job was punched.


 Everywhere is walking distance if you have the time.
                                    -- Steven Wright
 Job cpu time:       0 days  0 hours 21 minutes 55.0 seconds.
 Elapsed time:       0 days  0 hours  1 minutes 28.6 seconds.
 File lengths (MBytes):  RWF=     88 Int=      0 D2E=      0 Chk=     15 Scr=      1
 Normal termination of Gaussian 16 at Wed Aug 14 18:54:17 2024.
 
 
-----Kestrel cluster job statistics-----
Time info:

real	8m28.651s
user	128m48.529s
sys	0m20.191s
 
Disk space usage:
15M	/scratch/362954.kestrel.chem.wisc.edu
