 Entering Gaussian System, Link 0=/share/apps/gaussian/g16/g16
 Initial command:
 /share/apps/gaussian/g16/l1.exe "/scratch/362947.kestrel.chem.wisc.edu/Gau-217315.inp" -scrdir="/scratch/362947.kestrel.chem.wisc.edu/"
 Entering Link 1 = /share/apps/gaussian/g16/l1.exe PID=    217316.
  
 Copyright (c) 1988-2019, Gaussian, Inc.  All Rights Reserved.
  
 This is part of the Gaussian(R) 16 program.  It is based on
 the Gaussian(R) 09 system (copyright 2009, Gaussian, Inc.),
 the Gaussian(R) 03 system (copyright 2003, Gaussian, Inc.),
 the Gaussian(R) 98 system (copyright 1998, Gaussian, Inc.),
 the Gaussian(R) 94 system (copyright 1995, Gaussian, Inc.),
 the Gaussian 92(TM) system (copyright 1992, Gaussian, Inc.),
 the Gaussian 90(TM) system (copyright 1990, Gaussian, Inc.),
 the Gaussian 88(TM) system (copyright 1988, Gaussian, Inc.),
 the Gaussian 86(TM) system (copyright 1986, Carnegie Mellon
 University), and the Gaussian 82(TM) system (copyright 1983,
 Carnegie Mellon University). Gaussian is a federally registered
 trademark of Gaussian, Inc.
  
 This software contains proprietary and confidential information,
 including trade secrets, belonging to Gaussian, Inc.
  
 This software is provided under written license and may be
 used, copied, transmitted, or stored only in accord with that
 written license.
  
 The following legend is applicable only to US Government
 contracts under FAR:
  
                    RESTRICTED RIGHTS LEGEND
  
 Use, reproduction and disclosure by the US Government is
 subject to restrictions as set forth in subparagraphs (a)
 and (c) of the Commercial Computer Software - Restricted
 Rights clause in FAR 52.227-19.
  
 Gaussian, Inc.
 340 Quinnipiac St., Bldg. 40, Wallingford CT 06492
  
  
 ---------------------------------------------------------------
 Warning -- This program may not be used in any manner that
 competes with the business of Gaussian, Inc. or will provide
 assistance to any competitor of Gaussian, Inc.  The licensee
 of this program is prohibited from giving any competitor of
 Gaussian, Inc. access to this program.  By using this program,
 the user acknowledges that Gaussian, Inc. is engaged in the
 business of creating and licensing software in the field of
 computational chemistry and represents and warrants to the
 licensee that it is not a competitor of Gaussian, Inc. and that
 it will not use this program in any manner prohibited above.
 ---------------------------------------------------------------
  

 Cite this work as:
 Gaussian 16, Revision C.01,
 M. J. Frisch, G. W. Trucks, H. B. Schlegel, G. E. Scuseria, 
 M. A. Robb, J. R. Cheeseman, G. Scalmani, V. Barone, 
 G. A. Petersson, H. Nakatsuji, X. Li, M. Caricato, A. V. Marenich, 
 J. Bloino, B. G. Janesko, R. Gomperts, B. Mennucci, H. P. Hratchian, 
 J. V. Ortiz, A. F. Izmaylov, J. L. Sonnenberg, D. Williams-Young, 
 F. Ding, F. Lipparini, F. Egidi, J. Goings, B. Peng, A. Petrone, 
 T. Henderson, D. Ranasinghe, V. G. Zakrzewski, J. Gao, N. Rega, 
 G. Zheng, W. Liang, M. Hada, M. Ehara, K. Toyota, R. Fukuda, 
 J. Hasegawa, M. Ishida, T. Nakajima, Y. Honda, O. Kitao, H. Nakai, 
 T. Vreven, K. Throssell, J. A. Montgomery, Jr., J. E. Peralta, 
 F. Ogliaro, M. J. Bearpark, J. J. Heyd, E. N. Brothers, K. N. Kudin, 
 V. N. Staroverov, T. A. Keith, R. Kobayashi, J. Normand, 
 K. Raghavachari, A. P. Rendell, J. C. Burant, S. S. Iyengar, 
 J. Tomasi, M. Cossi, J. M. Millam, M. Klene, C. Adamo, R. Cammi, 
 J. W. Ochterski, R. L. Martin, K. Morokuma, O. Farkas, 
 J. B. Foresman, and D. J. Fox, Gaussian, Inc., Wallingford CT, 2019.
 
 ******************************************
 Gaussian 16:  ES64L-G16RevC.01  3-Jul-2019
                14-Aug-2024 
 ******************************************
 %nprocs=16
 Will use up to   16 processors via shared memory.
 %mem=16GB
 %chk=pyrd10_conf-13.chk
 ----------------------------------------------------------------------
 # B3LYP/6-31G(d,p) symmetry=loose empiricaldispersion=GD3BJ int=(grid=
 ultrafine) opt freq=noraman
 ----------------------------------------------------------------------
 1/18=20,19=15,26=4,38=1/1,3;
 2/9=110,12=2,17=4,18=3,40=1/2;
 3/5=1,6=6,7=101,11=2,25=1,30=1,71=1,74=-5,75=-5,124=41/1,2,3;
 4//1;
 5/5=2,38=5/2;
 6/7=2,8=2,9=2,10=2,28=1/1;
 7//1,2,3,16;
 1/18=20,19=15,26=4/3(2);
 2/9=110/2;
 99//99;
 2/9=110/2;
 3/5=1,6=6,7=101,11=2,25=1,30=1,71=1,74=-5,75=-5,124=41/1,2,3;
 4/5=5,16=3,69=1/1;
 5/5=2,38=5/2;
 7//1,2,3,16;
 1/18=20,19=15,26=4/3(-5);
 2/9=110/2;
 6/7=2,8=2,9=2,10=2,19=2,28=1/1;
 99/9=1/99;
 ----------
 pyrd10.xyz
 ----------
 Symbolic Z-matrix:
 Charge =  0 Multiplicity = 1
 Br                    3.5183   -3.0208    1.7777 
 C                     3.8765   -1.8764    0.1875 
 C                     3.0753   -0.5604    0.2492 
 C                     1.5939   -0.6568   -0.1816 
 C                     0.6951   -1.4012    0.7938 
 C                     0.2748   -0.7978    1.9845 
 N                    -0.5325   -1.4161    2.8837 
 C                    -0.9417   -2.6792    2.6039 
 C                    -0.5715   -3.355     1.4396 
 C                     0.2566   -2.7026    0.5237 
 H                     4.9488   -1.6765    0.1844 
 H                     3.6485   -2.4556   -0.7081 
 H                     3.1599   -0.1215    1.2448 
 H                     3.559     0.1506   -0.4221 
 H                     1.5144   -1.1042   -1.1739 
 H                     1.1864    0.3492   -0.2971 
 H                     0.5878    0.2036    2.2406 
 H                    -1.5769   -3.1496    3.3407 
 H                    -0.9119   -4.3628    1.2532 
 H                     0.5625   -3.2101   -0.3792 
 

 GradGradGradGradGradGradGradGradGradGradGradGradGradGradGradGradGradGrad
 Berny optimization.
 Initialization pass.
                           ----------------------------
                           !    Initial Parameters    !
                           ! (Angstroms and Degrees)  !
 --------------------------                            --------------------------
 ! Name  Definition              Value          Derivative Info.                !
 --------------------------------------------------------------------------------
 ! R1    R(1,2)                  1.9917         estimate D2E/DX2                !
 ! R2    R(2,3)                  1.5419         estimate D2E/DX2                !
 ! R3    R(2,11)                 1.0908         estimate D2E/DX2                !
 ! R4    R(2,12)                 1.0907         estimate D2E/DX2                !
 ! R5    R(3,4)                  1.5458         estimate D2E/DX2                !
 ! R6    R(3,13)                 1.0913         estimate D2E/DX2                !
 ! R7    R(3,14)                 1.0909         estimate D2E/DX2                !
 ! R8    R(4,5)                  1.521          estimate D2E/DX2                !
 ! R9    R(4,15)                 1.0914         estimate D2E/DX2                !
 ! R10   R(4,16)                 1.0915         estimate D2E/DX2                !
 ! R11   R(5,6)                  1.3995         estimate D2E/DX2                !
 ! R12   R(5,10)                 1.3996         estimate D2E/DX2                !
 ! R13   R(6,7)                  1.3574         estimate D2E/DX2                !
 ! R14   R(6,17)                 1.08           estimate D2E/DX2                !
 ! R15   R(7,8)                  1.3569         estimate D2E/DX2                !
 ! R16   R(8,9)                  1.3962         estimate D2E/DX2                !
 ! R17   R(8,18)                 1.0806         estimate D2E/DX2                !
 ! R18   R(9,10)                 1.3965         estimate D2E/DX2                !
 ! R19   R(9,19)                 1.0799         estimate D2E/DX2                !
 ! R20   R(10,20)                1.08           estimate D2E/DX2                !
 ! A1    A(1,2,3)              111.4077         estimate D2E/DX2                !
 ! A2    A(1,2,11)             106.5215         estimate D2E/DX2                !
 ! A3    A(1,2,12)             108.2337         estimate D2E/DX2                !
 ! A4    A(3,2,11)             110.7632         estimate D2E/DX2                !
 ! A5    A(3,2,12)             112.1772         estimate D2E/DX2                !
 ! A6    A(11,2,12)            107.4873         estimate D2E/DX2                !
 ! A7    A(2,3,4)              115.6954         estimate D2E/DX2                !
 ! A8    A(2,3,13)             109.8442         estimate D2E/DX2                !
 ! A9    A(2,3,14)             107.5316         estimate D2E/DX2                !
 ! A10   A(4,3,13)             110.7088         estimate D2E/DX2                !
 ! A11   A(4,3,14)             107.1017         estimate D2E/DX2                !
 ! A12   A(13,3,14)            105.3603         estimate D2E/DX2                !
 ! A13   A(3,4,5)              114.716          estimate D2E/DX2                !
 ! A14   A(3,4,15)             110.4117         estimate D2E/DX2                !
 ! A15   A(3,4,16)             109.2563         estimate D2E/DX2                !
 ! A16   A(5,4,15)             109.8399         estimate D2E/DX2                !
 ! A17   A(5,4,16)             107.3566         estimate D2E/DX2                !
 ! A18   A(15,4,16)            104.7387         estimate D2E/DX2                !
 ! A19   A(4,5,6)              120.8028         estimate D2E/DX2                !
 ! A20   A(4,5,10)             121.0954         estimate D2E/DX2                !
 ! A21   A(6,5,10)             118.1001         estimate D2E/DX2                !
 ! A22   A(5,6,7)              123.0817         estimate D2E/DX2                !
 ! A23   A(5,6,17)             120.9647         estimate D2E/DX2                !
 ! A24   A(7,6,17)             115.953          estimate D2E/DX2                !
 ! A25   A(6,7,8)              117.8247         estimate D2E/DX2                !
 ! A26   A(7,8,9)              122.8588         estimate D2E/DX2                !
 ! A27   A(7,8,18)             116.2256         estimate D2E/DX2                !
 ! A28   A(9,8,18)             120.9151         estimate D2E/DX2                !
 ! A29   A(8,9,10)             118.5565         estimate D2E/DX2                !
 ! A30   A(8,9,19)             120.8008         estimate D2E/DX2                !
 ! A31   A(10,9,19)            120.6414         estimate D2E/DX2                !
 ! A32   A(5,10,9)             119.5775         estimate D2E/DX2                !
 ! A33   A(5,10,20)            120.6335         estimate D2E/DX2                !
 ! A34   A(9,10,20)            119.7846         estimate D2E/DX2                !
 ! D1    D(1,2,3,4)            -80.121          estimate D2E/DX2                !
 ! D2    D(1,2,3,13)            46.0963         estimate D2E/DX2                !
 ! D3    D(1,2,3,14)           160.2594         estimate D2E/DX2                !
 ! D4    D(11,2,3,4)           161.4999         estimate D2E/DX2                !
 ! D5    D(11,2,3,13)          -72.2827         estimate D2E/DX2                !
 ! D6    D(11,2,3,14)           41.8803         estimate D2E/DX2                !
 ! D7    D(12,2,3,4)            41.3952         estimate D2E/DX2                !
 ! D8    D(12,2,3,13)          167.6125         estimate D2E/DX2                !
 ! D9    D(12,2,3,14)          -78.2244         estimate D2E/DX2                !
 ! D10   D(2,3,4,5)             71.0158         estimate D2E/DX2                !
 ! D11   D(2,3,4,15)           -53.73           estimate D2E/DX2                !
 ! D12   D(2,3,4,16)          -168.4096         estimate D2E/DX2                !
 ! D13   D(13,3,4,5)           -54.7618         estimate D2E/DX2                !
 ! D14   D(13,3,4,15)         -179.5076         estimate D2E/DX2                !
 ! D15   D(13,3,4,16)           65.8128         estimate D2E/DX2                !
 ! D16   D(14,3,4,5)          -169.13           estimate D2E/DX2                !
 ! D17   D(14,3,4,15)           66.1242         estimate D2E/DX2                !
 ! D18   D(14,3,4,16)          -48.5553         estimate D2E/DX2                !
 ! D19   D(3,4,5,6)             75.8833         estimate D2E/DX2                !
 ! D20   D(3,4,5,10)          -104.6006         estimate D2E/DX2                !
 ! D21   D(15,4,5,6)          -159.0705         estimate D2E/DX2                !
 ! D22   D(15,4,5,10)           20.4457         estimate D2E/DX2                !
 ! D23   D(16,4,5,6)           -45.7335         estimate D2E/DX2                !
 ! D24   D(16,4,5,10)          133.7827         estimate D2E/DX2                !
 ! D25   D(4,5,6,7)            179.6289         estimate D2E/DX2                !
 ! D26   D(4,5,6,17)            -0.66           estimate D2E/DX2                !
 ! D27   D(10,5,6,7)             0.0986         estimate D2E/DX2                !
 ! D28   D(10,5,6,17)          179.8097         estimate D2E/DX2                !
 ! D29   D(4,5,10,9)          -179.7956         estimate D2E/DX2                !
 ! D30   D(4,5,10,20)            0.9702         estimate D2E/DX2                !
 ! D31   D(6,5,10,9)            -0.2667         estimate D2E/DX2                !
 ! D32   D(6,5,10,20)         -179.501          estimate D2E/DX2                !
 ! D33   D(5,6,7,8)              0.135          estimate D2E/DX2                !
 ! D34   D(17,6,7,8)          -179.5895         estimate D2E/DX2                !
 ! D35   D(6,7,8,9)             -0.205          estimate D2E/DX2                !
 ! D36   D(6,7,8,18)           179.5318         estimate D2E/DX2                !
 ! D37   D(7,8,9,10)             0.0378         estimate D2E/DX2                !
 ! D38   D(7,8,9,19)           179.6276         estimate D2E/DX2                !
 ! D39   D(18,8,9,10)         -179.6871         estimate D2E/DX2                !
 ! D40   D(18,8,9,19)           -0.0972         estimate D2E/DX2                !
 ! D41   D(8,9,10,5)             0.2032         estimate D2E/DX2                !
 ! D42   D(8,9,10,20)          179.444          estimate D2E/DX2                !
 ! D43   D(19,9,10,5)         -179.3873         estimate D2E/DX2                !
 ! D44   D(19,9,10,20)          -0.1465         estimate D2E/DX2                !
 --------------------------------------------------------------------------------
 Trust Radius=3.00D-01 FncErr=1.00D-07 GrdErr=1.00D-06 EigMax=2.50D+02 EigMin=1.00D-04
 Number of steps in this run=    108 maximum allowed number of steps=    120.
 GradGradGradGradGradGradGradGradGradGradGradGradGradGradGradGradGradGrad

                          Input orientation:                          
 ---------------------------------------------------------------------
 Center     Atomic      Atomic             Coordinates (Angstroms)
 Number     Number       Type             X           Y           Z
 ---------------------------------------------------------------------
      1         35           0        3.518300   -3.020800    1.777700
      2          6           0        3.876500   -1.876400    0.187500
      3          6           0        3.075300   -0.560400    0.249200
      4          6           0        1.593900   -0.656800   -0.181600
      5          6           0        0.695100   -1.401200    0.793800
      6          6           0        0.274800   -0.797800    1.984500
      7          7           0       -0.532500   -1.416100    2.883700
      8          6           0       -0.941700   -2.679200    2.603900
      9          6           0       -0.571500   -3.355000    1.439600
     10          6           0        0.256600   -2.702600    0.523700
     11          1           0        4.948800   -1.676500    0.184400
     12          1           0        3.648500   -2.455600   -0.708100
     13          1           0        3.159900   -0.121500    1.244800
     14          1           0        3.559000    0.150600   -0.422100
     15          1           0        1.514400   -1.104200   -1.173900
     16          1           0        1.186400    0.349200   -0.297100
     17          1           0        0.587800    0.203600    2.240600
     18          1           0       -1.576900   -3.149600    3.340700
     19          1           0       -0.911900   -4.362800    1.253200
     20          1           0        0.562500   -3.210100   -0.379200
 ---------------------------------------------------------------------
                    Distance matrix (angstroms):
                    1          2          3          4          5
     1  Br   0.000000
     2  C    1.991656   0.000000
     3  C    2.930210   1.541942   0.000000
     4  C    3.623626   2.614177   1.545777   0.000000
     5  C    3.400238   3.273335   2.582419   1.520979   0.000000
     6  C    3.937612   4.167113   3.303093   2.540058   1.399468
     7  N    4.495251   5.188511   4.548520   3.807122   2.423820
     8  C    4.548725   5.449636   5.115683   4.275322   2.754789
     9  C    4.117337   4.851672   4.746155   3.820671   2.416334
    10  C    3.508911   3.728178   3.550977   2.543839   1.399599
    11  H    2.528256   1.090778   2.181715   3.525493   4.305940
    12  H    2.552568   1.090668   2.199265   2.781055   3.477073
    13  H    2.969575   2.170501   1.091334   2.184838   2.813587
    14  H    3.859865   2.140362   1.090931   2.138072   3.476840
    15  H    4.049804   2.833588   2.181133   1.091396   2.152047
    16  H    4.593414   3.524879   2.166508   1.091528   2.120221
    17  H    4.381651   4.399678   3.276740   2.760358   2.163360
    18  H    5.331099   6.426763   6.156646   5.354869   3.834786
    19  H    4.658620   5.499698   5.600359   4.698098   3.400672
    20  H    3.663988   3.616974   3.705396   2.760828   2.160007
                    6          7          8          9         10
     6  C    0.000000
     7  N    1.357420   0.000000
     8  C    2.324477   1.356891   0.000000
     9  C    2.748165   2.417908   1.396191   0.000000
    10  C    2.400527   2.801314   2.400771   1.396513   0.000000
    11  H    5.085150   6.115446   6.446501   5.904795   4.815054
    12  H    4.623878   5.609131   5.664740   4.819744   3.617088
    13  H    3.054233   4.242146   5.021166   4.941337   3.951103
    14  H    4.180569   5.488464   6.117250   5.728542   4.465550
    15  H    3.406755   4.555348   4.773345   4.030814   2.649300
    16  H    2.711517   4.023480   4.702746   4.452801   3.294195
    17  H    1.079981   2.071733   3.283579   3.827429   3.391672
    18  H    3.286188   2.074763   1.080569   2.160370   3.390726
    19  H    3.827830   3.389029   2.158654   1.079943   2.157273
    20  H    3.389549   3.881234   3.382803   2.148252   1.079981
                   11         12         13         14         15
    11  H    0.000000
    12  H    1.759072   0.000000
    13  H    2.596659   3.082300   0.000000
    14  H    2.374380   2.623373   1.735475   0.000000
    15  H    3.737327   2.568586   3.086013   2.513984   0.000000
    16  H    4.300111   3.754698   2.548277   2.384177   1.728795
    17  H    5.175042   5.013388   2.777230   3.990089   3.771967
    18  H    7.397095   6.646745   5.999955   7.171294   5.841353
    19  H    6.535009   5.318022   5.879477   6.570111   4.732464
    20  H    4.680727   3.193876   4.350093   4.502794   2.443865
                   16         17         18         19         20
    16  H    0.000000
    17  H    2.611406   0.000000
    18  H    5.754217   4.140060   0.000000
    19  H    5.386022   4.906737   2.504343   0.000000
    20  H    3.614500   4.303178   4.291660   2.483405   0.000000
 Stoichiometry    C8H10BrN
 Framework group  C1[X(C8H10BrN)]
 Deg. of freedom    54
 Full point group                 C1      NOp   1
 Largest Abelian subgroup         C1      NOp   1
 Largest concise Abelian subgroup C1      NOp   1
                         Standard orientation:                         
 ---------------------------------------------------------------------
 Center     Atomic      Atomic             Coordinates (Angstroms)
 Number     Number       Type             X           Y           Z
 ---------------------------------------------------------------------
      1         35           0       -1.600627   -1.060236   -0.168419
      2          6           0       -2.178598    0.772933    0.353246
      3          6           0       -1.294131    1.850681   -0.305361
      4          6           0        0.067863    2.109612    0.378273
      5          6           0        1.084570    0.990281    0.214621
      6          6           0        1.764001    0.810558   -0.995578
      7          7           0        2.684984   -0.167475   -1.190078
      8          6           0        2.947742   -1.004876   -0.155248
      9          6           0        2.317571   -0.896316    1.085900
     10          6           0        1.375310    0.117881    1.269736
     11          1           0       -3.215918    0.874424    0.031589
     12          1           0       -2.165157    0.838145    1.441879
     13          1           0       -1.157426    1.621816   -1.363634
     14          1           0       -1.848474    2.789985   -0.282104
     15          1           0       -0.073775    2.329366    1.437893
     16          1           0        0.512185    3.016288   -0.036394
     17          1           0        1.573413    1.455164   -1.840869
     18          1           0        3.679062   -1.778423   -0.340785
     19          1           0        2.547878   -1.585109    1.885150
     20          1           0        0.869305    0.214411    2.218946
 ---------------------------------------------------------------------
 Rotational constants (GHZ):           1.4307231           0.6660065           0.5429652
 Standard basis: 6-31G(d,p) (6D, 7F)
 There are   215 symmetry adapted cartesian basis functions of A   symmetry.
 There are   215 symmetry adapted basis functions of A   symmetry.
   215 basis functions,   405 primitive gaussians,   215 cartesian basis functions
    50 alpha electrons       50 beta electrons
       nuclear repulsion energy       754.2521368927 Hartrees.
 NAtoms=   20 NActive=   20 NUniq=   20 SFac= 1.00D+00 NAtFMM=   60 NAOKFM=F Big=F
 Integral buffers will be    131072 words long.
 Raffenetti 2 integral format.
 Two-electron integral symmetry is turned on.
 Nuclear repulsion after empirical dispersion term =      754.2115946014 Hartrees.
 One-electron integrals computed using PRISM.
 NBasis=   215 RedAO= T EigKep=  7.36D-04  NBF=   215
 NBsUse=   215 1.00D-06 EigRej= -1.00D+00 NBFU=   215
 ExpMin= 1.43D-01 ExpMax= 5.74D+05 ExpMxC= 5.74D+03 IAcc=3 IRadAn=         5 AccDes= 0.00D+00
 Harris functional with IExCor=  402 and IRadAn=       5 diagonalized for initial guess.
 HarFok:  IExCor=  402 AccDes= 0.00D+00 IRadAn=         5 IDoV= 1 UseB2=F ITyADJ=14
 ICtDFT=  3500011 ScaDFX=  1.000000  1.000000  1.000000  1.000000
 FoFCou: FMM=F IPFlag=           0 FMFlag=      100000 FMFlg1=           0
         NFxFlg=           0 DoJE=T BraDBF=F KetDBF=T FulRan=T
         wScrn=  0.000000 ICntrl=       500 IOpCl=  0 I1Cent=   200000004 NGrid=           0
         NMat0=    1 NMatS0=      1 NMatT0=    0 NMatD0=    1 NMtDS0=    0 NMtDT0=    0
 Petite list used in FoFCou.
 Requested convergence on RMS density matrix=1.00D-08 within 128 cycles.
 Requested convergence on MAX density matrix=1.00D-06.
 Requested convergence on             energy=1.00D-06.
 No special actions if energy rises.
 Integral accuracy reduced to 1.0D-05 until final iterations.
 Initial convergence to 1.0D-05 achieved.  Increase integral accuracy.
 SCF Done:  E(RB3LYP) =  -2937.38342920     A.U. after   14 cycles
            NFock= 14  Conv=0.64D-08     -V/T= 2.0067

 **********************************************************************

            Population analysis using the SCF Density.

 **********************************************************************

 Orbital symmetries:
       Occupied  (A) (A) (A) (A) (A) (A) (A) (A) (A) (A) (A) (A)
                 (A) (A) (A) (A) (A) (A) (A) (A) (A) (A) (A) (A)
                 (A) (A) (A) (A) (A) (A) (A) (A) (A) (A) (A) (A)
                 (A) (A) (A) (A) (A) (A) (A) (A) (A) (A) (A) (A)
                 (A) (A)
       Virtual   (A) (A) (A) (A) (A) (A) (A) (A) (A) (A) (A) (A)
                 (A) (A) (A) (A) (A) (A) (A) (A) (A) (A) (A) (A)
                 (A) (A) (A) (A) (A) (A) (A) (A) (A) (A) (A) (A)
                 (A) (A) (A) (A) (A) (A) (A) (A) (A) (A) (A) (A)
                 (A) (A) (A) (A) (A) (A) (A) (A) (A) (A) (A) (A)
                 (A) (A) (A) (A) (A) (A) (A) (A) (A) (A) (A) (A)
                 (A) (A) (A) (A) (A) (A) (A) (A) (A) (A) (A) (A)
                 (A) (A) (A) (A) (A) (A) (A) (A) (A) (A) (A) (A)
                 (A) (A) (A) (A) (A) (A) (A) (A) (A) (A) (A) (A)
                 (A) (A) (A) (A) (A) (A) (A) (A) (A) (A) (A) (A)
                 (A) (A) (A) (A) (A) (A) (A) (A) (A) (A) (A) (A)
                 (A) (A) (A) (A) (A) (A) (A) (A) (A) (A) (A) (A)
                 (A) (A) (A) (A) (A) (A) (A) (A) (A) (A) (A) (A)
                 (A) (A) (A) (A) (A) (A) (A) (A) (A)
 The electronic state is 1-A.
 Alpha  occ. eigenvalues -- -482.89370 -61.85592 -56.37621 -56.37247 -56.37242
 Alpha  occ. eigenvalues --  -14.32520 -10.24843 -10.21635 -10.21614 -10.20829
 Alpha  occ. eigenvalues --  -10.20244 -10.20165 -10.20100 -10.19386  -8.56678
 Alpha  occ. eigenvalues --   -6.52056  -6.50779  -6.50750  -2.63614  -2.63264
 Alpha  occ. eigenvalues --   -2.63242  -2.62223  -2.62223  -0.92365  -0.83135
 Alpha  occ. eigenvalues --   -0.79727  -0.77142  -0.73830  -0.67938  -0.62698
 Alpha  occ. eigenvalues --   -0.61780  -0.58721  -0.51554  -0.48545  -0.47295
 Alpha  occ. eigenvalues --   -0.46591  -0.44381  -0.42282  -0.40372  -0.39661
 Alpha  occ. eigenvalues --   -0.39321  -0.37087  -0.36954  -0.35634  -0.33853
 Alpha  occ. eigenvalues --   -0.28492  -0.27162  -0.26225  -0.24566  -0.24361
 Alpha virt. eigenvalues --   -0.01983  -0.00812   0.00007   0.07990   0.10256
 Alpha virt. eigenvalues --    0.11938   0.12660   0.13663   0.14824   0.15214
 Alpha virt. eigenvalues --    0.16557   0.16939   0.17801   0.19101   0.19558
 Alpha virt. eigenvalues --    0.22884   0.25563   0.26474   0.28830   0.31487
 Alpha virt. eigenvalues --    0.33090   0.36308   0.41005   0.42477   0.43400
 Alpha virt. eigenvalues --    0.44394   0.46045   0.46526   0.47402   0.49323
 Alpha virt. eigenvalues --    0.50718   0.52824   0.53890   0.55532   0.56189
 Alpha virt. eigenvalues --    0.56418   0.58308   0.60027   0.60528   0.61511
 Alpha virt. eigenvalues --    0.63586   0.64186   0.66073   0.67017   0.68044
 Alpha virt. eigenvalues --    0.70549   0.72626   0.74914   0.77447   0.78404
 Alpha virt. eigenvalues --    0.80908   0.81680   0.81861   0.83267   0.84860
 Alpha virt. eigenvalues --    0.86085   0.86477   0.87976   0.88619   0.89585
 Alpha virt. eigenvalues --    0.92073   0.92834   0.92902   0.95951   0.98262
 Alpha virt. eigenvalues --    1.00776   1.04057   1.07726   1.10845   1.13704
 Alpha virt. eigenvalues --    1.15776   1.19641   1.25528   1.28820   1.30921
 Alpha virt. eigenvalues --    1.35239   1.38170   1.40787   1.43461   1.44916
 Alpha virt. eigenvalues --    1.48175   1.48503   1.52564   1.54353   1.58507
 Alpha virt. eigenvalues --    1.62603   1.67275   1.72863   1.75456   1.78632
 Alpha virt. eigenvalues --    1.79550   1.81383   1.82151   1.85638   1.87147
 Alpha virt. eigenvalues --    1.89321   1.90273   1.92687   1.97631   1.98367
 Alpha virt. eigenvalues --    2.00186   2.02232   2.08653   2.10801   2.11224
 Alpha virt. eigenvalues --    2.13465   2.14275   2.15719   2.18851   2.20913
 Alpha virt. eigenvalues --    2.25561   2.27346   2.29377   2.31771   2.32956
 Alpha virt. eigenvalues --    2.34698   2.37898   2.39241   2.40120   2.41810
 Alpha virt. eigenvalues --    2.42717   2.47680   2.49705   2.51960   2.54592
 Alpha virt. eigenvalues --    2.57024   2.57438   2.60132   2.62434   2.64248
 Alpha virt. eigenvalues --    2.67975   2.68547   2.70573   2.72740   2.75467
 Alpha virt. eigenvalues --    2.78729   2.82573   2.86764   2.86835   2.89829
 Alpha virt. eigenvalues --    2.99553   3.04363   3.18736   3.22157   3.24596
 Alpha virt. eigenvalues --    3.28520   3.30367   3.31797   3.39689   3.40793
 Alpha virt. eigenvalues --    3.46149   3.47733   3.54490   3.79873   4.11800
 Alpha virt. eigenvalues --    4.17571   4.18567   4.27039   4.33500   4.45071
 Alpha virt. eigenvalues --    4.54334   4.66142   4.75260   8.66445  73.57317
          Condensed to atoms (all electrons):
               1          2          3          4          5          6
     1  Br  35.015102   0.257033  -0.048585  -0.006566  -0.000047   0.001348
     2  C    0.257033   4.967851   0.345881  -0.040996  -0.003851  -0.000550
     3  C   -0.048585   0.345881   4.962176   0.359177  -0.044328  -0.004102
     4  C   -0.006566  -0.040996   0.359177   5.033297   0.342113  -0.048805
     5  C   -0.000047  -0.003851  -0.044328   0.342113   4.811086   0.482712
     6  C    0.001348  -0.000550  -0.004102  -0.048805   0.482712   4.811488
     7  N   -0.000369  -0.000003   0.000005   0.005617  -0.012879   0.439587
     8  C    0.000780   0.000002   0.000024   0.000211  -0.033458  -0.071876
     9  C   -0.001218  -0.000017  -0.000175   0.007905  -0.021093  -0.042672
    10  C   -0.001059   0.001425  -0.001266  -0.058334   0.540496  -0.033936
    11  H   -0.039258   0.379211  -0.031453   0.003794   0.000082  -0.000000
    12  H   -0.037564   0.375986  -0.038528  -0.006087  -0.000436   0.000030
    13  H   -0.002085  -0.038821   0.386802  -0.035244  -0.006033   0.003095
    14  H    0.004890  -0.034300   0.360741  -0.033215   0.004814   0.000117
    15  H   -0.000090  -0.007747  -0.036240   0.372455  -0.031874   0.003662
    16  H   -0.000135   0.004751  -0.032468   0.373326  -0.033278  -0.005977
    17  H    0.000084   0.000032   0.000635  -0.003771  -0.069386   0.387419
    18  H    0.000003  -0.000000   0.000000   0.000014   0.000773   0.004572
    19  H   -0.000028   0.000001   0.000001  -0.000114   0.005177   0.000476
    20  H    0.000490   0.000014   0.000149  -0.010835  -0.047085   0.005707
               7          8          9         10         11         12
     1  Br  -0.000369   0.000780  -0.001218  -0.001059  -0.039258  -0.037564
     2  C   -0.000003   0.000002  -0.000017   0.001425   0.379211   0.375986
     3  C    0.000005   0.000024  -0.000175  -0.001266  -0.031453  -0.038528
     4  C    0.005617   0.000211   0.007905  -0.058334   0.003794  -0.006087
     5  C   -0.012879  -0.033458  -0.021093   0.540496   0.000082  -0.000436
     6  C    0.439587  -0.071876  -0.042672  -0.033936  -0.000000   0.000030
     7  N    6.729112   0.457050  -0.023274  -0.056728  -0.000000  -0.000001
     8  C    0.457050   4.725839   0.505401  -0.037980   0.000000   0.000000
     9  C   -0.023274   0.505401   4.902109   0.513097  -0.000000   0.000013
    10  C   -0.056728  -0.037980   0.513097   4.872665  -0.000016   0.000402
    11  H   -0.000000   0.000000  -0.000000  -0.000016   0.583018  -0.038003
    12  H   -0.000001   0.000000   0.000013   0.000402  -0.038003   0.592567
    13  H   -0.000094  -0.000001   0.000002   0.000113  -0.001699   0.005129
    14  H    0.000002  -0.000000   0.000004  -0.000089  -0.004504   0.000151
    15  H   -0.000158   0.000013   0.000044  -0.005597   0.000087   0.004957
    16  H    0.000055   0.000019  -0.000252   0.003164  -0.000166   0.000045
    17  H   -0.049063   0.004824   0.000347   0.004076   0.000001  -0.000001
    18  H   -0.050443   0.387363  -0.061740   0.003420  -0.000000  -0.000000
    19  H    0.004920  -0.036102   0.357818  -0.039536  -0.000000  -0.000001
    20  H   -0.000274   0.004864  -0.045438   0.372486   0.000003   0.000437
              13         14         15         16         17         18
     1  Br  -0.002085   0.004890  -0.000090  -0.000135   0.000084   0.000003
     2  C   -0.038821  -0.034300  -0.007747   0.004751   0.000032  -0.000000
     3  C    0.386802   0.360741  -0.036240  -0.032468   0.000635   0.000000
     4  C   -0.035244  -0.033215   0.372455   0.373326  -0.003771   0.000014
     5  C   -0.006033   0.004814  -0.031874  -0.033278  -0.069386   0.000773
     6  C    0.003095   0.000117   0.003662  -0.005977   0.387419   0.004572
     7  N   -0.000094   0.000002  -0.000158   0.000055  -0.049063  -0.050443
     8  C   -0.000001  -0.000000   0.000013   0.000019   0.004824   0.387363
     9  C    0.000002   0.000004   0.000044  -0.000252   0.000347  -0.061740
    10  C    0.000113  -0.000089  -0.005597   0.003164   0.004076   0.003420
    11  H   -0.001699  -0.004504   0.000087  -0.000166   0.000001  -0.000000
    12  H    0.005129   0.000151   0.004957   0.000045  -0.000001  -0.000000
    13  H    0.588056  -0.033146   0.005175  -0.002378   0.001151  -0.000000
    14  H   -0.033146   0.634653  -0.002636  -0.005478  -0.000082   0.000000
    15  H    0.005175  -0.002636   0.627972  -0.036913  -0.000071  -0.000000
    16  H   -0.002378  -0.005478  -0.036913   0.617130   0.003512  -0.000000
    17  H    0.001151  -0.000082  -0.000071   0.003512   0.627318  -0.000199
    18  H   -0.000000   0.000000  -0.000000  -0.000000  -0.000199   0.619431
    19  H    0.000000  -0.000000  -0.000014   0.000004   0.000027  -0.002353
    20  H    0.000020  -0.000024   0.005763   0.000068  -0.000180  -0.000195
              19         20
     1  Br  -0.000028   0.000490
     2  C    0.000001   0.000014
     3  C    0.000001   0.000149
     4  C   -0.000114  -0.010835
     5  C    0.005177  -0.047085
     6  C    0.000476   0.005707
     7  N    0.004920  -0.000274
     8  C   -0.036102   0.004864
     9  C    0.357818  -0.045438
    10  C   -0.039536   0.372486
    11  H   -0.000000   0.000003
    12  H   -0.000001   0.000437
    13  H    0.000000   0.000020
    14  H   -0.000000  -0.000024
    15  H   -0.000014   0.005763
    16  H    0.000004   0.000068
    17  H    0.000027  -0.000180
    18  H   -0.002353  -0.000195
    19  H    0.626817  -0.006616
    20  H   -0.006616   0.632399
 Mulliken charges:
               1
     1  Br  -0.142725
     2  C   -0.205899
     3  C   -0.178447
     4  C   -0.253940
     5  C    0.116494
     6  C    0.067707
     7  N   -0.443061
     8  C    0.093028
     9  C   -0.090859
    10  C   -0.076804
    11  H    0.148903
    12  H    0.140906
    13  H    0.129957
    14  H    0.108103
    15  H    0.101212
    16  H    0.114971
    17  H    0.093328
    18  H    0.099354
    19  H    0.089523
    20  H    0.088248
 Sum of Mulliken charges =  -0.00000
 Mulliken charges with hydrogens summed into heavy atoms:
               1
     1  Br  -0.142725
     2  C    0.083910
     3  C    0.059613
     4  C   -0.037757
     5  C    0.116494
     6  C    0.161035
     7  N   -0.443061
     8  C    0.192382
     9  C   -0.001336
    10  C    0.011445
 Electronic spatial extent (au):  <R**2>=           2097.7790
 Charge=             -0.0000 electrons
 Dipole moment (field-independent basis, Debye):
    X=             -1.6452    Y=              2.2922    Z=              2.2516  Tot=              3.6098
 Quadrupole moment (field-independent basis, Debye-Ang):
   XX=            -74.3415   YY=            -67.0902   ZZ=            -71.4848
   XY=             -6.5842   XZ=              3.9978   YZ=             -1.7143
 Traceless Quadrupole moment (field-independent basis, Debye-Ang):
   XX=             -3.3693   YY=              3.8819   ZZ=             -0.5126
   XY=             -6.5842   XZ=              3.9978   YZ=             -1.7143
 Octapole moment (field-independent basis, Debye-Ang**2):
  XXX=            -74.2436  YYY=            -31.2423  ZZZ=              4.1895  XYY=            -11.5431
  XXY=            -12.4469  XXZ=             14.5099  XZZ=            -24.8067  YZZ=             -8.0354
  YYZ=             -4.2534  XYZ=             -5.4837
 Hexadecapole moment (field-independent basis, Debye-Ang**3):
 XXXX=          -1611.2318 YYYY=           -682.3256 ZZZZ=           -325.8246 XXXY=            -16.4961
 XXXZ=             44.0888 YYYX=             39.3060 YYYZ=              3.5653 ZZZX=             24.2519
 ZZZY=             -3.5868 XXYY=           -361.8721 XXZZ=           -349.1164 YYZZ=           -167.3436
 XXYZ=             -7.0396 YYXZ=              2.8630 ZZXY=             14.8394
 N-N= 7.542115946014D+02 E-N=-8.489449579222D+03  KE= 2.917966515763D+03
 Calling FoFJK, ICntrl=      2127 FMM=F ISym2X=0 I1Cent= 0 IOpClX= 0 NMat=1 NMatS=1 NMatT=0.
 ***** Axes restored to original set *****
 -------------------------------------------------------------------
 Center     Atomic                   Forces (Hartrees/Bohr)
 Number     Number              X              Y              Z
 -------------------------------------------------------------------
      1       35           0.002131471    0.001589978   -0.006293158
      2        6          -0.003994224    0.011367849    0.001132264
      3        6          -0.001176925   -0.006003428   -0.004572801
      4        6          -0.003263954   -0.002258355    0.010136400
      5        6           0.003421594   -0.000179479   -0.008062877
      6        6          -0.015053426   -0.023898679    0.008272105
      7        7           0.004695393   -0.004073158   -0.009999863
      8        6           0.011909229    0.018042268   -0.004874177
      9        6           0.003296486    0.006618215   -0.000007216
     10        6          -0.004508999    0.002202812    0.009871303
     11        1          -0.000518060   -0.001387603    0.004607715
     12        1          -0.003376618   -0.002914018    0.002506432
     13        1          -0.000839867   -0.001499478    0.002796665
     14        1           0.003972547    0.001203569   -0.004429685
     15        1           0.002190586   -0.003903561   -0.001850034
     16        1           0.002481164    0.004822227    0.000826907
     17        1           0.001292727    0.005419631    0.000857028
     18        1          -0.002873372   -0.001198463    0.003300436
     19        1          -0.001696530   -0.003370797   -0.000128959
     20        1           0.001910779   -0.000579530   -0.004088484
 -------------------------------------------------------------------
 Cartesian Forces:  Max     0.023898679 RMS     0.006269035

 GradGradGradGradGradGradGradGradGradGradGradGradGradGradGradGradGradGrad
 Berny optimization.
 FormGI is forming the generalized inverse of G from B-inverse, IUseBI=4.
 Internal  Forces:  Max     0.018782713 RMS     0.003745628
 Search for a local minimum.
 Step number   1 out of a maximum of  108
 All quantities printed in internal units (Hartrees-Bohrs-Radians)
 Mixed Optimization -- RFO/linear search
 Second derivative matrix not updated -- first step.
 ITU=  0
     Eigenvalues ---    0.00230   0.00230   0.00488   0.01429   0.02102
     Eigenvalues ---    0.02114   0.02137   0.02140   0.02145   0.02178
     Eigenvalues ---    0.02228   0.03079   0.03685   0.04684   0.05218
     Eigenvalues ---    0.05316   0.05652   0.08815   0.09741   0.12587
     Eigenvalues ---    0.13090   0.14417   0.15999   0.16000   0.16000
     Eigenvalues ---    0.16000   0.16000   0.16000   0.21909   0.21933
     Eigenvalues ---    0.22000   0.22223   0.23190   0.23456   0.24999
     Eigenvalues ---    0.28013   0.28348   0.30272   0.34637   0.34652
     Eigenvalues ---    0.34659   0.34705   0.34723   0.34736   0.35926
     Eigenvalues ---    0.35997   0.35997   0.36001   0.42096   0.43629
     Eigenvalues ---    0.45869   0.46100   0.51754   0.52871
 RFO step:  Lambda=-5.07323152D-03 EMin= 2.30000000D-03
 Linear search not attempted -- first point.
 Iteration  1 RMS(Cart)=  0.06049137 RMS(Int)=  0.00113722
 Iteration  2 RMS(Cart)=  0.00144568 RMS(Int)=  0.00012559
 Iteration  3 RMS(Cart)=  0.00000135 RMS(Int)=  0.00012559
 Iteration  4 RMS(Cart)=  0.00000000 RMS(Int)=  0.00012559
 Variable       Old X    -DE/DX   Delta X   Delta X   Delta X     New X
                                 (Linear)    (Quad)   (Total)
    R1        3.76368  -0.00632   0.00000  -0.04235  -0.04235   3.72134
    R2        2.91385  -0.01046   0.00000  -0.03624  -0.03624   2.87761
    R3        2.06127  -0.00078   0.00000  -0.00220  -0.00220   2.05907
    R4        2.06106   0.00019   0.00000   0.00055   0.00055   2.06161
    R5        2.92110  -0.00468   0.00000  -0.01640  -0.01640   2.90470
    R6        2.06232   0.00188   0.00000   0.00536   0.00536   2.06768
    R7        2.06156   0.00527   0.00000   0.01497   0.01497   2.07653
    R8        2.87423  -0.00404   0.00000  -0.01312  -0.01312   2.86112
    R9        2.06244   0.00312   0.00000   0.00888   0.00888   2.07132
   R10        2.06269   0.00343   0.00000   0.00976   0.00976   2.07245
   R11        2.64461  -0.00203   0.00000  -0.00464  -0.00460   2.64001
   R12        2.64486  -0.00571   0.00000  -0.01095  -0.01092   2.63394
   R13        2.56515  -0.01878   0.00000  -0.03615  -0.03613   2.52902
   R14        2.04087   0.00560   0.00000   0.01535   0.01535   2.05622
   R15        2.56415  -0.01773   0.00000  -0.03397  -0.03400   2.53015
   R16        2.63842  -0.00238   0.00000  -0.00496  -0.00500   2.63342
   R17        2.04198   0.00446   0.00000   0.01224   0.01224   2.05422
   R18        2.63903  -0.00541   0.00000  -0.01000  -0.01002   2.62901
   R19        2.04080   0.00370   0.00000   0.01014   0.01014   2.05094
   R20        2.04087   0.00423   0.00000   0.01159   0.01159   2.05246
    A1        1.94443   0.00492   0.00000   0.01283   0.01285   1.95728
    A2        1.85915  -0.00379   0.00000  -0.02667  -0.02668   1.83248
    A3        1.88903  -0.00443   0.00000  -0.04137  -0.04134   1.84769
    A4        1.93318   0.00126   0.00000   0.01763   0.01734   1.95052
    A5        1.95786  -0.00020   0.00000   0.00245   0.00218   1.96004
    A6        1.87601   0.00186   0.00000   0.03325   0.03276   1.90877
    A7        2.01927  -0.00182   0.00000  -0.01405  -0.01429   2.00498
    A8        1.91714  -0.00005   0.00000  -0.01548  -0.01587   1.90128
    A9        1.87678  -0.00099   0.00000  -0.00501  -0.00485   1.87193
   A10        1.93223  -0.00009   0.00000  -0.01072  -0.01121   1.92102
   A11        1.86928   0.00232   0.00000   0.02617   0.02620   1.89548
   A12        1.83888   0.00093   0.00000   0.02454   0.02455   1.86343
   A13        2.00217   0.00080   0.00000  -0.00110  -0.00122   2.00095
   A14        1.92705  -0.00146   0.00000  -0.02242  -0.02267   1.90438
   A15        1.90688  -0.00339   0.00000  -0.02142  -0.02145   1.88543
   A16        1.91707  -0.00070   0.00000  -0.01124  -0.01155   1.90552
   A17        1.87373   0.00288   0.00000   0.03324   0.03329   1.90702
   A18        1.82804   0.00208   0.00000   0.02711   0.02691   1.85494
   A19        2.10841   0.00025   0.00000   0.00000  -0.00015   2.10826
   A20        2.11351   0.00414   0.00000   0.01527   0.01511   2.12863
   A21        2.06124  -0.00439   0.00000  -0.01508  -0.01509   2.04614
   A22        2.14818   0.00721   0.00000   0.02814   0.02821   2.17639
   A23        2.11123  -0.00385   0.00000  -0.01556  -0.01560   2.09564
   A24        2.02376  -0.00336   0.00000  -0.01259  -0.01262   2.01114
   A25        2.05643  -0.00256   0.00000  -0.01864  -0.01863   2.03780
   A26        2.14429   0.00348   0.00000   0.01264   0.01257   2.15686
   A27        2.02852  -0.00250   0.00000  -0.01092  -0.01092   2.01760
   A28        2.11037  -0.00097   0.00000  -0.00167  -0.00167   2.10870
   A29        2.06920  -0.00095   0.00000  -0.00074  -0.00078   2.06842
   A30        2.10837  -0.00025   0.00000  -0.00400  -0.00398   2.10439
   A31        2.10559   0.00120   0.00000   0.00475   0.00477   2.11036
   A32        2.08702  -0.00279   0.00000  -0.00633  -0.00630   2.08073
   A33        2.10545  -0.00029   0.00000  -0.00708  -0.00709   2.09836
   A34        2.09064   0.00308   0.00000   0.01339   0.01338   2.10401
    D1       -1.39838   0.00164   0.00000   0.05824   0.05817  -1.34021
    D2        0.80453   0.00002   0.00000   0.01902   0.01913   0.82366
    D3        2.79705   0.00056   0.00000   0.03737   0.03736   2.83442
    D4        2.81871   0.00240   0.00000   0.07190   0.07195   2.89065
    D5       -1.26157   0.00078   0.00000   0.03268   0.03291  -1.22866
    D6        0.73095   0.00132   0.00000   0.05104   0.05114   0.78209
    D7        0.72248  -0.00070   0.00000   0.01573   0.01552   0.73801
    D8        2.92539  -0.00232   0.00000  -0.02349  -0.02351   2.90188
    D9       -1.36527  -0.00178   0.00000  -0.00513  -0.00528  -1.37056
   D10        1.23946  -0.00166   0.00000  -0.07221  -0.07203   1.16743
   D11       -0.93777  -0.00015   0.00000  -0.03789  -0.03783  -0.97559
   D12       -2.93930   0.00009   0.00000  -0.04584  -0.04582  -2.98512
   D13       -0.95577  -0.00004   0.00000  -0.03022  -0.03017  -0.98594
   D14       -3.13300   0.00147   0.00000   0.00409   0.00403  -3.12897
   D15        1.14865   0.00171   0.00000  -0.00386  -0.00396   1.14469
   D16       -2.95187  -0.00238   0.00000  -0.06832  -0.06828  -3.02016
   D17        1.15409  -0.00087   0.00000  -0.03401  -0.03408   1.12000
   D18       -0.84745  -0.00062   0.00000  -0.04196  -0.04207  -0.88952
   D19        1.32441  -0.00034   0.00000  -0.01626  -0.01637   1.30805
   D20       -1.82562   0.00019   0.00000   0.01178   0.01188  -1.81374
   D21       -2.77630  -0.00225   0.00000  -0.05630  -0.05642  -2.83273
   D22        0.35684  -0.00172   0.00000  -0.02826  -0.02817   0.32867
   D23       -0.79820   0.00137   0.00000  -0.01252  -0.01261  -0.81081
   D24        2.33495   0.00189   0.00000   0.01551   0.01564   2.35059
   D25        3.13512   0.00076   0.00000   0.03233   0.03218  -3.11589
   D26       -0.01152   0.00073   0.00000   0.03142   0.03126   0.01974
   D27        0.00172   0.00022   0.00000   0.00497   0.00508   0.00680
   D28        3.13827   0.00018   0.00000   0.00406   0.00416  -3.14075
   D29       -3.13803  -0.00061   0.00000  -0.02742  -0.02742   3.11774
   D30        0.01693  -0.00059   0.00000  -0.02681  -0.02679  -0.00986
   D31       -0.00466  -0.00007   0.00000  -0.00006  -0.00006  -0.00472
   D32       -3.13288  -0.00006   0.00000   0.00055   0.00057  -3.13232
   D33        0.00236  -0.00014   0.00000  -0.00414  -0.00423  -0.00187
   D34       -3.13443  -0.00011   0.00000  -0.00326  -0.00333  -3.13776
   D35       -0.00358  -0.00006   0.00000  -0.00163  -0.00167  -0.00525
   D36        3.13342   0.00030   0.00000   0.01093   0.01090  -3.13886
   D37        0.00066   0.00019   0.00000   0.00630   0.00634   0.00700
   D38        3.13509   0.00022   0.00000   0.00728   0.00733  -3.14076
   D39       -3.13613  -0.00019   0.00000  -0.00682  -0.00684   3.14022
   D40       -0.00170  -0.00015   0.00000  -0.00584  -0.00585  -0.00754
   D41        0.00355  -0.00010   0.00000  -0.00520  -0.00515  -0.00160
   D42        3.13189  -0.00014   0.00000  -0.00596  -0.00594   3.12595
   D43       -3.13090  -0.00013   0.00000  -0.00614  -0.00611  -3.13701
   D44       -0.00256  -0.00017   0.00000  -0.00690  -0.00690  -0.00945
         Item               Value     Threshold  Converged?
 Maximum Force            0.018783     0.000450     NO 
 RMS     Force            0.003746     0.000300     NO 
 Maximum Displacement     0.307124     0.001800     NO 
 RMS     Displacement     0.060615     0.001200     NO 
 Predicted change in Energy=-2.687631D-03
 GradGradGradGradGradGradGradGradGradGradGradGradGradGradGradGradGradGrad

                          Input orientation:                          
 ---------------------------------------------------------------------
 Center     Atomic      Atomic             Coordinates (Angstroms)
 Number     Number       Type             X           Y           Z
 ---------------------------------------------------------------------
      1         35           0        3.355777   -2.982861    1.790301
      2          6           0        3.809557   -1.870416    0.230019
      3          6           0        3.060284   -0.544748    0.232857
      4          6           0        1.586491   -0.634082   -0.194494
      5          6           0        0.696412   -1.397002    0.763642
      6          6           0        0.295169   -0.827477    1.974573
      7          7           0       -0.465254   -1.440161    2.889679
      8          6           0       -0.862295   -2.687077    2.606462
      9          6           0       -0.530668   -3.352582    1.427865
     10          6           0        0.262667   -2.693870    0.493955
     11          1           0        4.887691   -1.725112    0.291402
     12          1           0        3.575541   -2.476371   -0.646477
     13          1           0        3.136091   -0.096190    1.227971
     14          1           0        3.585719    0.128094   -0.459009
     15          1           0        1.527848   -1.096805   -1.186400
     16          1           0        1.203692    0.387280   -0.308586
     17          1           0        0.606704    0.182890    2.231620
     18          1           0       -1.481026   -3.165833    3.361206
     19          1           0       -0.880170   -4.364222    1.248057
     20          1           0        0.553068   -3.186654   -0.429344
 ---------------------------------------------------------------------
                    Distance matrix (angstroms):
                    1          2          3          4          5
     1  Br   0.000000
     2  C    1.969246   0.000000
     3  C    2.908151   1.522765   0.000000
     4  C    3.547752   2.578906   1.537099   0.000000
     5  C    3.262085   3.193829   2.568260   1.514038   0.000000
     6  C    3.747927   4.059817   3.280147   2.531751   1.397035
     7  N    4.264837   5.053011   4.504429   3.790982   2.423089
     8  C    4.306476   5.304773   5.060651   4.249317   2.736758
     9  C    3.920779   4.740169   4.712420   3.808497   2.402334
    10  C    3.366209   3.650776   3.537451   2.543462   1.393820
    11  H    2.485033   1.089612   2.176259   3.510607   4.230542
    12  H    2.498543   1.090959   2.184007   2.748570   3.382730
    13  H    2.949126   2.144141   1.094168   2.171173   2.803524
    14  H    3.845817   2.125771   1.098853   2.155874   3.488393
    15  H    3.969796   2.794801   2.160420   1.096098   2.141044
    16  H    4.516043   3.489673   2.146804   1.096692   2.142585
    17  H    4.215939   4.298923   3.247239   2.741068   2.158487
    18  H    5.088799   6.282730   6.105746   5.335018   3.823262
    19  H    4.488366   5.408235   5.580877   4.698863   3.394799
    20  H    3.580997   3.573788   3.701933   2.763827   2.155601
                    6          7          8          9         10
     6  C    0.000000
     7  N    1.338299   0.000000
     8  C    2.279719   1.338900   0.000000
     9  C    2.712389   2.408014   1.393544   0.000000
    10  C    2.382585   2.800205   2.393381   1.391211   0.000000
    11  H    4.972934   5.957034   6.272736   5.770513   4.729733
    12  H    4.511053   5.468652   5.506396   4.683118   3.510417
    13  H    3.027050   4.187746   4.959840   4.908071   3.942498
    14  H    4.202756   5.484844   6.091562   5.711395   4.462544
    15  H    3.403496   4.550249   4.756842   4.020000   2.641002
    16  H    2.741143   4.043986   4.713542   4.473235   3.320104
    17  H    1.088103   2.053395   3.245794   3.799895   3.378401
    18  H    3.247388   2.057200   1.087048   2.162374   3.388856
    19  H    3.797080   3.378936   2.158332   1.085310   2.159820
    20  H    3.378024   3.886274   3.386583   2.156673   1.086116
                   11         12         13         14         15
    11  H    0.000000
    12  H    1.779254   0.000000
    13  H    2.568784   3.061362   0.000000
    14  H    2.385921   2.611223   1.760219   0.000000
    15  H    3.723871   2.527403   3.068691   2.502860   0.000000
    16  H    4.288827   3.733676   2.515734   2.400803   1.754464
    17  H    5.072649   4.916208   2.735506   4.014600   3.764171
    18  H    7.215256   6.488894   5.940636   7.149538   5.832231
    19  H    6.414695   5.196788   5.860619   6.560422   4.732985
    20  H    4.630825   3.112393   4.355418   4.492817   2.427097
                   16         17         18         19         20
    16  H    0.000000
    17  H    2.617406   0.000000
    18  H    5.770589   4.104696   0.000000
    19  H    5.416862   4.884099   2.502511   0.000000
    20  H    3.634680   4.293883   4.301888   2.500902   0.000000
 Stoichiometry    C8H10BrN
 Framework group  C1[X(C8H10BrN)]
 Deg. of freedom    54
 Full point group                 C1      NOp   1
 Largest Abelian subgroup         C1      NOp   1
 Largest concise Abelian subgroup C1      NOp   1
                         Standard orientation:                         
 ---------------------------------------------------------------------
 Center     Atomic      Atomic             Coordinates (Angstroms)
 Number     Number       Type             X           Y           Z
 ---------------------------------------------------------------------
      1         35           0       -1.443654   -1.097795   -0.158865
      2          6           0       -2.179911    0.663759    0.323610
      3          6           0       -1.401203    1.805840   -0.315200
      4          6           0       -0.056233    2.126523    0.356284
      5          6           0        0.990111    1.040186    0.224567
      6          6           0        1.659664    0.834847   -0.984251
      7          7           0        2.575513   -0.117834   -1.195592
      8          6           0        2.859192   -0.921053   -0.162628
      9          6           0        2.261133   -0.805213    1.090717
     10          6           0        1.310759    0.192353    1.283386
     11          1           0       -3.214490    0.639886   -0.017463
     12          1           0       -2.159247    0.707280    1.413505
     13          1           0       -1.247650    1.581701   -1.375099
     14          1           0       -2.037964    2.700217   -0.269343
     15          1           0       -0.226359    2.335679    1.418706
     16          1           0        0.329070    3.055058   -0.082006
     17          1           0        1.445612    1.470655   -1.840930
     18          1           0        3.607241   -1.686166   -0.354198
     19          1           0        2.528656   -1.483268    1.894813
     20          1           0        0.813361    0.303171    2.242533
 ---------------------------------------------------------------------
 Rotational constants (GHZ):           1.4321990           0.7231994           0.5806097
 Standard basis: 6-31G(d,p) (6D, 7F)
 There are   215 symmetry adapted cartesian basis functions of A   symmetry.
 There are   215 symmetry adapted basis functions of A   symmetry.
   215 basis functions,   405 primitive gaussians,   215 cartesian basis functions
    50 alpha electrons       50 beta electrons
       nuclear repulsion energy       768.1996506806 Hartrees.
 NAtoms=   20 NActive=   20 NUniq=   20 SFac= 1.00D+00 NAtFMM=   60 NAOKFM=F Big=F
 Integral buffers will be    131072 words long.
 Raffenetti 2 integral format.
 Two-electron integral symmetry is turned on.
 Nuclear repulsion after empirical dispersion term =      768.1580660573 Hartrees.
 One-electron integrals computed using PRISM.
 NBasis=   215 RedAO= T EigKep=  7.22D-04  NBF=   215
 NBsUse=   215 1.00D-06 EigRej= -1.00D+00 NBFU=   215
 Initial guess from the checkpoint file:  "pyrd10_conf-13.chk"
 B after Tr=     0.000000   -0.000000    0.000000
         Rot=    0.999741    0.004695    0.000705   -0.022267 Ang=   2.61 deg.
 ExpMin= 1.43D-01 ExpMax= 5.74D+05 ExpMxC= 5.74D+03 IAcc=3 IRadAn=         5 AccDes= 0.00D+00
 Harris functional with IExCor=  402 and IRadAn=       5 diagonalized for initial guess.
 HarFok:  IExCor=  402 AccDes= 0.00D+00 IRadAn=         5 IDoV= 1 UseB2=F ITyADJ=14
 ICtDFT=  3500011 ScaDFX=  1.000000  1.000000  1.000000  1.000000
 FoFCou: FMM=F IPFlag=           0 FMFlag=      100000 FMFlg1=           0
         NFxFlg=           0 DoJE=T BraDBF=F KetDBF=T FulRan=T
         wScrn=  0.000000 ICntrl=       500 IOpCl=  0 I1Cent=   200000004 NGrid=           0
         NMat0=    1 NMatS0=      1 NMatT0=    0 NMatD0=    1 NMtDS0=    0 NMtDT0=    0
 Petite list used in FoFCou.
 Requested convergence on RMS density matrix=1.00D-08 within 128 cycles.
 Requested convergence on MAX density matrix=1.00D-06.
 Requested convergence on             energy=1.00D-06.
 No special actions if energy rises.
 Integral accuracy reduced to 1.0D-05 until final iterations.
 Initial convergence to 1.0D-05 achieved.  Increase integral accuracy.
 SCF Done:  E(RB3LYP) =  -2937.38565928     A.U. after   12 cycles
            NFock= 12  Conv=0.51D-08     -V/T= 2.0066
 Calling FoFJK, ICntrl=      2127 FMM=F ISym2X=0 I1Cent= 0 IOpClX= 0 NMat=1 NMatS=1 NMatT=0.
 ***** Axes restored to original set *****
 -------------------------------------------------------------------
 Center     Atomic                   Forces (Hartrees/Bohr)
 Number     Number              X              Y              Z
 -------------------------------------------------------------------
      1       35           0.002103644   -0.003192883    0.003341022
      2        6           0.000540817    0.002484120   -0.001861494
      3        6           0.001383344   -0.000528476    0.000088974
      4        6          -0.002890759    0.000200482    0.001065826
      5        6           0.001268312    0.002437839   -0.003691784
      6        6          -0.001532886    0.000018831    0.003837926
      7        7           0.001797402   -0.000007073   -0.003172695
      8        6          -0.000721065    0.000249692    0.001703214
      9        6          -0.000120056   -0.000850166   -0.000736933
     10        6          -0.002139126   -0.000589607    0.000262672
     11        1          -0.000421496   -0.000263222    0.000308500
     12        1           0.000170106   -0.000131000    0.000073973
     13        1           0.000296291    0.000755754    0.000217586
     14        1          -0.000439949   -0.000450388   -0.000314202
     15        1           0.000306834   -0.000142686   -0.000389826
     16        1           0.000117216   -0.000219428    0.000336027
     17        1           0.000755444    0.001372268   -0.001075985
     18        1          -0.000327532   -0.001411921   -0.000065100
     19        1          -0.000179249    0.000156123    0.000440660
     20        1           0.000032709    0.000111742   -0.000368360
 -------------------------------------------------------------------
 Cartesian Forces:  Max     0.003837926 RMS     0.001395890

 GradGradGradGradGradGradGradGradGradGradGradGradGradGradGradGradGradGrad
 Berny optimization.
 Using GEDIIS/GDIIS optimizer.
 FormGI is forming the generalized inverse of G from B-inverse, IUseBI=4.
 Internal  Forces:  Max     0.007503927 RMS     0.001683773
 Search for a local minimum.
 Step number   2 out of a maximum of  108
 All quantities printed in internal units (Hartrees-Bohrs-Radians)
 Mixed Optimization -- RFO/linear search
 Update second derivatives using D2CorX and points    1    2
 DE= -2.23D-03 DEPred=-2.69D-03 R= 8.30D-01
 TightC=F SS=  1.41D+00  RLast= 2.44D-01 DXNew= 5.0454D-01 7.3242D-01
 Trust test= 8.30D-01 RLast= 2.44D-01 DXMaxT set to 5.05D-01
 ITU=  1  0
 Use linear search instead of GDIIS.
     Eigenvalues ---    0.00225   0.00252   0.00478   0.01435   0.02079
     Eigenvalues ---    0.02115   0.02136   0.02138   0.02145   0.02180
     Eigenvalues ---    0.02228   0.03354   0.03856   0.04767   0.05257
     Eigenvalues ---    0.05331   0.05830   0.08625   0.09411   0.12475
     Eigenvalues ---    0.12850   0.14786   0.15718   0.15999   0.16000
     Eigenvalues ---    0.16000   0.16000   0.16176   0.18894   0.21986
     Eigenvalues ---    0.22005   0.22309   0.23380   0.24772   0.25092
     Eigenvalues ---    0.28008   0.30070   0.31123   0.34597   0.34653
     Eigenvalues ---    0.34661   0.34714   0.34736   0.35045   0.35763
     Eigenvalues ---    0.35950   0.35998   0.36197   0.42016   0.43615
     Eigenvalues ---    0.45885   0.46207   0.51476   0.53538
 RFO step:  Lambda=-2.17677737D-03 EMin= 2.25266165D-03
 Quartic linear search produced a step of -0.12014.
 Iteration  1 RMS(Cart)=  0.11124736 RMS(Int)=  0.00629779
 Iteration  2 RMS(Cart)=  0.00693106 RMS(Int)=  0.00007249
 Iteration  3 RMS(Cart)=  0.00002827 RMS(Int)=  0.00007013
 Iteration  4 RMS(Cart)=  0.00000000 RMS(Int)=  0.00007013
 Variable       Old X    -DE/DX   Delta X   Delta X   Delta X     New X
                                 (Linear)    (Quad)   (Total)
    R1        3.72134   0.00397   0.00509  -0.00034   0.00475   3.72609
    R2        2.87761   0.00214   0.00435  -0.01410  -0.00975   2.86786
    R3        2.05907  -0.00044   0.00026  -0.00235  -0.00209   2.05698
    R4        2.06161  -0.00002  -0.00007   0.00026   0.00019   2.06180
    R5        2.90470   0.00392   0.00197   0.00285   0.00483   2.90952
    R6        2.06768   0.00053  -0.00064   0.00439   0.00374   2.07142
    R7        2.07653  -0.00029  -0.00180   0.00781   0.00602   2.08255
    R8        2.86112  -0.00188   0.00158  -0.01290  -0.01132   2.84980
    R9        2.07132   0.00040  -0.00107   0.00607   0.00500   2.07633
   R10        2.07245  -0.00028  -0.00117   0.00486   0.00369   2.07614
   R11        2.64001   0.00101   0.00055  -0.00069  -0.00014   2.63987
   R12        2.63394   0.00190   0.00131  -0.00254  -0.00124   2.63270
   R13        2.52902  -0.00108   0.00434  -0.02241  -0.01807   2.51095
   R14        2.05622   0.00124  -0.00184   0.01176   0.00992   2.06613
   R15        2.53015   0.00106   0.00408  -0.01769  -0.01360   2.51655
   R16        2.63342   0.00015   0.00060  -0.00258  -0.00197   2.63144
   R17        2.05422   0.00076  -0.00147   0.00884   0.00737   2.06159
   R18        2.62901   0.00044   0.00120  -0.00485  -0.00364   2.62537
   R19        2.05094  -0.00016  -0.00122   0.00539   0.00418   2.05511
   R20        2.05246   0.00027  -0.00139   0.00727   0.00588   2.05834
    A1        1.95728   0.00657  -0.00154   0.03474   0.03313   1.99041
    A2        1.83248  -0.00351   0.00320  -0.03820  -0.03485   1.79762
    A3        1.84769  -0.00164   0.00497  -0.01580  -0.01107   1.83662
    A4        1.95052  -0.00139  -0.00208  -0.00281  -0.00479   1.94574
    A5        1.96004  -0.00037  -0.00026   0.00521   0.00485   1.96489
    A6        1.90877   0.00009  -0.00394   0.01368   0.00980   1.91857
    A7        2.00498   0.00750   0.00172   0.02477   0.02645   2.03143
    A8        1.90128  -0.00225   0.00191  -0.00433  -0.00268   1.89859
    A9        1.87193  -0.00218   0.00058  -0.02095  -0.02026   1.85167
   A10        1.92102  -0.00124   0.00135   0.00398   0.00519   1.92622
   A11        1.89548  -0.00335  -0.00315  -0.01273  -0.01568   1.87980
   A12        1.86343   0.00111  -0.00295   0.00767   0.00469   1.86812
   A13        2.00095   0.00554   0.00015   0.02279   0.02302   2.02397
   A14        1.90438  -0.00120   0.00272  -0.01216  -0.00947   1.89491
   A15        1.88543  -0.00224   0.00258  -0.02660  -0.02409   1.86134
   A16        1.90552  -0.00159   0.00139  -0.00657  -0.00509   1.90042
   A17        1.90702  -0.00165  -0.00400   0.00903   0.00518   1.91220
   A18        1.85494   0.00084  -0.00323   0.01295   0.00959   1.86453
   A19        2.10826  -0.00048   0.00002  -0.00185  -0.00180   2.10646
   A20        2.12863   0.00098  -0.00182   0.01192   0.01014   2.13877
   A21        2.04614  -0.00049   0.00181  -0.01014  -0.00836   2.03778
   A22        2.17639  -0.00093  -0.00339   0.01249   0.00906   2.18545
   A23        2.09564  -0.00097   0.00187  -0.01489  -0.01300   2.08264
   A24        2.01114   0.00190   0.00152   0.00240   0.00393   2.01507
   A25        2.03780   0.00197   0.00224  -0.00384  -0.00163   2.03617
   A26        2.15686  -0.00093  -0.00151   0.00346   0.00193   2.15879
   A27        2.01760   0.00171   0.00131   0.00236   0.00367   2.02126
   A28        2.10870  -0.00078   0.00020  -0.00588  -0.00568   2.10302
   A29        2.06842  -0.00028   0.00009  -0.00143  -0.00136   2.06706
   A30        2.10439  -0.00034   0.00048  -0.00442  -0.00394   2.10046
   A31        2.11036   0.00063  -0.00057   0.00584   0.00528   2.11564
   A32        2.08073   0.00067   0.00076  -0.00068   0.00004   2.08077
   A33        2.09836  -0.00055   0.00085  -0.00668  -0.00581   2.09255
   A34        2.10401  -0.00012  -0.00161   0.00731   0.00572   2.10973
    D1       -1.34021  -0.00278  -0.00699  -0.13810  -0.14522  -1.48543
    D2        0.82366  -0.00074  -0.00230  -0.11829  -0.12071   0.70296
    D3        2.83442  -0.00172  -0.00449  -0.12250  -0.12703   2.70739
    D4        2.89065  -0.00176  -0.00864  -0.11086  -0.11952   2.77113
    D5       -1.22866   0.00028  -0.00395  -0.09105  -0.09500  -1.32366
    D6        0.78209  -0.00071  -0.00614  -0.09526  -0.10132   0.68077
    D7        0.73801  -0.00056  -0.00186  -0.13061  -0.13243   0.60557
    D8        2.90188   0.00148   0.00283  -0.11080  -0.10792   2.79396
    D9       -1.37056   0.00050   0.00063  -0.11501  -0.11424  -1.48479
   D10        1.16743   0.00087   0.00865  -0.03254  -0.02379   1.14365
   D11       -0.97559  -0.00005   0.00454  -0.03073  -0.02605  -1.00165
   D12       -2.98512   0.00079   0.00550  -0.02542  -0.01994  -3.00506
   D13       -0.98594  -0.00074   0.00362  -0.04835  -0.04476  -1.03070
   D14       -3.12897  -0.00165  -0.00048  -0.04654  -0.04702   3.10719
   D15        1.14469  -0.00081   0.00048  -0.04123  -0.04092   1.10377
   D16       -3.02016   0.00055   0.00820  -0.05245  -0.04422  -3.06438
   D17        1.12000  -0.00036   0.00409  -0.05064  -0.04649   1.07351
   D18       -0.88952   0.00048   0.00505  -0.04533  -0.04038  -0.92990
   D19        1.30805  -0.00104   0.00197  -0.09581  -0.09381   1.21424
   D20       -1.81374  -0.00126  -0.00143  -0.09143  -0.09283  -1.90657
   D21       -2.83273   0.00009   0.00678  -0.10063  -0.09383  -2.92655
   D22        0.32867  -0.00013   0.00338  -0.09625  -0.09284   0.23583
   D23       -0.81081  -0.00072   0.00152  -0.08377  -0.08231  -0.89312
   D24        2.35059  -0.00094  -0.00188  -0.07939  -0.08133   2.26926
   D25       -3.11589   0.00018  -0.00387   0.02382   0.02001  -3.09588
   D26        0.01974   0.00015  -0.00376   0.02167   0.01794   0.03768
   D27        0.00680   0.00041  -0.00061   0.01988   0.01928   0.02608
   D28       -3.14075   0.00037  -0.00050   0.01773   0.01721  -3.12354
   D29        3.11774  -0.00013   0.00329  -0.01848  -0.01515   3.10259
   D30       -0.00986  -0.00005   0.00322  -0.01483  -0.01158  -0.02144
   D31       -0.00472  -0.00034   0.00001  -0.01433  -0.01426  -0.01898
   D32       -3.13232  -0.00026  -0.00007  -0.01068  -0.01070   3.14017
   D33       -0.00187  -0.00015   0.00051  -0.00874  -0.00826  -0.01013
   D34       -3.13776  -0.00011   0.00040  -0.00662  -0.00621   3.13922
   D35       -0.00525  -0.00018   0.00020  -0.00799  -0.00783  -0.01307
   D36       -3.13886  -0.00012  -0.00131   0.00155   0.00026  -3.13860
   D37        0.00700   0.00022  -0.00076   0.01241   0.01165   0.01865
   D38       -3.14076   0.00013  -0.00088   0.00985   0.00901  -3.13175
   D39        3.14022   0.00018   0.00082   0.00243   0.00324  -3.13973
   D40       -0.00754   0.00009   0.00070  -0.00013   0.00060  -0.00694
   D41       -0.00160   0.00005   0.00062  -0.00034   0.00034  -0.00127
   D42        3.12595  -0.00004   0.00071  -0.00412  -0.00336   3.12259
   D43       -3.13701   0.00014   0.00073   0.00226   0.00303  -3.13397
   D44       -0.00945   0.00006   0.00083  -0.00152  -0.00066  -0.01012
         Item               Value     Threshold  Converged?
 Maximum Force            0.007504     0.000450     NO 
 RMS     Force            0.001684     0.000300     NO 
 Maximum Displacement     0.580791     0.001800     NO 
 RMS     Displacement     0.112079     0.001200     NO 
 Predicted change in Energy=-1.351628D-03
 GradGradGradGradGradGradGradGradGradGradGradGradGradGradGradGradGradGrad

                          Input orientation:                          
 ---------------------------------------------------------------------
 Center     Atomic      Atomic             Coordinates (Angstroms)
 Number     Number       Type             X           Y           Z
 ---------------------------------------------------------------------
      1         35           0        3.663119   -2.817583    1.983778
      2          6           0        3.846131   -1.836288    0.283364
      3          6           0        3.053415   -0.543392    0.227217
      4          6           0        1.578791   -0.662700   -0.199142
      5          6           0        0.678053   -1.420109    0.743836
      6          6           0        0.342081   -0.887658    1.990879
      7          7           0       -0.401001   -1.496356    2.908950
      8          6           0       -0.864573   -2.705209    2.597172
      9          6           0       -0.623416   -3.334279    1.378496
     10          6           0        0.162051   -2.677831    0.439227
     11          1           0        4.916886   -1.650349    0.222058
     12          1           0        3.546920   -2.545093   -0.490251
     13          1           0        3.130308   -0.039846    1.197820
     14          1           0        3.564688    0.096650   -0.509960
     15          1           0        1.538063   -1.138263   -1.188798
     16          1           0        1.203074    0.362240   -0.323043
     17          1           0        0.710267    0.104273    2.266428
     18          1           0       -1.475253   -3.190924    3.359616
     19          1           0       -1.036876   -4.319872    1.177605
     20          1           0        0.390574   -3.140610   -0.519954
 ---------------------------------------------------------------------
                    Distance matrix (angstroms):
                    1          2          3          4          5
     1  Br   0.000000
     2  C    1.971761   0.000000
     3  C    2.937549   1.517607   0.000000
     4  C    3.708514   2.598259   1.539652   0.000000
     5  C    3.521506   3.228305   2.584158   1.508047   0.000000
     6  C    3.841087   4.011716   3.252746   2.525124   1.396960
     7  N    4.372488   5.004736   4.475804   3.778200   2.420308
     8  C    4.570435   5.319724   5.063672   4.238071   2.732404
     9  C    4.359785   4.839436   4.757477   3.804733   2.400138
    10  C    3.829183   3.782186   3.600106   2.544685   1.393165
    11  H    2.457240   1.088508   2.167466   3.506528   4.277028
    12  H    2.491700   1.091060   2.182914   2.738919   3.319481
    13  H    2.935548   2.139120   1.096148   2.178681   2.850400
    14  H    3.836818   2.108275   1.102036   2.148722   3.493598
    15  H    4.171476   2.825186   2.157605   1.098744   2.134041
    16  H    4.635140   3.490989   2.132303   1.098644   2.142579
    17  H    4.163708   4.187118   3.173042   2.724265   2.154777
    18  H    5.332464   6.294083   6.109843   5.327650   3.822933
    19  H    4.999674   5.550821   5.647612   4.702346   3.396728
    20  H    4.133106   3.779874   3.794012   2.766735   2.154051
                    6          7          8          9         10
     6  C    0.000000
     7  N    1.328736   0.000000
     8  C    2.264310   1.331702   0.000000
     9  C    2.700584   2.402024   1.392500   0.000000
    10  C    2.375869   2.795075   2.389861   1.389284   0.000000
    11  H    4.963796   5.960120   6.338704   5.904907   4.869429
    12  H    4.378823   5.314179   5.386937   4.637536   3.512675
    13  H    3.020254   4.185634   5.002142   4.997637   4.042892
    14  H    4.196219   5.472962   6.092868   5.733913   4.491842
    15  H    3.406394   4.547498   4.749900   4.010671   2.629476
    16  H    2.767271   4.058721   4.712968   4.460444   3.302547
    17  H    1.093350   2.051771   3.237700   3.793517   3.373323
    18  H    3.237465   2.056375   1.090949   2.161252   3.387137
    19  H    3.787219   3.372556   2.156848   1.087520   2.163083
    20  H    3.373785   3.884269   3.388428   2.160971   1.089227
                   11         12         13         14         15
    11  H    0.000000
    12  H    1.784589   0.000000
    13  H    2.595706   3.049493   0.000000
    14  H    2.327294   2.641876   1.767436   0.000000
    15  H    3.697187   2.550028   3.072085   2.468408   0.000000
    16  H    4.259114   3.738203   2.487756   2.383841   1.764443
    17  H    4.995377   4.760779   2.649395   3.981973   3.764004
    18  H    7.285402   6.360880   5.984467   7.154213   5.829370
    19  H    6.594445   5.190643   5.973646   6.597571   4.727876
    20  H    4.822754   3.212171   4.480137   4.533757   2.402807
                   16         17         18         19         20
    16  H    0.000000
    17  H    2.648541   0.000000
    18  H    5.775845   4.102423   0.000000
    19  H    5.402915   4.879662   2.495570   0.000000
    20  H    3.601235   4.288985   4.305218   2.511967   0.000000
 Stoichiometry    C8H10BrN
 Framework group  C1[X(C8H10BrN)]
 Deg. of freedom    54
 Full point group                 C1      NOp   1
 Largest Abelian subgroup         C1      NOp   1
 Largest concise Abelian subgroup C1      NOp   1
                         Standard orientation:                         
 ---------------------------------------------------------------------
 Center     Atomic      Atomic             Coordinates (Angstroms)
 Number     Number       Type             X           Y           Z
 ---------------------------------------------------------------------
      1         35           0       -1.692581   -1.039468   -0.066302
      2          6           0       -2.044178    0.839780    0.416030
      3          6           0       -1.233211    1.844816   -0.381070
      4          6           0        0.180500    2.154312    0.144441
      5          6           0        1.164440    1.012174    0.104573
      6          6           0        1.651671    0.532991   -1.113821
      7          7           0        2.479633   -0.496419   -1.256421
      8          6           0        2.876826   -1.103062   -0.139437
      9          6           0        2.484750   -0.706178    1.136421
     10          6           0        1.613393    0.369242    1.256089
     11          1           0       -3.110398    0.946293    0.224513
     12          1           0       -1.850962    0.901515    1.488069
     13          1           0       -1.188046    1.513374   -1.424933
     14          1           0       -1.809711    2.783899   -0.365155
     15          1           0        0.097903    2.516659    1.178423
     16          1           0        0.563391    2.990810   -0.456128
     17          1           0        1.340104    1.017679   -2.043024
     18          1           0        3.558498   -1.944368   -0.272465
     19          1           0        2.849888   -1.236025    2.013140
     20          1           0        1.267094    0.702039    2.233708
 ---------------------------------------------------------------------
 Rotational constants (GHZ):           1.4153150           0.6531042           0.5377638
 Standard basis: 6-31G(d,p) (6D, 7F)
 There are   215 symmetry adapted cartesian basis functions of A   symmetry.
 There are   215 symmetry adapted basis functions of A   symmetry.
   215 basis functions,   405 primitive gaussians,   215 cartesian basis functions
    50 alpha electrons       50 beta electrons
       nuclear repulsion energy       752.7482555913 Hartrees.
 NAtoms=   20 NActive=   20 NUniq=   20 SFac= 1.00D+00 NAtFMM=   60 NAOKFM=F Big=F
 Integral buffers will be    131072 words long.
 Raffenetti 2 integral format.
 Two-electron integral symmetry is turned on.
 Nuclear repulsion after empirical dispersion term =      752.7080508716 Hartrees.
 One-electron integrals computed using PRISM.
 NBasis=   215 RedAO= T EigKep=  7.21D-04  NBF=   215
 NBsUse=   215 1.00D-06 EigRej= -1.00D+00 NBFU=   215
 Initial guess from the checkpoint file:  "pyrd10_conf-13.chk"
 B after Tr=    -0.000000   -0.000000   -0.000000
         Rot=    0.997688    0.052059   -0.022463    0.037470 Ang=   7.79 deg.
 ExpMin= 1.43D-01 ExpMax= 5.74D+05 ExpMxC= 5.74D+03 IAcc=3 IRadAn=         5 AccDes= 0.00D+00
 Harris functional with IExCor=  402 and IRadAn=       5 diagonalized for initial guess.
 HarFok:  IExCor=  402 AccDes= 0.00D+00 IRadAn=         5 IDoV= 1 UseB2=F ITyADJ=14
 ICtDFT=  3500011 ScaDFX=  1.000000  1.000000  1.000000  1.000000
 FoFCou: FMM=F IPFlag=           0 FMFlag=      100000 FMFlg1=           0
         NFxFlg=           0 DoJE=T BraDBF=F KetDBF=T FulRan=T
         wScrn=  0.000000 ICntrl=       500 IOpCl=  0 I1Cent=   200000004 NGrid=           0
         NMat0=    1 NMatS0=      1 NMatT0=    0 NMatD0=    1 NMtDS0=    0 NMtDT0=    0
 Petite list used in FoFCou.
 Requested convergence on RMS density matrix=1.00D-08 within 128 cycles.
 Requested convergence on MAX density matrix=1.00D-06.
 Requested convergence on             energy=1.00D-06.
 No special actions if energy rises.
 Integral accuracy reduced to 1.0D-05 until final iterations.
 Initial convergence to 1.0D-05 achieved.  Increase integral accuracy.
 SCF Done:  E(RB3LYP) =  -2937.38475207     A.U. after   14 cycles
            NFock= 14  Conv=0.40D-08     -V/T= 2.0066
 Calling FoFJK, ICntrl=      2127 FMM=F ISym2X=0 I1Cent= 0 IOpClX= 0 NMat=1 NMatS=1 NMatT=0.
 ***** Axes restored to original set *****
 -------------------------------------------------------------------
 Center     Atomic                   Forces (Hartrees/Bohr)
 Number     Number              X              Y              Z
 -------------------------------------------------------------------
      1       35          -0.004649498   -0.000926602    0.002638049
      2        6           0.001968672   -0.002892323   -0.001776278
      3        6           0.001133283    0.002834631    0.001188287
      4        6          -0.000160345    0.000740648   -0.002928506
      5        6           0.002788635   -0.000088908    0.000401141
      6        6           0.005894923    0.009926054    0.001187971
      7        7          -0.000560158    0.002437462    0.002404026
      8        6          -0.006511471   -0.007765016    0.003033595
      9        6          -0.001778253   -0.003878261    0.000435586
     10        6           0.003258159   -0.001530343   -0.003675812
     11        1          -0.000123428    0.000183202   -0.001929045
     12        1           0.001005043    0.000434303   -0.000420754
     13        1           0.000087592    0.000864626   -0.001490061
     14        1          -0.001949965   -0.000120229    0.001927700
     15        1          -0.000215757    0.001476158    0.000689153
     16        1          -0.000882421   -0.001748539   -0.000624926
     17        1          -0.000210114   -0.001585363   -0.001045871
     18        1           0.001130407   -0.000305220   -0.001584754
     19        1           0.000575469    0.001575358    0.000296046
     20        1          -0.000800773    0.000368361    0.001274453
 -------------------------------------------------------------------
 Cartesian Forces:  Max     0.009926054 RMS     0.002619026

 GradGradGradGradGradGradGradGradGradGradGradGradGradGradGradGradGradGrad
 Berny optimization.
 Using GEDIIS/GDIIS optimizer.
 FormGI is forming the generalized inverse of G from B-inverse, IUseBI=4.
 Internal  Forces:  Max     0.010559367 RMS     0.002636392
 Search for a local minimum.
 Step number   3 out of a maximum of  108
 All quantities printed in internal units (Hartrees-Bohrs-Radians)
 Mixed Optimization -- RFO/linear search
 Update second derivatives using D2CorX and points    1    3    2
[...]
   XZ=     1.5596   YZ=     2.5073   ZZ=    31.6705
   Eigenvalues:    25.6368    28.5217    34.1586
     16  H    Isotropic =    28.5995   Anisotropy =     8.3433
   XX=    27.3276   YX=     3.1026   ZX=    -1.3100
   XY=     1.4718   YY=    32.1878   ZY=    -3.1833
   XZ=    -1.4457   YZ=    -1.9559   ZZ=    26.2831
   Eigenvalues:    25.1413    26.4955    34.1617
     17  H    Isotropic =    22.3425   Anisotropy =    10.0672
   XX=    22.9920   YX=    -1.5766   ZX=    -5.3275
   XY=    -1.6777   YY=    20.8991   ZY=     2.3097
   XZ=    -4.6060   YZ=     2.5777   ZZ=    23.1364
   Eigenvalues:    17.9511    20.0224    29.0540
     18  H    Isotropic =    22.4252   Anisotropy =     6.6667
   XX=    21.1169   YX=    -0.7795   ZX=    -1.6825
   XY=    -0.7860   YY=    19.6821   ZY=     0.4558
   XZ=    -1.2340   YZ=    -0.0383   ZZ=    26.4766
   Eigenvalues:    19.3125    21.0934    26.8696
     19  H    Isotropic =    24.0348   Anisotropy =     6.2812
   XX=    25.2194   YX=    -2.9743   ZX=    -0.6543
   XY=    -2.5600   YY=    24.0466   ZY=     1.7516
   XZ=    -1.3482   YZ=     2.1338   ZZ=    22.8385
   Eigenvalues:    21.1046    22.7777    28.2223
     20  H    Isotropic =    23.7299   Anisotropy =     8.1887
   XX=    24.2140   YX=    -2.4486   ZX=     4.2369
   XY=    -2.3046   YY=    24.5987   ZY=    -1.8116
   XZ=     3.4583   YZ=    -1.7938   ZZ=    22.3770
   Eigenvalues:    19.3390    22.6617    29.1890
 End of Minotr F.D. properties file   721 does not exist.
 End of Minotr F.D. properties file   722 does not exist.
 End of Minotr F.D. properties file   788 does not exist.

 **********************************************************************

            Population analysis using the SCF Density.

 **********************************************************************

 Orbital symmetries:
       Occupied  (A) (A) (A) (A) (A) (A) (A) (A) (A) (A) (A) (A)
                 (A) (A) (A) (A) (A) (A) (A) (A) (A) (A) (A) (A)
                 (A) (A) (A) (A) (A) (A) (A) (A) (A) (A) (A) (A)
                 (A) (A) (A) (A) (A) (A) (A) (A) (A) (A) (A) (A)
                 (A) (A)
       Virtual   (A) (A) (A) (A) (A) (A) (A) (A) (A) (A) (A) (A)
                 (A) (A) (A) (A) (A) (A) (A) (A) (A) (A) (A) (A)
                 (A) (A) (A) (A) (A) (A) (A) (A) (A) (A) (A) (A)
                 (A) (A) (A) (A) (A) (A) (A) (A) (A) (A) (A) (A)
                 (A) (A) (A) (A) (A) (A) (A) (A) (A) (A) (A) (A)
                 (A) (A) (A) (A) (A) (A) (A) (A) (A) (A) (A) (A)
                 (A) (A) (A) (A) (A) (A) (A) (A) (A) (A) (A) (A)
                 (A) (A) (A) (A) (A) (A) (A) (A) (A) (A) (A) (A)
                 (A) (A) (A) (A) (A) (A) (A) (A) (A) (A) (A) (A)
                 (A) (A) (A) (A) (A) (A) (A) (A) (A) (A) (A) (A)
                 (A) (A) (A) (A) (A) (A) (A) (A) (A) (A) (A) (A)
                 (A) (A) (A) (A) (A) (A) (A) (A) (A) (A) (A) (A)
                 (A) (A) (A) (A) (A) (A) (A) (A) (A) (A) (A) (A)
                 (A) (A) (A) (A) (A) (A) (A) (A) (A) (A) (A) (A)
                 (A) (A) (A) (A) (A) (A) (A) (A) (A) (A) (A) (A)
                 (A) (A) (A) (A) (A) (A) (A) (A) (A) (A) (A) (A)
                 (A) (A) (A) (A) (A) (A) (A) (A) (A) (A) (A) (A)
                 (A) (A) (A) (A) (A) (A) (A) (A) (A) (A) (A) (A)
                 (A) (A) (A) (A) (A) (A) (A) (A) (A) (A) (A) (A)
                 (A) (A) (A) (A) (A) (A) (A) (A) (A) (A) (A) (A)
                 (A) (A) (A) (A) (A) (A) (A) (A) (A) (A) (A) (A)
                 (A) (A) (A) (A) (A) (A) (A) (A) (A) (A) (A) (A)
                 (A) (A) (A) (A) (A) (A) (A) (A) (A) (A) (A) (A)
                 (A) (A) (A) (A) (A) (A) (A) (A) (A) (A) (A) (A)
                 (A) (A) (A) (A) (A) (A) (A) (A) (A) (A) (A) (A)
                 (A) (A) (A) (A) (A) (A) (A) (A) (A) (A) (A) (A)
                 (A) (A) (A) (A) (A) (A) (A) (A) (A) (A) (A) (A)
                 (A) (A) (A) (A) (A) (A) (A) (A) (A) (A) (A) (A)
                 (A)
 The electronic state is 1-A.
 Alpha  occ. eigenvalues -- -485.35712 -63.34203 -57.16149 -57.15910 -57.15903
 Alpha  occ. eigenvalues --  -14.74565 -10.60055 -10.57188 -10.57155 -10.56043
 Alpha  occ. eigenvalues --  -10.55723 -10.55653 -10.55612 -10.54833  -9.00831
 Alpha  occ. eigenvalues --   -6.83237  -6.82363  -6.82339  -2.86603  -2.86297
 Alpha  occ. eigenvalues --   -2.86274  -2.85457  -2.85457  -1.04827  -0.94015
 Alpha  occ. eigenvalues --   -0.90257  -0.87323  -0.83669  -0.77177  -0.71644
 Alpha  occ. eigenvalues --   -0.70430  -0.67077  -0.59647  -0.56419  -0.54967
 Alpha  occ. eigenvalues --   -0.54141  -0.51543  -0.49331  -0.47355  -0.47029
 Alpha  occ. eigenvalues --   -0.46590  -0.44087  -0.43558  -0.41357  -0.39932
 Alpha  occ. eigenvalues --   -0.35060  -0.33699  -0.32550  -0.32078  -0.30025
 Alpha virt. eigenvalues --    0.00406   0.01339   0.02918   0.06008   0.07901
 Alpha virt. eigenvalues --    0.09287   0.10000   0.11225   0.11857   0.13085
 Alpha virt. eigenvalues --    0.13943   0.14428   0.15471   0.15782   0.17279
 Alpha virt. eigenvalues --    0.18974   0.20281   0.21335   0.21678   0.22197
 Alpha virt. eigenvalues --    0.23542   0.23730   0.24481   0.25797   0.26989
 Alpha virt. eigenvalues --    0.27818   0.28086   0.29167   0.30335   0.30502
 Alpha virt. eigenvalues --    0.31364   0.32020   0.32992   0.34467   0.34553
 Alpha virt. eigenvalues --    0.36725   0.36939   0.37720   0.39133   0.39525
 Alpha virt. eigenvalues --    0.40599   0.40915   0.41089   0.42056   0.43281
 Alpha virt. eigenvalues --    0.44657   0.44728   0.45796   0.46429   0.46898
 Alpha virt. eigenvalues --    0.47588   0.48221   0.48804   0.49159   0.49941
 Alpha virt. eigenvalues --    0.50451   0.51518   0.51954   0.53111   0.54515
 Alpha virt. eigenvalues --    0.55126   0.58225   0.59080   0.60236   0.60854
 Alpha virt. eigenvalues --    0.62289   0.63676   0.64940   0.65677   0.67813
 Alpha virt. eigenvalues --    0.68690   0.70042   0.71541   0.73659   0.73871
 Alpha virt. eigenvalues --    0.78062   0.79526   0.80481   0.80489   0.82130
 Alpha virt. eigenvalues --    0.82550   0.85674   0.86099   0.88030   0.88968
 Alpha virt. eigenvalues --    0.90403   0.91482   0.95374   0.96170   0.97399
 Alpha virt. eigenvalues --    0.99276   1.01184   1.02895   1.06217   1.07929
 Alpha virt. eigenvalues --    1.08241   1.10222   1.11068   1.13919   1.14576
 Alpha virt. eigenvalues --    1.15397   1.17258   1.20201   1.21202   1.22572
 Alpha virt. eigenvalues --    1.24133   1.24978   1.27461   1.28110   1.29846
 Alpha virt. eigenvalues --    1.32740   1.33338   1.34545   1.39684   1.40204
 Alpha virt. eigenvalues --    1.42079   1.42718   1.43267   1.44735   1.46037
 Alpha virt. eigenvalues --    1.46589   1.48774   1.49700   1.51142   1.52543
 Alpha virt. eigenvalues --    1.54368   1.55433   1.55935   1.58247   1.59235
 Alpha virt. eigenvalues --    1.60278   1.60502   1.61867   1.62177   1.62470
 Alpha virt. eigenvalues --    1.64014   1.65023   1.65431   1.66516   1.67746
 Alpha virt. eigenvalues --    1.68189   1.69087   1.70329   1.70575   1.72168
 Alpha virt. eigenvalues --    1.73670   1.74005   1.75735   1.77696   1.79298
 Alpha virt. eigenvalues --    1.80416   1.80710   1.82478   1.84400   1.85401
 Alpha virt. eigenvalues --    1.88486   1.92565   1.94434   1.94985   1.96662
 Alpha virt. eigenvalues --    1.97674   1.98904   1.99484   2.00300   2.01543
 Alpha virt. eigenvalues --    2.03928   2.06202   2.09848   2.14620   2.16306
 Alpha virt. eigenvalues --    2.16761   2.18102   2.19732   2.22576   2.25015
 Alpha virt. eigenvalues --    2.27220   2.27490   2.29734   2.31764   2.33692
 Alpha virt. eigenvalues --    2.35356   2.36600   2.39219   2.40683   2.43460
 Alpha virt. eigenvalues --    2.48548   2.50138   2.50244   2.51179   2.53613
 Alpha virt. eigenvalues --    2.54898   2.56337   2.58706   2.59264   2.60842
 Alpha virt. eigenvalues --    2.61634   2.62038   2.63973   2.64880   2.66795
 Alpha virt. eigenvalues --    2.68290   2.69787   2.70980   2.72226   2.74054
 Alpha virt. eigenvalues --    2.74731   2.75785   2.78149   2.78840   2.80536
 Alpha virt. eigenvalues --    2.81597   2.82709   2.85499   2.86480   2.87001
 Alpha virt. eigenvalues --    2.88656   2.92546   2.95666   2.96510   2.98104
 Alpha virt. eigenvalues --    2.99476   3.00408   3.02482   3.05044   3.05381
 Alpha virt. eigenvalues --    3.07414   3.10101   3.10455   3.12049   3.14230
 Alpha virt. eigenvalues --    3.15079   3.15792   3.17085   3.18078   3.19260
 Alpha virt. eigenvalues --    3.21153   3.22174   3.23491   3.24973   3.26284
 Alpha virt. eigenvalues --    3.26936   3.28742   3.29238   3.30758   3.31435
 Alpha virt. eigenvalues --    3.34223   3.34470   3.35304   3.36718   3.39042
 Alpha virt. eigenvalues --    3.41490   3.42622   3.42665   3.43228   3.45089
 Alpha virt. eigenvalues --    3.48285   3.48797   3.50614   3.51427   3.53590
 Alpha virt. eigenvalues --    3.54563   3.56981   3.59842   3.63610   3.66809
 Alpha virt. eigenvalues --    3.69696   3.71466   3.73654   3.76790   3.79191
 Alpha virt. eigenvalues --    3.80976   3.84424   3.86963   3.88597   3.89983
 Alpha virt. eigenvalues --    3.93310   3.95191   3.97376   4.00550   4.02084
 Alpha virt. eigenvalues --    4.05870   4.07433   4.09984   4.12150   4.12944
 Alpha virt. eigenvalues --    4.16226   4.16933   4.17248   4.20406   4.21795
 Alpha virt. eigenvalues --    4.26613   4.27712   4.29025   4.30771   4.33747
 Alpha virt. eigenvalues --    4.35529   4.37200   4.40220   4.42566   4.46890
 Alpha virt. eigenvalues --    4.49907   4.50505   4.51517   4.55642   4.59812
 Alpha virt. eigenvalues --    4.64246   4.67164   4.74081   4.75118   4.79901
 Alpha virt. eigenvalues --    4.81374   4.84830   4.88839   4.92913   4.94737
 Alpha virt. eigenvalues --    5.04009   5.07186   5.12153   5.17828   5.21188
 Alpha virt. eigenvalues --    5.28028   5.33475   5.42072   5.54034   5.58736
 Alpha virt. eigenvalues --    5.73514   5.96018   7.74148  22.35048  22.49249
 Alpha virt. eigenvalues --   22.56676  22.62105  22.75904  22.88997  22.90257
 Alpha virt. eigenvalues --   23.21913  32.53787
          Condensed to atoms (all electrons):
               1          2          3          4          5          6
     1  Br  35.024089   0.253700  -0.028741  -0.025136   0.010582  -0.004056
     2  C    0.253700   4.992453   0.236925  -0.012088  -0.003419  -0.002368
     3  C   -0.028741   0.236925   5.226550   0.212744  -0.023704  -0.002299
     4  C   -0.025136  -0.012088   0.212744   5.337027   0.169249  -0.039427
     5  C    0.010582  -0.003419  -0.023704   0.169249   5.262563   0.458323
     6  C   -0.004056  -0.002368  -0.002299  -0.039427   0.458323   4.889414
     7  N   -0.001614   0.000093  -0.000261   0.009202  -0.037514   0.508776
     8  C    0.003047  -0.000100   0.000391  -0.001371  -0.051982  -0.106261
     9  C   -0.002088   0.000639  -0.001081   0.012693  -0.046248  -0.022347
    10  C   -0.013131   0.000850  -0.003643  -0.070600   0.406482  -0.030938
    11  H   -0.042960   0.424901  -0.037954   0.003174   0.001444  -0.000161
    12  H   -0.043715   0.426355  -0.058357   0.007885  -0.008840   0.000187
    13  H   -0.006294  -0.034968   0.427540  -0.039863  -0.009527  -0.002116
    14  H    0.007962  -0.044451   0.415763  -0.053958   0.014032   0.000550
    15  H    0.000418  -0.010023  -0.033664   0.450577  -0.081376   0.003630
    16  H   -0.000735   0.008726  -0.064285   0.447572  -0.047290  -0.006239
    17  H    0.000682   0.000126  -0.000844   0.006921  -0.090846   0.444580
    18  H   -0.000026   0.000004   0.000005   0.000100   0.000142   0.004892
    19  H   -0.000086   0.000020   0.000009   0.000079   0.014254  -0.002803
    20  H    0.000028  -0.000059  -0.001499  -0.001032  -0.060197   0.005619
               7          8          9         10         11         12
     1  Br  -0.001614   0.003047  -0.002088  -0.013131  -0.042960  -0.043715
     2  C    0.000093  -0.000100   0.000639   0.000850   0.424901   0.426355
     3  C   -0.000261   0.000391  -0.001081  -0.003643  -0.037954  -0.058357
     4  C    0.009202  -0.001371   0.012693  -0.070600   0.003174   0.007885
     5  C   -0.037514  -0.051982  -0.046248   0.406482   0.001444  -0.008840
     6  C    0.508776  -0.106261  -0.022347  -0.030938  -0.000161   0.000187
     7  N    6.424337   0.487572  -0.040647  -0.078968  -0.000005  -0.000039
     8  C    0.487572   4.837065   0.493304  -0.010178   0.000001   0.000045
     9  C   -0.040647   0.493304   4.964365   0.456480  -0.000017  -0.000116
    10  C   -0.078968  -0.010178   0.456480   5.104207   0.000160   0.003383
    11  H   -0.000005   0.000001  -0.000017   0.000160   0.512456  -0.028594
    12  H   -0.000039   0.000045  -0.000116   0.003383  -0.028594   0.526682
    13  H   -0.000206   0.000154  -0.000248   0.004156  -0.003518   0.006374
    14  H    0.000012  -0.000024   0.000067  -0.001131  -0.005652   0.001223
    15  H   -0.000551   0.000284  -0.000712   0.007813  -0.000036   0.000627
    16  H   -0.000005   0.000016  -0.000507   0.003738  -0.000309   0.000392
    17  H   -0.030497   0.009348  -0.002322   0.005255   0.000010  -0.000015
    18  H   -0.032679   0.431145  -0.065239   0.001546  -0.000000   0.000000
    19  H    0.007897  -0.032500   0.416397  -0.059838  -0.000000  -0.000014
    20  H   -0.002452   0.003931  -0.031299   0.434105   0.000002   0.000392
              13         14         15         16         17         18
     1  Br  -0.006294   0.007962   0.000418  -0.000735   0.000682  -0.000026
     2  C   -0.034968  -0.044451  -0.010023   0.008726   0.000126   0.000004
     3  C    0.427540   0.415763  -0.033664  -0.064285  -0.000844   0.000005
     4  C   -0.039863  -0.053958   0.450577   0.447572   0.006921   0.000100
     5  C   -0.009527   0.014032  -0.081376  -0.047290  -0.090846   0.000142
     6  C   -0.002116   0.000550   0.003630  -0.006239   0.444580   0.004892
     7  N   -0.000206   0.000012  -0.000551  -0.000005  -0.030497  -0.032679
     8  C    0.000154  -0.000024   0.000284   0.000016   0.009348   0.431145
     9  C   -0.000248   0.000067  -0.000712  -0.000507  -0.002322  -0.065239
    10  C    0.004156  -0.001131   0.007813   0.003738   0.005255   0.001546
    11  H   -0.003518  -0.005652  -0.000036  -0.000309   0.000010  -0.000000
    12  H    0.006374   0.001223   0.000627   0.000392  -0.000015   0.000000
    13  H    0.498010  -0.018146   0.004113  -0.001088   0.000510  -0.000000
    14  H   -0.018146   0.541292  -0.002488  -0.003783  -0.000009   0.000000
    15  H    0.004113  -0.002488   0.502838  -0.012826  -0.000065  -0.000005
    16  H   -0.001088  -0.003783  -0.012826   0.503011   0.000184  -0.000002
    17  H    0.000510  -0.000009  -0.000065   0.000184   0.512261  -0.000051
    18  H   -0.000000   0.000000  -0.000005  -0.000002  -0.000051   0.518731
    19  H   -0.000002  -0.000000  -0.000112   0.000013   0.000089  -0.000344
    20  H    0.000031  -0.000013   0.001317   0.000282  -0.000229  -0.000288
              19         20
     1  Br  -0.000086   0.000028
     2  C    0.000020  -0.000059
     3  C    0.000009  -0.001499
     4  C    0.000079  -0.001032
     5  C    0.014254  -0.060197
     6  C   -0.002803   0.005619
     7  N    0.007897  -0.002452
     8  C   -0.032500   0.003931
     9  C    0.416397  -0.031299
    10  C   -0.059838   0.434105
    11  H   -0.000000   0.000002
    12  H   -0.000014   0.000392
    13  H   -0.000002   0.000031
    14  H   -0.000000  -0.000013
    15  H   -0.000112   0.001317
    16  H    0.000013   0.000282
    17  H    0.000089  -0.000229
    18  H   -0.000344  -0.000288
    19  H    0.524081  -0.006124
    20  H   -0.006124   0.507043
 Mulliken charges:
               1
     1  Br  -0.131929
     2  C   -0.237315
     3  C   -0.263595
     4  C   -0.413746
     5  C    0.123871
     6  C   -0.096955
     7  N   -0.212452
     8  C   -0.063885
     9  C   -0.131074
    10  C   -0.159748
    11  H    0.177059
    12  H    0.166145
    13  H    0.175087
    14  H    0.148755
    15  H    0.170238
    16  H    0.173136
    17  H    0.144911
    18  H    0.142069
    19  H    0.138984
    20  H    0.150441
 Sum of Mulliken charges =  -0.00000
 Mulliken charges with hydrogens summed into heavy atoms:
               1
     1  Br  -0.131929
     2  C    0.105889
     3  C    0.060248
     4  C   -0.070372
     5  C    0.123871
     6  C    0.047956
     7  N   -0.212452
     8  C    0.078184
     9  C    0.007911
    10  C   -0.009306
 Electronic spatial extent (au):  <R**2>=           1989.0185
 Charge=             -0.0000 electrons
 Dipole moment (field-independent basis, Debye):
    X=             -1.5947    Y=              2.6374    Z=              2.2547  Tot=              3.8187
 Quadrupole moment (field-independent basis, Debye-Ang):
   XX=            -74.1960   YY=            -69.3713   ZZ=            -72.3421
   XY=             -6.6525   XZ=              4.3136   YZ=             -1.9409
 Traceless Quadrupole moment (field-independent basis, Debye-Ang):
   XX=             -2.2262   YY=              2.5985   ZZ=             -0.3722
   XY=             -6.6525   XZ=              4.3136   YZ=             -1.9409
 Octapole moment (field-independent basis, Debye-Ang**2):
  XXX=            -67.9002  YYY=            -32.0787  ZZZ=              8.0764  XYY=            -11.9253
  XXY=            -14.2064  XXZ=             14.1995  XZZ=            -21.8039  YZZ=             -6.0679
  YYZ=             -3.3329  XYZ=             -6.4462
 Hexadecapole moment (field-independent basis, Debye-Ang**3):
 XXXX=          -1477.1016 YYYY=           -706.0719 ZZZZ=           -346.2300 XXXY=            -17.2163
 XXXZ=             34.5217 YYYX=             29.7937 YYYZ=              1.8651 ZZZX=             26.4827
 ZZZY=             -6.8007 XXYY=           -352.3260 XXZZ=           -328.7072 YYZZ=           -177.7668
 XXYZ=            -12.0030 YYXZ=              1.5806 ZZXY=             15.8568
 N-N= 7.667363204742D+02 E-N=-8.534923270644D+03  KE= 2.934432015862D+03
 Unable to Open any file for archive entry.
 1\1\GINC-COMPUTE-0-33\SP\RM062X\def2TZVP\C8H10Br1N1\ZTAN64\14-Aug-2024
 \0\\# M062X/def2tzvp int=(grid=ultrafine) nmr=giao guess=read geom=che
 ck\\pyrd10.xyz\\0,1\Br,0,3.3827371002,-2.8608635383,1.9770396587\C,0,3
 .7770043958,-1.8758741595,0.3029967177\C,0,3.0513087697,-0.5404106786,
 0.2122321108\C,0,1.5719467373,-0.6182963563,-0.2138201432\C,0,0.686737
 7005,-1.3867255905,0.7360849451\C,0,0.3397169584,-0.852025273,1.983096
 6508\N,0,-0.3858999504,-1.4896301248,2.9037377111\C,0,-0.8072858534,-2
 .725390701,2.6032402794\C,0,-0.5418540174,-3.3505384189,1.3865477258\C
 ,0,0.2171690437,-2.6665886427,0.4406864763\H,0,4.8577916984,-1.7456326
 149,0.3179077728\H,0,3.5046010742,-2.5559093443,-0.5051047136\H,0,3.14
 53379169,-0.0149676779,1.1680094455\H,0,3.5860943731,0.0645005912,-0.5
 327736288\H,0,1.514534425,-1.0725884572,-1.2102448036\H,0,1.1986262523
 ,0.4072927449,-0.3181780444\H,0,0.6747265366,0.1502674812,2.2498386872
 \H,0,-1.3905368727,-3.2330349804,3.3686556121\H,0,-0.9150157838,-4.350
 3205721,1.1901498703\H,0,0.4555594957,-3.126463687,-0.51480233\\Versio
 n=ES64L-G16RevC.01\State=1-A\HF=-2939.785283\RMSD=1.844e-09\Dipole=0.3
 99783,0.1584352,-1.4395483\Quadrupole=-1.8931178,2.2966206,-0.4035028,
 5.5939106,-0.803368,-1.9122905\PG=C01 [X(C8H10Br1N1)]\\@
 The archive entry for this job was punched.


 You don't have to suffer to be a poet.
 Adolescence is enough suffering for anyone.
                             -- John Ciardi
 Job cpu time:       0 days  0 hours 23 minutes 55.8 seconds.
 Elapsed time:       0 days  0 hours  1 minutes 36.3 seconds.
 File lengths (MBytes):  RWF=     88 Int=      0 D2E=      0 Chk=     15 Scr=      1
 Normal termination of Gaussian 16 at Wed Aug 14 18:50:09 2024.
 
 
-----Kestrel cluster job statistics-----
Time info:

real	8m55.799s
user	138m56.341s
sys	0m21.602s
 
Disk space usage:
15M	/scratch/362947.kestrel.chem.wisc.edu
