 Entering Gaussian System, Link 0=/share/apps/gaussian/g16/g16
 Initial command:
 /share/apps/gaussian/g16/l1.exe "/scratch/363000.kestrel.chem.wisc.edu/Gau-116854.inp" -scrdir="/scratch/363000.kestrel.chem.wisc.edu/"
 Entering Link 1 = /share/apps/gaussian/g16/l1.exe PID=    116855.
  
 Copyright (c) 1988-2019, Gaussian, Inc.  All Rights Reserved.
  
 This is part of the Gaussian(R) 16 program.  It is based on
 the Gaussian(R) 09 system (copyright 2009, Gaussian, Inc.),
 the Gaussian(R) 03 system (copyright 2003, Gaussian, Inc.),
 the Gaussian(R) 98 system (copyright 1998, Gaussian, Inc.),
 the Gaussian(R) 94 system (copyright 1995, Gaussian, Inc.),
 the Gaussian 92(TM) system (copyright 1992, Gaussian, Inc.),
 the Gaussian 90(TM) system (copyright 1990, Gaussian, Inc.),
 the Gaussian 88(TM) system (copyright 1988, Gaussian, Inc.),
 the Gaussian 86(TM) system (copyright 1986, Carnegie Mellon
 University), and the Gaussian 82(TM) system (copyright 1983,
 Carnegie Mellon University). Gaussian is a federally registered
 trademark of Gaussian, Inc.
  
 This software contains proprietary and confidential information,
 including trade secrets, belonging to Gaussian, Inc.
  
 This software is provided under written license and may be
 used, copied, transmitted, or stored only in accord with that
 written license.
  
 The following legend is applicable only to US Government
 contracts under FAR:
  
                    RESTRICTED RIGHTS LEGEND
  
 Use, reproduction and disclosure by the US Government is
 subject to restrictions as set forth in subparagraphs (a)
 and (c) of the Commercial Computer Software - Restricted
 Rights clause in FAR 52.227-19.
  
 Gaussian, Inc.
 340 Quinnipiac St., Bldg. 40, Wallingford CT 06492
  
  
 ---------------------------------------------------------------
 Warning -- This program may not be used in any manner that
 competes with the business of Gaussian, Inc. or will provide
 assistance to any competitor of Gaussian, Inc.  The licensee
 of this program is prohibited from giving any competitor of
 Gaussian, Inc. access to this program.  By using this program,
 the user acknowledges that Gaussian, Inc. is engaged in the
 business of creating and licensing software in the field of
 computational chemistry and represents and warrants to the
 licensee that it is not a competitor of Gaussian, Inc. and that
 it will not use this program in any manner prohibited above.
 ---------------------------------------------------------------
  

 Cite this work as:
 Gaussian 16, Revision C.01,
 M. J. Frisch, G. W. Trucks, H. B. Schlegel, G. E. Scuseria, 
 M. A. Robb, J. R. Cheeseman, G. Scalmani, V. Barone, 
 G. A. Petersson, H. Nakatsuji, X. Li, M. Caricato, A. V. Marenich, 
 J. Bloino, B. G. Janesko, R. Gomperts, B. Mennucci, H. P. Hratchian, 
 J. V. Ortiz, A. F. Izmaylov, J. L. Sonnenberg, D. Williams-Young, 
 F. Ding, F. Lipparini, F. Egidi, J. Goings, B. Peng, A. Petrone, 
 T. Henderson, D. Ranasinghe, V. G. Zakrzewski, J. Gao, N. Rega, 
 G. Zheng, W. Liang, M. Hada, M. Ehara, K. Toyota, R. Fukuda, 
 J. Hasegawa, M. Ishida, T. Nakajima, Y. Honda, O. Kitao, H. Nakai, 
 T. Vreven, K. Throssell, J. A. Montgomery, Jr., J. E. Peralta, 
 F. Ogliaro, M. J. Bearpark, J. J. Heyd, E. N. Brothers, K. N. Kudin, 
 V. N. Staroverov, T. A. Keith, R. Kobayashi, J. Normand, 
 K. Raghavachari, A. P. Rendell, J. C. Burant, S. S. Iyengar, 
 J. Tomasi, M. Cossi, J. M. Millam, M. Klene, C. Adamo, R. Cammi, 
 J. W. Ochterski, R. L. Martin, K. Morokuma, O. Farkas, 
 J. B. Foresman, and D. J. Fox, Gaussian, Inc., Wallingford CT, 2019.
 
 ******************************************
 Gaussian 16:  ES64L-G16RevC.01  3-Jul-2019
                14-Aug-2024 
 ******************************************
 %nprocs=16
 Will use up to   16 processors via shared memory.
 %mem=16GB
 %chk=pyrz2_conf-1.chk
 ----------------------------------------------------------------------
 # B3LYP/6-31G(d,p) symmetry=loose empiricaldispersion=GD3BJ int=(grid=
 ultrafine) opt freq=noraman
 ----------------------------------------------------------------------
 1/18=20,19=15,26=4,38=1/1,3;
 2/9=110,12=2,17=4,18=3,40=1/2;
 3/5=1,6=6,7=101,11=2,25=1,30=1,71=1,74=-5,75=-5,124=41/1,2,3;
 4//1;
 5/5=2,38=5/2;
 6/7=2,8=2,9=2,10=2,28=1/1;
 7//1,2,3,16;
 1/18=20,19=15,26=4/3(2);
 2/9=110/2;
 99//99;
 2/9=110/2;
 3/5=1,6=6,7=101,11=2,25=1,30=1,71=1,74=-5,75=-5,124=41/1,2,3;
 4/5=5,16=3,69=1/1;
 5/5=2,38=5/2;
 7//1,2,3,16;
 1/18=20,19=15,26=4/3(-5);
 2/9=110/2;
 6/7=2,8=2,9=2,10=2,19=2,28=1/1;
 99/9=1/99;
 ---------
 pyrz2.xyz
 ---------
 Symbolic Z-matrix:
 Charge =  0 Multiplicity = 1
 Cl                   -4.2032    0.9724   -0.3224 
 C                    -2.493     0.7656   -0.179 
 C                    -1.9137   -0.5088   -0.2084 
 C                    -2.7338   -1.7812   -0.366 
 N                    -0.5693   -0.6701   -0.0956 
 C                     0.217     0.4358    0.0481 
 C                     1.7005    0.2132    0.1697 
 O                     2.0618   -1.0952    0.1181 
 C                     3.4289   -1.4695    0.2192 
 O                     2.5215    1.126     0.3042 
 C                    -0.383     1.7114    0.0757 
 N                     0.3389    2.8891    0.2182 
 N                    -1.7232    1.8729   -0.0367 
 H                    -2.1124   -2.6784   -0.3668 
 H                    -3.2896   -1.759    -1.3041 
 H                    -3.451    -1.8724    0.4507 
 H                     3.5244   -2.5535    0.1577 
 H                     3.8545   -1.1432    1.1695 
 H                     4.0157   -1.0294   -0.5887 
 H                    -0.1377    3.7756    0.2319 
 H                     1.3467    2.7987    0.3047 
 

 GradGradGradGradGradGradGradGradGradGradGradGradGradGradGradGradGradGrad
 Berny optimization.
 Initialization pass.
                           ----------------------------
                           !    Initial Parameters    !
                           ! (Angstroms and Degrees)  !
 --------------------------                            --------------------------
 ! Name  Definition              Value          Derivative Info.                !
 --------------------------------------------------------------------------------
 ! R1    R(1,2)                  1.7286         estimate D2E/DX2                !
 ! R2    R(2,3)                  1.4002         estimate D2E/DX2                !
 ! R3    R(2,13)                 1.3561         estimate D2E/DX2                !
 ! R4    R(3,4)                  1.522          estimate D2E/DX2                !
 ! R5    R(3,5)                  1.3587         estimate D2E/DX2                !
 ! R6    R(4,14)                 1.0914         estimate D2E/DX2                !
 ! R7    R(4,15)                 1.0906         estimate D2E/DX2                !
 ! R8    R(4,16)                 1.0907         estimate D2E/DX2                !
 ! R9    R(5,6)                  1.3645         estimate D2E/DX2                !
 ! R10   R(6,7)                  1.505          estimate D2E/DX2                !
 ! R11   R(6,11)                 1.4099         estimate D2E/DX2                !
 ! R12   R(7,8)                  1.3583         estimate D2E/DX2                !
 ! R13   R(7,10)                 1.235          estimate D2E/DX2                !
 ! R14   R(8,9)                  1.421          estimate D2E/DX2                !
 ! R15   R(9,17)                 1.0899         estimate D2E/DX2                !
 ! R16   R(9,18)                 1.0912         estimate D2E/DX2                !
 ! R17   R(9,19)                 1.0912         estimate D2E/DX2                !
 ! R18   R(11,12)                1.3887         estimate D2E/DX2                !
 ! R19   R(11,13)                1.3546         estimate D2E/DX2                !
 ! R20   R(12,20)                1.0066         estimate D2E/DX2                !
 ! R21   R(12,21)                1.0155         estimate D2E/DX2                !
 ! A1    A(1,2,3)              121.0953         estimate D2E/DX2                !
 ! A2    A(1,2,13)             118.2056         estimate D2E/DX2                !
 ! A3    A(3,2,13)             120.6991         estimate D2E/DX2                !
 ! A4    A(2,3,4)              122.694          estimate D2E/DX2                !
 ! A5    A(2,3,5)              121.0422         estimate D2E/DX2                !
 ! A6    A(4,3,5)              116.2639         estimate D2E/DX2                !
 ! A7    A(3,4,14)             112.3678         estimate D2E/DX2                !
 ! A8    A(3,4,15)             110.2829         estimate D2E/DX2                !
 ! A9    A(3,4,16)             110.2842         estimate D2E/DX2                !
 ! A10   A(14,4,15)            107.8344         estimate D2E/DX2                !
 ! A11   A(14,4,16)            107.8302         estimate D2E/DX2                !
 ! A12   A(15,4,16)            108.0991         estimate D2E/DX2                !
 ! A13   A(3,5,6)              118.8616         estimate D2E/DX2                !
 ! A14   A(5,6,7)              117.1704         estimate D2E/DX2                !
 ! A15   A(5,6,11)             119.3462         estimate D2E/DX2                !
 ! A16   A(7,6,11)             123.4834         estimate D2E/DX2                !
 ! A17   A(6,7,8)              113.6768         estimate D2E/DX2                !
 ! A18   A(6,7,10)             123.6921         estimate D2E/DX2                !
 ! A19   A(8,7,10)             122.6311         estimate D2E/DX2                !
 ! A20   A(7,8,9)              120.4581         estimate D2E/DX2                !
 ! A21   A(8,9,17)             110.014          estimate D2E/DX2                !
 ! A22   A(8,9,18)             111.0039         estimate D2E/DX2                !
 ! A23   A(8,9,19)             111.0045         estimate D2E/DX2                !
 ! A24   A(17,9,18)            108.2022         estimate D2E/DX2                !
 ! A25   A(17,9,19)            108.1934         estimate D2E/DX2                !
 ! A26   A(18,9,19)            108.3268         estimate D2E/DX2                !
 ! A27   A(6,11,12)            123.2339         estimate D2E/DX2                !
 ! A28   A(6,11,13)            121.8219         estimate D2E/DX2                !
 ! A29   A(12,11,13)           114.9442         estimate D2E/DX2                !
 ! A30   A(11,12,20)           120.1427         estimate D2E/DX2                !
 ! A31   A(11,12,21)           116.6882         estimate D2E/DX2                !
 ! A32   A(20,12,21)           123.1691         estimate D2E/DX2                !
 ! A33   A(2,13,11)            118.2291         estimate D2E/DX2                !
 ! D1    D(1,2,3,4)              0.0015         estimate D2E/DX2                !
 ! D2    D(1,2,3,5)            179.9995         estimate D2E/DX2                !
 ! D3    D(13,2,3,4)           179.9998         estimate D2E/DX2                !
 ! D4    D(13,2,3,5)            -0.0022         estimate D2E/DX2                !
 ! D5    D(1,2,13,11)         -179.9994         estimate D2E/DX2                !
 ! D6    D(3,2,13,11)            0.0022         estimate D2E/DX2                !
 ! D7    D(2,3,4,14)          -179.9823         estimate D2E/DX2                !
 ! D8    D(2,3,4,15)            59.6755         estimate D2E/DX2                !
 ! D9    D(2,3,4,16)           -59.6446         estimate D2E/DX2                !
 ! D10   D(5,3,4,14)             0.0196         estimate D2E/DX2                !
 ! D11   D(5,3,4,15)          -120.3226         estimate D2E/DX2                !
 ! D12   D(5,3,4,16)           120.3573         estimate D2E/DX2                !
 ! D13   D(2,3,5,6)              0.0011         estimate D2E/DX2                !
 ! D14   D(4,3,5,6)            179.9992         estimate D2E/DX2                !
 ! D15   D(3,5,6,7)            179.9992         estimate D2E/DX2                !
 ! D16   D(3,5,6,11)            -0.0001         estimate D2E/DX2                !
 ! D17   D(5,6,7,8)              0.0002         estimate D2E/DX2                !
 ! D18   D(5,6,7,10)          -179.9932         estimate D2E/DX2                !
 ! D19   D(11,6,7,8)           179.9996         estimate D2E/DX2                !
 ! D20   D(11,6,7,10)            0.0061         estimate D2E/DX2                !
 ! D21   D(5,6,11,12)          179.9973         estimate D2E/DX2                !
 ! D22   D(5,6,11,13)            0.0002         estimate D2E/DX2                !
 ! D23   D(7,6,11,12)           -0.002          estimate D2E/DX2                !
 ! D24   D(7,6,11,13)         -179.9991         estimate D2E/DX2                !
 ! D25   D(6,7,8,9)            179.9998         estimate D2E/DX2                !
 ! D26   D(10,7,8,9)            -0.0067         estimate D2E/DX2                !
 ! D27   D(7,8,9,17)          -179.9966         estimate D2E/DX2                !
 ! D28   D(7,8,9,18)            60.2704         estimate D2E/DX2                !
 ! D29   D(7,8,9,19)           -60.274          estimate D2E/DX2                !
 ! D30   D(6,11,12,20)         179.9992         estimate D2E/DX2                !
 ! D31   D(6,11,12,21)           0.0048         estimate D2E/DX2                !
 ! D32   D(13,11,12,20)         -0.0036         estimate D2E/DX2                !
 ! D33   D(13,11,12,21)       -179.9979         estimate D2E/DX2                !
 ! D34   D(6,11,13,2)           -0.0013         estimate D2E/DX2                !
 ! D35   D(12,11,13,2)        -179.9986         estimate D2E/DX2                !
 --------------------------------------------------------------------------------
 Trust Radius=3.00D-01 FncErr=1.00D-07 GrdErr=1.00D-06 EigMax=2.50D+02 EigMin=1.00D-04
 Number of steps in this run=     99 maximum allowed number of steps=    126.
 GradGradGradGradGradGradGradGradGradGradGradGradGradGradGradGradGradGrad

                          Input orientation:                          
 ---------------------------------------------------------------------
 Center     Atomic      Atomic             Coordinates (Angstroms)
 Number     Number       Type             X           Y           Z
 ---------------------------------------------------------------------
      1         17           0       -4.203200    0.972400   -0.322400
      2          6           0       -2.493000    0.765600   -0.179000
      3          6           0       -1.913700   -0.508800   -0.208400
      4          6           0       -2.733800   -1.781200   -0.366000
      5          7           0       -0.569300   -0.670100   -0.095600
      6          6           0        0.217000    0.435800    0.048100
      7          6           0        1.700500    0.213200    0.169700
      8          8           0        2.061800   -1.095200    0.118100
      9          6           0        3.428900   -1.469500    0.219200
     10          8           0        2.521500    1.126000    0.304200
     11          6           0       -0.383000    1.711400    0.075700
     12          7           0        0.338900    2.889100    0.218200
     13          7           0       -1.723200    1.872900   -0.036700
     14          1           0       -2.112400   -2.678400   -0.366800
     15          1           0       -3.289600   -1.759000   -1.304100
     16          1           0       -3.451000   -1.872400    0.450700
     17          1           0        3.524400   -2.553500    0.157700
     18          1           0        3.854500   -1.143200    1.169500
     19          1           0        4.015700   -1.029400   -0.588700
     20          1           0       -0.137700    3.775600    0.231900
     21          1           0        1.346700    2.798700    0.304700
 ---------------------------------------------------------------------
                    Distance matrix (angstroms):
                    1          2          3          4          5
     1  Cl   0.000000
     2  C    1.728616   0.000000
     3  C    2.729242   1.400196   0.000000
     4  C    3.121434   2.564984   1.521974   0.000000
     5  N    3.994305   2.401835   1.358732   2.448003   0.000000
     6  C    4.468040   2.739424   2.344769   3.713999   1.364526
     7  C    5.972623   4.244076   3.704954   4.891587   2.450019
     8  O    6.612052   4.929204   4.031757   4.868545   2.673774
     9  C    8.031510   6.342171   5.445104   6.198265   4.089467
    10  O    6.755576   5.050602   4.754611   6.043108   3.597063
    11  C    3.911334   2.326265   2.711650   4.233157   2.394910
    12  N    4.959502   3.561836   4.099014   5.620896   3.686625
    13  N    2.653851   1.356081   2.395468   3.805548   2.793171
    14  H    4.207346   3.470052   2.184430   1.091378   2.547151
    15  H    3.042852   2.876461   2.157929   1.090614   3.169575
    16  H    3.042429   2.876340   2.158034   1.090730   3.169884
    17  H    8.507542   6.880327   5.821319   6.327383   4.513284
    18  H    8.463336   6.764076   5.964328   6.794888   4.625398
    19  H    8.463358   6.764100   5.964347   6.794891   4.625416
    20  H    4.969252   3.844005   4.658768   6.162406   4.478592
    21  H    5.876225   4.371585   4.672583   6.170559   3.982947
                    6          7          8          9         10
     6  C    0.000000
     7  C    1.505028   0.000000
     8  O    2.398364   1.358349   0.000000
     9  C    3.738415   2.412736   1.421015   0.000000
    10  O    2.419232   1.235045   2.275893   2.750858   0.000000
    11  C    1.409935   2.567959   3.722344   4.966820   2.971704
    12  N    2.462209   3.002790   4.342010   5.342798   2.807073
    13  N    2.415952   3.810371   4.812464   6.146646   4.323373
    14  H    3.911072   4.815329   4.490612   5.701828   6.032970
    15  H    4.352222   5.564419   5.576806   6.895107   6.684216
    16  H    4.352482   5.564768   5.577242   6.895574   6.684506
    17  H    4.459464   3.313817   2.065770   1.089935   3.816542
    18  H    4.120945   2.734801   2.078826   1.091182   2.770361
    19  H    4.120976   2.734845   2.078851   1.091203   2.770497
    20  H    3.363608   4.009182   5.345600   6.342860   3.754591
    21  H    2.631608   2.613084   3.963413   4.749779   2.044035
                   11         12         13         14         15
    11  C    0.000000
    12  N    1.388677   0.000000
    13  N    1.354567   2.312984   0.000000
    14  H    4.738879   6.111314   4.579823   0.000000
    15  H    4.732425   6.090012   4.153385   1.763414   0.000000
    16  H    4.732533   6.090097   4.153327   1.763460   1.765852
    17  H    5.784797   6.306581   6.867905   5.662527   7.014177
    18  H    5.225088   5.433586   6.454651   6.349878   7.585254
    19  H    5.225129   5.433653   6.454690   6.349965   7.376417
    20  H    2.084584   1.006587   2.491229   6.775839   6.551761
    21  H    2.055851   1.015537   3.224585   6.512673   6.697473
                   16         17         18         19         20
    16  H    0.000000
    17  H    7.014695   0.000000
    18  H    7.376906   1.766820   0.000000
    19  H    7.585685   1.766740   1.769238   0.000000
    20  H    6.551773   7.312591   6.404010   6.404072   0.000000
    21  H    6.697643   5.780141   4.751370   4.751429   1.778504
                   21
    21  H    0.000000
 Stoichiometry    C7H8ClN3O2
 Framework group  C1[X(C7H8ClN3O2)]
 Deg. of freedom    57
 Full point group                 C1      NOp   1
 Largest Abelian subgroup         C1      NOp   1
 Largest concise Abelian subgroup C1      NOp   1
                         Standard orientation:                         
 ---------------------------------------------------------------------
 Center     Atomic      Atomic             Coordinates (Angstroms)
 Number     Number       Type             X           Y           Z
 ---------------------------------------------------------------------
      1         17           0        3.709038    0.116975    0.000003
      2          6           0        1.980621    0.143211    0.000012
      3          6           0        1.239356   -1.044675   -0.000013
      4          6           0        1.890769   -2.420199   -0.000015
      5          7           0       -0.119200   -1.022792    0.000004
      6          6           0       -0.758518    0.182697    0.000024
      7          6           0       -2.263411    0.162515    0.000024
      8          8           0       -2.792161   -1.088698    0.000009
      9          6           0       -4.200858   -1.275398    0.000012
     10          8           0       -2.962245    1.180830   -0.000081
     11          6           0        0.003497    1.368973    0.000029
     12          7           0       -0.562459    2.637088   -0.000006
     13          7           0        1.357900    1.347858    0.000010
     14          1           0        1.156383   -3.227529   -0.000348
     15          1           0        2.519371   -2.540830    0.883017
     16          1           0        2.519907   -2.540644   -0.882835
     17          1           0       -4.436101   -2.339644    0.000060
     18          1           0       -4.654957   -0.825982   -0.884576
     19          1           0       -4.654963   -0.826056    0.884662
     20          1           0        0.026440    3.453431    0.000012
     21          1           0       -1.576920    2.683813    0.000041
 ---------------------------------------------------------------------
 Rotational constants (GHZ):           1.4109106           0.4050677           0.3159533
 Standard basis: 6-31G(d,p) (6D, 7F)
 There are   239 symmetry adapted cartesian basis functions of A   symmetry.
 There are   239 symmetry adapted basis functions of A   symmetry.
   239 basis functions,   444 primitive gaussians,   239 cartesian basis functions
    52 alpha electrons       52 beta electrons
       nuclear repulsion energy       871.1757458407 Hartrees.
 NAtoms=   21 NActive=   21 NUniq=   21 SFac= 1.00D+00 NAtFMM=   60 NAOKFM=F Big=F
 Integral buffers will be    131072 words long.
 Raffenetti 2 integral format.
 Two-electron integral symmetry is turned on.
 Nuclear repulsion after empirical dispersion term =      871.1357179839 Hartrees.
 One-electron integrals computed using PRISM.
 NBasis=   239 RedAO= T EigKep=  9.39D-04  NBF=   239
 NBsUse=   239 1.00D-06 EigRej= -1.00D+00 NBFU=   239
 ExpMin= 1.43D-01 ExpMax= 2.52D+04 ExpMxC= 3.78D+03 IAcc=3 IRadAn=         5 AccDes= 0.00D+00
 Harris functional with IExCor=  402 and IRadAn=       5 diagonalized for initial guess.
 HarFok:  IExCor=  402 AccDes= 0.00D+00 IRadAn=         5 IDoV= 1 UseB2=F ITyADJ=14
 ICtDFT=  3500011 ScaDFX=  1.000000  1.000000  1.000000  1.000000
 FoFCou: FMM=F IPFlag=           0 FMFlag=      100000 FMFlg1=           0
         NFxFlg=           0 DoJE=T BraDBF=F KetDBF=T FulRan=T
         wScrn=  0.000000 ICntrl=       500 IOpCl=  0 I1Cent=   200000004 NGrid=           0
         NMat0=    1 NMatS0=      1 NMatT0=    0 NMatD0=    1 NMtDS0=    0 NMtDT0=    0
 Petite list used in FoFCou.
 Requested convergence on RMS density matrix=1.00D-08 within 128 cycles.
 Requested convergence on MAX density matrix=1.00D-06.
 Requested convergence on             energy=1.00D-06.
 No special actions if energy rises.
 Integral accuracy reduced to 1.0D-05 until final iterations.
 Initial convergence to 1.0D-05 achieved.  Increase integral accuracy.
 SCF Done:  E(RB3LYP) =  -1046.52778347     A.U. after   15 cycles
            NFock= 15  Conv=0.72D-08     -V/T= 2.0069

 **********************************************************************

            Population analysis using the SCF Density.

 **********************************************************************

 Orbital symmetries:
       Occupied  (A) (A) (A) (A) (A) (A) (A) (A) (A) (A) (A) (A)
                 (A) (A) (A) (A) (A) (A) (A) (A) (A) (A) (A) (A)
                 (A) (A) (A) (A) (A) (A) (A) (A) (A) (A) (A) (A)
                 (A) (A) (A) (A) (A) (A) (A) (A) (A) (A) (A) (A)
                 (A) (A) (A) (A)
       Virtual   (A) (A) (A) (A) (A) (A) (A) (A) (A) (A) (A) (A)
                 (A) (A) (A) (A) (A) (A) (A) (A) (A) (A) (A) (A)
                 (A) (A) (A) (A) (A) (A) (A) (A) (A) (A) (A) (A)
                 (A) (A) (A) (A) (A) (A) (A) (A) (A) (A) (A) (A)
                 (A) (A) (A) (A) (A) (A) (A) (A) (A) (A) (A) (A)
                 (A) (A) (A) (A) (A) (A) (A) (A) (A) (A) (A) (A)
                 (A) (A) (A) (A) (A) (A) (A) (A) (A) (A) (A) (A)
                 (A) (A) (A) (A) (A) (A) (A) (A) (A) (A) (A) (A)
                 (A) (A) (A) (A) (A) (A) (A) (A) (A) (A) (A) (A)
                 (A) (A) (A) (A) (A) (A) (A) (A) (A) (A) (A) (A)
                 (A) (A) (A) (A) (A) (A) (A) (A) (A) (A) (A) (A)
                 (A) (A) (A) (A) (A) (A) (A) (A) (A) (A) (A) (A)
                 (A) (A) (A) (A) (A) (A) (A) (A) (A) (A) (A) (A)
                 (A) (A) (A) (A) (A) (A) (A) (A) (A) (A) (A) (A)
                 (A) (A) (A) (A) (A) (A) (A) (A) (A) (A) (A) (A)
                 (A) (A) (A) (A) (A) (A) (A)
 The electronic state is 1-A.
 Alpha  occ. eigenvalues -- -101.56499 -19.19727 -19.14986 -14.36122 -14.35637
 Alpha  occ. eigenvalues --  -14.35478 -10.33391 -10.29941 -10.29070 -10.24852
 Alpha  occ. eigenvalues --  -10.24607 -10.24541 -10.18808  -9.48171  -7.24565
 Alpha  occ. eigenvalues --   -7.23623  -7.23528  -1.10355  -1.01919  -0.99656
 Alpha  occ. eigenvalues --   -0.92698  -0.90862  -0.85675  -0.78891  -0.73866
 Alpha  occ. eigenvalues --   -0.70952  -0.66986  -0.63686  -0.58706  -0.55791
 Alpha  occ. eigenvalues --   -0.53008  -0.52105  -0.50220  -0.48558  -0.46760
 Alpha  occ. eigenvalues --   -0.45729  -0.45662  -0.43726  -0.41780  -0.40952
 Alpha  occ. eigenvalues --   -0.40034  -0.39172  -0.36576  -0.35434  -0.33961
 Alpha  occ. eigenvalues --   -0.33514  -0.30517  -0.30509  -0.29140  -0.29084
 Alpha  occ. eigenvalues --   -0.26686  -0.22809
 Alpha virt. eigenvalues --   -0.07694  -0.02203   0.03028   0.03359   0.09747
 Alpha virt. eigenvalues --    0.11011   0.11486   0.12393   0.13873   0.14925
 Alpha virt. eigenvalues --    0.15793   0.16462   0.17209   0.18323   0.21092
 Alpha virt. eigenvalues --    0.21422   0.23280   0.25969   0.28741   0.29609
 Alpha virt. eigenvalues --    0.32365   0.35580   0.37268   0.38376   0.41016
 Alpha virt. eigenvalues --    0.43636   0.44452   0.46421   0.48036   0.49739
 Alpha virt. eigenvalues --    0.51031   0.51962   0.52489   0.53972   0.55048
 Alpha virt. eigenvalues --    0.56353   0.57349   0.57564   0.59571   0.61338
 Alpha virt. eigenvalues --    0.62799   0.62916   0.64978   0.64999   0.68064
 Alpha virt. eigenvalues --    0.70002   0.71595   0.72513   0.75138   0.75815
 Alpha virt. eigenvalues --    0.77564   0.79735   0.80825   0.82654   0.82745
 Alpha virt. eigenvalues --    0.83920   0.84794   0.85329   0.85369   0.86083
 Alpha virt. eigenvalues --    0.87453   0.88236   0.89595   0.90312   0.93150
 Alpha virt. eigenvalues --    0.94673   0.95614   0.96471   0.97373   0.98452
 Alpha virt. eigenvalues --    0.98641   1.03505   1.04218   1.06988   1.08129
 Alpha virt. eigenvalues --    1.09155   1.17048   1.21409   1.21517   1.24161
 Alpha virt. eigenvalues --    1.27011   1.28350   1.29964   1.30849   1.32204
 Alpha virt. eigenvalues --    1.34270   1.36704   1.40446   1.42350   1.45778
 Alpha virt. eigenvalues --    1.45850   1.48096   1.50654   1.53766   1.54780
 Alpha virt. eigenvalues --    1.55896   1.61618   1.63548   1.66830   1.72187
 Alpha virt. eigenvalues --    1.72705   1.73518   1.75235   1.77914   1.81713
 Alpha virt. eigenvalues --    1.82432   1.82864   1.82989   1.86098   1.87903
 Alpha virt. eigenvalues --    1.90944   1.92818   1.94693   1.95226   1.99256
 Alpha virt. eigenvalues --    2.02520   2.03350   2.04249   2.05024   2.05121
 Alpha virt. eigenvalues --    2.05995   2.07210   2.10146   2.12941   2.14260
 Alpha virt. eigenvalues --    2.15029   2.16946   2.17231   2.18513   2.24546
 Alpha virt. eigenvalues --    2.26565   2.29439   2.31043   2.33746   2.37043
 Alpha virt. eigenvalues --    2.39650   2.42037   2.42928   2.46622   2.48564
 Alpha virt. eigenvalues --    2.49695   2.53118   2.57631   2.59691   2.60295
 Alpha virt. eigenvalues --    2.62797   2.63385   2.65370   2.66531   2.66533
 Alpha virt. eigenvalues --    2.72597   2.75592   2.76122   2.78106   2.80333
 Alpha virt. eigenvalues --    2.84075   2.85156   2.86701   2.89663   2.92375
 Alpha virt. eigenvalues --    2.95029   2.98162   3.06706   3.14803   3.17256
 Alpha virt. eigenvalues --    3.19368   3.24032   3.37057   3.40960   3.43006
 Alpha virt. eigenvalues --    3.43284   3.45628   3.50366   3.60035   3.93492
 Alpha virt. eigenvalues --    4.02042   4.02672   4.04307   4.14124   4.28783
 Alpha virt. eigenvalues --    4.35241   4.38541   4.42530   4.50733   4.55454
 Alpha virt. eigenvalues --    4.61116   4.69455
          Condensed to atoms (all electrons):
               1          2          3          4          5          6
     1  Cl  16.826627   0.266850  -0.077276   0.003665   0.003135   0.000552
     2  C    0.266850   5.066391   0.397597  -0.083012  -0.037435  -0.037967
     3  C   -0.077276   0.397597   4.770164   0.371149   0.448432  -0.045657
     4  C    0.003665  -0.083012   0.371149   5.028934  -0.078873   0.007011
     5  N    0.003135  -0.037435   0.448432  -0.078873   6.931269   0.371714
     6  C    0.000552  -0.037967  -0.045657   0.007011   0.371714   5.107069
     7  C    0.000022   0.000031   0.005419  -0.000083  -0.065103   0.307628
     8  O   -0.000000  -0.000016   0.000107   0.000002   0.001374  -0.076423
     9  C    0.000000   0.000001   0.000010  -0.000000  -0.000277   0.006723
    10  O   -0.000000  -0.000002  -0.000049   0.000000   0.002329  -0.069272
    11  C    0.003561  -0.051560  -0.023471   0.000974  -0.056399   0.381169
    12  N   -0.000102   0.005021   0.000722   0.000008   0.004053  -0.079275
    13  N   -0.073147   0.401137  -0.040512   0.004472  -0.041754  -0.050024
    14  H    0.000190   0.005587  -0.020448   0.365815   0.003621  -0.000035
    15  H    0.001628  -0.002672  -0.028205   0.374959   0.001606  -0.000147
    16  H    0.001629  -0.002674  -0.028202   0.374942   0.001609  -0.000147
    17  H   -0.000000   0.000000  -0.000001  -0.000000  -0.000017   0.000082
    18  H    0.000000  -0.000000   0.000001   0.000000  -0.000003  -0.000305
    19  H    0.000000  -0.000000   0.000001   0.000000  -0.000003  -0.000305
    20  H   -0.000036  -0.000076  -0.000032  -0.000001  -0.000061   0.006184
    21  H    0.000003  -0.000136  -0.000014  -0.000000   0.000064  -0.010951
               7          8          9         10         11         12
     1  Cl   0.000022  -0.000000   0.000000  -0.000000   0.003561  -0.000102
     2  C    0.000031  -0.000016   0.000001  -0.000002  -0.051560   0.005021
     3  C    0.005419   0.000107   0.000010  -0.000049  -0.023471   0.000722
     4  C   -0.000083   0.000002  -0.000000   0.000000   0.000974   0.000008
     5  N   -0.065103   0.001374  -0.000277   0.002329  -0.056399   0.004053
     6  C    0.307628  -0.076423   0.006723  -0.069272   0.381169  -0.079275
     7  C    4.426983   0.276462  -0.019566   0.500306  -0.058786  -0.004307
     8  O    0.276462   8.198486   0.222342  -0.080538   0.002259  -0.000039
     9  C   -0.019566   0.222342   4.708868   0.004236  -0.000049   0.000004
    10  O    0.500306  -0.080538   0.004236   8.131203  -0.003160  -0.017685
    11  C   -0.058786   0.002259  -0.000049  -0.003160   4.581574   0.325937
    12  N   -0.004307  -0.000039   0.000004  -0.017685   0.325937   6.863349
    13  N    0.004474  -0.000021   0.000001   0.000060   0.448708  -0.099408
    14  H   -0.000038   0.000002  -0.000000   0.000000  -0.000013  -0.000000
    15  H    0.000002  -0.000000   0.000000  -0.000000   0.000011  -0.000000
    16  H    0.000002  -0.000000   0.000000  -0.000000   0.000011  -0.000000
    17  H    0.003351  -0.028986   0.392710   0.000299   0.000002   0.000000
    18  H   -0.005164  -0.031642   0.382464   0.005212   0.000001  -0.000000
    19  H   -0.005165  -0.031638   0.382458   0.005209   0.000001  -0.000000
    20  H   -0.000203   0.000002  -0.000000   0.000542  -0.017391   0.331433
    21  H    0.000626   0.000374  -0.000019   0.040962  -0.016786   0.321244
              13         14         15         16         17         18
     1  Cl  -0.073147   0.000190   0.001628   0.001629  -0.000000   0.000000
     2  C    0.401137   0.005587  -0.002672  -0.002674   0.000000  -0.000000
     3  C   -0.040512  -0.020448  -0.028205  -0.028202  -0.000001   0.000001
     4  C    0.004472   0.365815   0.374959   0.374942  -0.000000   0.000000
     5  N   -0.041754   0.003621   0.001606   0.001609  -0.000017  -0.000003
     6  C   -0.050024  -0.000035  -0.000147  -0.000147   0.000082  -0.000305
     7  C    0.004474  -0.000038   0.000002   0.000002   0.003351  -0.005164
     8  O   -0.000021   0.000002  -0.000000  -0.000000  -0.028986  -0.031642
     9  C    0.000001  -0.000000   0.000000   0.000000   0.392710   0.382464
    10  O    0.000060   0.000000  -0.000000  -0.000000   0.000299   0.005212
    11  C    0.448708  -0.000013   0.000011   0.000011   0.000002   0.000001
    12  N   -0.099408  -0.000000  -0.000000  -0.000000   0.000000  -0.000000
    13  N    6.924361  -0.000085   0.000003   0.000003  -0.000000   0.000000
    14  H   -0.000085   0.562058  -0.026077  -0.026077   0.000000  -0.000000
    15  H    0.000003  -0.026077   0.579815  -0.031637   0.000000  -0.000000
    16  H    0.000003  -0.026077  -0.031637   0.579853   0.000000   0.000000
    17  H   -0.000000   0.000000   0.000000   0.000000   0.576429  -0.036321
    18  H    0.000000  -0.000000  -0.000000   0.000000  -0.036321   0.596455
    19  H    0.000000  -0.000000   0.000000  -0.000000  -0.036330  -0.038064
    20  H    0.003875   0.000000   0.000000   0.000000  -0.000000  -0.000000
    21  H    0.003975   0.000000  -0.000000  -0.000000   0.000000  -0.000007
              19         20         21
     1  Cl   0.000000  -0.000036   0.000003
     2  C   -0.000000  -0.000076  -0.000136
     3  C    0.000001  -0.000032  -0.000014
     4  C    0.000000  -0.000001  -0.000000
     5  N   -0.000003  -0.000061   0.000064
     6  C   -0.000305   0.006184  -0.010951
     7  C   -0.005165  -0.000203   0.000626
     8  O   -0.031638   0.000002   0.000374
     9  C    0.382458  -0.000000  -0.000019
    10  O    0.005209   0.000542   0.040962
    11  C    0.000001  -0.017391  -0.016786
    12  N   -0.000000   0.331433   0.321244
    13  N    0.000000   0.003875   0.003975
    14  H   -0.000000   0.000000   0.000000
    15  H    0.000000   0.000000  -0.000000
    16  H   -0.000000   0.000000  -0.000000
    17  H   -0.036330  -0.000000   0.000000
    18  H   -0.038064  -0.000000  -0.000007
    19  H    0.596482  -0.000000  -0.000007
    20  H   -0.000000   0.413255  -0.018313
    21  H   -0.000007  -0.018313   0.377038
 Mulliken charges:
               1
     1  Cl   0.042698
     2  C    0.072934
     3  C    0.270265
     4  C   -0.369963
     5  N   -0.489280
     6  C    0.182378
     7  C    0.633110
     8  O   -0.452108
     9  C   -0.079903
    10  O   -0.519653
    11  C    0.483408
    12  N   -0.650953
    13  N   -0.486119
    14  H    0.135498
    15  H    0.130713
    16  H    0.130686
    17  H    0.128784
    18  H    0.127374
    19  H    0.127362
    20  H    0.280823
    21  H    0.301946
 Sum of Mulliken charges =  -0.00000
 Mulliken charges with hydrogens summed into heavy atoms:
               1
     1  Cl   0.042698
     2  C    0.072934
     3  C    0.270265
     4  C    0.026934
     5  N   -0.489280
     6  C    0.182378
     7  C    0.633110
     8  O   -0.452108
     9  C    0.303617
    10  O   -0.519653
    11  C    0.483408
    12  N   -0.068184
    13  N   -0.486119
 Electronic spatial extent (au):  <R**2>=           3245.1770
 Charge=             -0.0000 electrons
 Dipole moment (field-independent basis, Debye):
    X=             -1.2069    Y=             -0.4984    Z=              0.0004  Tot=              1.3058
 Quadrupole moment (field-independent basis, Debye-Ang):
   XX=            -75.9475   YY=            -74.2928   ZZ=            -80.7090
   XY=              1.3589   XZ=             -0.0007   YZ=              0.0004
 Traceless Quadrupole moment (field-independent basis, Debye-Ang):
   XX=              1.0356   YY=              2.6903   ZZ=             -3.7259
   XY=              1.3589   XZ=             -0.0007   YZ=              0.0004
 Octapole moment (field-independent basis, Debye-Ang**2):
  XXX=            -56.0213  YYY=             29.2643  ZZZ=              0.0005  XYY=             -6.1287
  XXY=            -40.4270  XXZ=              0.0021  XZZ=             -5.0930  YZZ=             -0.9150
  YYZ=              0.0013  XYZ=             -0.0004
 Hexadecapole moment (field-independent basis, Debye-Ang**3):
 XXXX=          -2764.0834 YYYY=           -832.2538 ZZZZ=            -89.2030 XXXY=            133.8188
 XXXZ=             -0.0098 YYYX=             -7.3110 YYYZ=              0.0031 ZZZX=              0.0021
 ZZZY=             -0.0022 XXYY=           -650.2727 XXZZ=           -509.1354 YYZZ=           -188.4358
 XXYZ=             -0.0018 YYXZ=             -0.0024 ZZXY=             -1.4445
 N-N= 8.711357179839D+02 E-N=-4.202483227922D+03  KE= 1.039323096963D+03
 Calling FoFJK, ICntrl=      2127 FMM=F ISym2X=0 I1Cent= 0 IOpClX= 0 NMat=1 NMatS=1 NMatT=0.
 ***** Axes restored to original set *****
 -------------------------------------------------------------------
 Center     Atomic                   Forces (Hartrees/Bohr)
 Number     Number              X              Y              Z
 -------------------------------------------------------------------
      1       17          -0.004020568    0.002553862   -0.000203983
      2        6           0.044019940    0.029117455    0.005924501
      3        6           0.015974108   -0.031898932   -0.000600205
      4        6           0.002733703    0.007145700    0.000778102
      5        7          -0.009859696    0.027522964    0.000878574
      6        6          -0.005406523   -0.036693533   -0.002876131
      7        6           0.015629666    0.003077886    0.001648867
      8        8          -0.021040848    0.003644657   -0.001699646
      9        6           0.011812126    0.010544103    0.001747958
     10        8          -0.013884724   -0.011440100   -0.002022694
     11        6           0.002975273    0.043888546    0.003120782
     12        7          -0.002680290   -0.031187535   -0.002268110
     13        7          -0.019065285   -0.025463068   -0.003400226
     14        1           0.004686116    0.004517978    0.000718747
     15        1          -0.003550454    0.000085571   -0.001373872
     16        1          -0.003691326   -0.000037668    0.000649187
     17        1          -0.009799960   -0.000675988   -0.000933983
     18        1           0.000158031    0.002628099    0.001698653
     19        1           0.000423419    0.002826063   -0.001280840
     20        1          -0.001773636   -0.002610599   -0.000332366
     21        1          -0.003639070    0.002454538   -0.000173314
 -------------------------------------------------------------------
 Cartesian Forces:  Max     0.044019940 RMS     0.013733820

 GradGradGradGradGradGradGradGradGradGradGradGradGradGradGradGradGradGrad
 Berny optimization.
 FormGI is forming the generalized inverse of G from B-inverse, IUseBI=4.
 Internal  Forces:  Max     0.034901430 RMS     0.009093798
 Search for a local minimum.
 Step number   1 out of a maximum of   99
 All quantities printed in internal units (Hartrees-Bohrs-Radians)
 Mixed Optimization -- RFO/linear search
 Second derivative matrix not updated -- first step.
 ITU=  0
     Eigenvalues ---    0.00475   0.00699   0.01206   0.01369   0.01414
     Eigenvalues ---    0.01537   0.01842   0.01842   0.01986   0.02036
     Eigenvalues ---    0.02138   0.02169   0.02243   0.02249   0.06948
     Eigenvalues ---    0.07194   0.10110   0.10230   0.16000   0.16000
     Eigenvalues ---    0.16000   0.16000   0.16000   0.16000   0.16000
     Eigenvalues ---    0.16000   0.25000   0.25000   0.25000   0.25000
     Eigenvalues ---    0.25000   0.25000   0.25000   0.25000   0.25000
     Eigenvalues ---    0.25000   0.30177   0.31855   0.32655   0.34654
     Eigenvalues ---    0.34674   0.34676   0.34728   0.34742   0.34820
     Eigenvalues ---    0.41692   0.42308   0.44956   0.45058   0.46549
     Eigenvalues ---    0.47550   0.49228   0.51708   0.53181   0.53283
     Eigenvalues ---    0.53710   0.89016
 RFO step:  Lambda=-1.92517728D-02 EMin= 4.75279398D-03
 Linear search not attempted -- first point.
 Iteration  1 RMS(Cart)=  0.09293729 RMS(Int)=  0.00191985
 Iteration  2 RMS(Cart)=  0.00377939 RMS(Int)=  0.00009853
 Iteration  3 RMS(Cart)=  0.00000163 RMS(Int)=  0.00009852
 Iteration  4 RMS(Cart)=  0.00000000 RMS(Int)=  0.00009852
 Variable       Old X    -DE/DX   Delta X   Delta X   Delta X     New X
                                 (Linear)    (Quad)   (Total)
    R1        3.26661   0.00430   0.00000   0.01244   0.01244   3.27905
    R2        2.64599   0.00671   0.00000   0.01337   0.01350   2.65948
    R3        2.56262  -0.03490   0.00000  -0.06297  -0.06292   2.49970
    R4        2.87611  -0.00997   0.00000  -0.03105  -0.03105   2.84507
    R5        2.56763  -0.02574   0.00000  -0.04705  -0.04698   2.52065
    R6        2.06241  -0.00105   0.00000  -0.00286  -0.00286   2.05955
    R7        2.06096   0.00299   0.00000   0.00816   0.00816   2.06912
    R8        2.06118   0.00292   0.00000   0.00796   0.00796   2.06914
    R9        2.57858  -0.02395   0.00000  -0.04410  -0.04415   2.53444
   R10        2.84409  -0.01810   0.00000  -0.05358  -0.05358   2.79051
   R11        2.66439   0.00375   0.00000   0.00892   0.00880   2.67319
   R12        2.56691  -0.02316   0.00000  -0.04195  -0.04195   2.52496
   R13        2.33390  -0.01791   0.00000  -0.01969  -0.01969   2.31421
   R14        2.68533  -0.00145   0.00000  -0.00328  -0.00328   2.68205
   R15        2.05968  -0.00013   0.00000  -0.00036  -0.00036   2.05931
   R16        2.06203   0.00233   0.00000   0.00636   0.00636   2.06839
   R17        2.06208   0.00232   0.00000   0.00633   0.00633   2.06840
   R18        2.62422  -0.03107   0.00000  -0.06281  -0.06281   2.56141
   R19        2.55976  -0.01283   0.00000  -0.02255  -0.02262   2.53714
   R20        1.90217  -0.00146   0.00000  -0.00302  -0.00302   1.89915
   R21        1.91909  -0.00384   0.00000  -0.00818  -0.00818   1.91090
    A1        2.11351  -0.00493   0.00000  -0.01739  -0.01747   2.09605
    A2        2.06308  -0.01165   0.00000  -0.04235  -0.04243   2.02064
    A3        2.10660   0.01658   0.00000   0.05974   0.05990   2.16649
    A4        2.14141   0.00227   0.00000   0.00946   0.00936   2.15077
    A5        2.11258  -0.00957   0.00000  -0.03757  -0.03737   2.07521
    A6        2.02919   0.00730   0.00000   0.02811   0.02802   2.05720
    A7        1.96119  -0.00972   0.00000  -0.05513  -0.05503   1.90616
    A8        1.92480   0.00274   0.00000   0.01569   0.01566   1.94046
    A9        1.92482   0.00273   0.00000   0.01566   0.01564   1.94046
   A10        1.88207   0.00343   0.00000   0.01827   0.01837   1.90044
   A11        1.88199   0.00343   0.00000   0.01832   0.01841   1.90040
   A12        1.88668  -0.00238   0.00000  -0.01153  -0.01167   1.87501
   A13        2.07453  -0.00166   0.00000  -0.00643  -0.00639   2.06814
   A14        2.04501   0.00683   0.00000   0.02442   0.02450   2.06951
   A15        2.08298   0.00877   0.00000   0.03444   0.03427   2.11726
   A16        2.15519  -0.01560   0.00000  -0.05886  -0.05878   2.09641
   A17        1.98403  -0.00237   0.00000  -0.00880  -0.00880   1.97524
   A18        2.15883  -0.00194   0.00000  -0.00719  -0.00719   2.15164
   A19        2.14032   0.00430   0.00000   0.01599   0.01599   2.15631
   A20        2.10239  -0.02619   0.00000  -0.09727  -0.09727   2.00512
   A21        1.92011  -0.01401   0.00000  -0.08007  -0.08041   1.83969
   A22        1.93738   0.00078   0.00000   0.00532   0.00508   1.94246
   A23        1.93739   0.00078   0.00000   0.00530   0.00507   1.94247
   A24        1.88848   0.00605   0.00000   0.03188   0.03154   1.92003
   A25        1.88833   0.00606   0.00000   0.03198   0.03164   1.91998
   A26        1.89066   0.00085   0.00000   0.00834   0.00818   1.89884
   A27        2.15084  -0.00463   0.00000  -0.01821  -0.01811   2.13273
   A28        2.12619  -0.00620   0.00000  -0.02102  -0.02122   2.10498
   A29        2.00616   0.01083   0.00000   0.03923   0.03933   2.04548
   A30        2.09689  -0.00493   0.00000  -0.02751  -0.02751   2.06938
   A31        2.03659   0.00450   0.00000   0.02513   0.02513   2.06172
   A32        2.14971   0.00043   0.00000   0.00238   0.00238   2.15208
   A33        2.06349  -0.00792   0.00000  -0.02915  -0.02919   2.03429
    D1        0.00003  -0.00000   0.00000  -0.00002  -0.00002   0.00000
    D2        3.14158  -0.00000   0.00000  -0.00002  -0.00002   3.14156
    D3        3.14159   0.00000   0.00000   0.00001   0.00001  -3.14158
    D4       -0.00004   0.00000   0.00000   0.00001   0.00001  -0.00002
    D5       -3.14158   0.00000   0.00000   0.00001   0.00001  -3.14157
    D6        0.00004  -0.00000   0.00000  -0.00002  -0.00002   0.00001
    D7       -3.14128  -0.00000   0.00000  -0.00003  -0.00003  -3.14132
    D8        1.04153   0.00025   0.00000   0.00274   0.00284   1.04437
    D9       -1.04099  -0.00025   0.00000  -0.00277  -0.00287  -1.04387
   D10        0.00034  -0.00000   0.00000  -0.00003  -0.00003   0.00031
   D11       -2.10002   0.00025   0.00000   0.00274   0.00284  -2.09719
   D12        2.10063  -0.00025   0.00000  -0.00277  -0.00287   2.09776
   D13        0.00002  -0.00000   0.00000  -0.00000  -0.00000   0.00002
   D14        3.14158  -0.00000   0.00000  -0.00000  -0.00000   3.14158
   D15        3.14158   0.00000   0.00000   0.00002   0.00002  -3.14159
   D16       -0.00000   0.00000   0.00000   0.00000   0.00000  -0.00000
   D17        0.00000   0.00000   0.00000   0.00007   0.00007   0.00007
   D18       -3.14147  -0.00000   0.00000  -0.00016  -0.00016   3.14155
   D19        3.14158   0.00000   0.00000   0.00009   0.00009  -3.14152
   D20        0.00011  -0.00000   0.00000  -0.00014  -0.00014  -0.00004
   D21        3.14155   0.00000   0.00000   0.00001   0.00001   3.14156
   D22        0.00000  -0.00000   0.00000  -0.00001  -0.00001  -0.00001
   D23       -0.00003   0.00000   0.00000  -0.00000  -0.00000  -0.00004
   D24       -3.14158  -0.00000   0.00000  -0.00003  -0.00003   3.14158
   D25        3.14159  -0.00000   0.00000  -0.00008  -0.00008   3.14151
   D26       -0.00012   0.00000   0.00000   0.00014   0.00014   0.00003
   D27       -3.14153  -0.00001   0.00000  -0.00005  -0.00005  -3.14158
   D28        1.05192   0.00107   0.00000   0.00886   0.00869   1.06061
   D29       -1.05198  -0.00106   0.00000  -0.00883  -0.00866  -1.06064
   D30        3.14158  -0.00000   0.00000  -0.00003  -0.00003   3.14155
   D31        0.00008  -0.00000   0.00000  -0.00004  -0.00004   0.00005
   D32       -0.00006  -0.00000   0.00000  -0.00000  -0.00000  -0.00006
   D33       -3.14156  -0.00000   0.00000  -0.00001  -0.00001  -3.14157
   D34       -0.00002   0.00000   0.00000   0.00002   0.00002   0.00000
   D35       -3.14157   0.00000   0.00000   0.00000  -0.00000  -3.14157
         Item               Value     Threshold  Converged?
 Maximum Force            0.034901     0.000450     NO 
 RMS     Force            0.009094     0.000300     NO 
 Maximum Displacement     0.317346     0.001800     NO 
 RMS     Displacement     0.093562     0.001200     NO 
 Predicted change in Energy=-1.020399D-02
 GradGradGradGradGradGradGradGradGradGradGradGradGradGradGradGradGradGrad

                          Input orientation:                          
 ---------------------------------------------------------------------
 Center     Atomic      Atomic             Coordinates (Angstroms)
 Number     Number       Type             X           Y           Z
 ---------------------------------------------------------------------
      1         17           0       -4.131456    1.029008   -0.312270
      2          6           0       -2.422356    0.763685   -0.172665
      3          6           0       -1.906007   -0.544973   -0.210010
      4          6           0       -2.769186   -1.768291   -0.368383
      5          7           0       -0.588398   -0.721477   -0.100604
      6          6           0        0.192435    0.359715    0.040994
      7          6           0        1.651360    0.166321    0.162262
      8          8           0        2.017452   -1.117738    0.112616
      9          6           0        3.413759   -1.345473    0.225802
     10          8           0        2.443112    1.091144    0.294699
     11          6           0       -0.356012    1.663216    0.075081
     12          7           0        0.416094    2.768115    0.217451
     13          7           0       -1.680984    1.850416   -0.034319
     14          1           0       -2.136890   -2.655988   -0.367558
     15          1           0       -3.333212   -1.735759   -1.306303
     16          1           0       -3.494502   -1.849051    0.447882
     17          1           0        3.536454   -2.426687    0.166980
     18          1           0        3.800652   -0.976040    1.180717
     19          1           0        3.962722   -0.861468   -0.588091
     20          1           0       -0.031122    3.667951    0.234652
     21          1           0        1.416087    2.643371    0.301066
 ---------------------------------------------------------------------
                    Distance matrix (angstroms):
                    1          2          3          4          5
     1  Cl   0.000000
     2  C    1.735197   0.000000
     3  C    2.727728   1.407338   0.000000
     4  C    3.111882   2.563104   1.505545   0.000000
     5  N    3.957557   2.360996   1.333872   2.433795   0.000000
     6  C    4.389622   2.654426   2.298896   3.669768   1.341166
     7  C    5.866035   4.130882   3.646832   4.854434   2.423592
     8  O    6.526723   4.830428   3.978149   4.854532   2.644417
     9  C    7.928300   6.218324   5.397280   6.225804   4.063640
    10  O    6.602818   4.898820   4.674018   5.981981   3.554140
    11  C    3.847887   2.267225   2.712906   4.218448   2.402421
    12  N    4.897480   3.496674   4.068345   5.573884   3.645191
    13  N    2.599381   1.322784   2.412342   3.793524   2.795133
    14  H    4.190531   3.437098   2.129439   1.089865   2.492273
    15  H    3.044541   2.891715   2.157949   1.094933   3.164882
    16  H    3.044136   2.891534   2.157952   1.094940   3.165075
    17  H    8.424271   6.767662   5.770905   6.362483   4.471437
    18  H    8.316704   6.601827   5.889473   6.796333   4.579339
    19  H    8.316592   6.601737   5.889405   6.796263   4.579295
    20  H    4.906719   3.784002   4.632673   6.116648   4.437345
    21  H    5.810127   4.300149   4.632823   6.117796   3.937194
                    6          7          8          9         10
     6  C    0.000000
     7  C    1.476675   0.000000
     8  O    2.349187   1.336149   0.000000
     9  C    3.649485   2.322845   1.419277   0.000000
    10  O    2.380105   1.224626   2.256878   2.623739   0.000000
    11  C    1.414592   2.505561   3.656288   4.825567   2.865413
    12  N    2.425191   2.880670   4.204187   5.089957   2.631919
    13  N    2.395321   3.738895   4.744465   6.019782   4.206294
    14  H    3.832380   4.753628   4.455933   5.734041   5.954494
    15  H    4.316990   5.533584   5.569998   6.929739   6.627254
    16  H    4.317141   5.533823   5.570355   6.930150   6.627479
    17  H    4.354580   3.205821   2.005909   1.089742   3.686034
    18  H    4.012784   2.638502   2.083440   1.094546   2.627012
    19  H    4.012743   2.638518   2.083445   1.094552   2.627019
    20  H    3.321432   3.885537   5.207145   6.082902   3.572866
    21  H    2.603852   2.492067   3.813540   4.461752   1.861244
                   11         12         13         14         15
    11  C    0.000000
    12  N    1.355441   0.000000
    13  N    1.342595   2.302888   0.000000
    14  H    4.692865   6.023359   4.541649   0.000000
    15  H    4.724931   6.055081   4.148307   1.777428   0.000000
    16  H    4.724947   6.055087   4.148183   1.777414   1.765224
    17  H    5.646861   6.060129   6.749503   5.703082   7.059763
    18  H    5.046381   5.138269   6.285976   6.361901   7.593053
    19  H    5.046315   5.138224   6.285889   6.361934   7.383148
    20  H    2.037150   1.004989   2.469377   6.692468   6.517548
    21  H    2.037672   1.011206   3.214515   6.415131   6.657045
                   16         17         18         19         20
    16  H    0.000000
    17  H    7.060235   0.000000
    18  H    7.383662   1.789369   0.000000
    19  H    7.593337   1.789342   1.779909   0.000000
    20  H    6.517499   7.062350   6.094603   6.094533   0.000000
    21  H    6.657124   5.497219   4.422677   4.422652   1.774426
                   21
    21  H    0.000000
 Stoichiometry    C7H8ClN3O2
 Framework group  C1[X(C7H8ClN3O2)]
 Deg. of freedom    57
 Full point group                 C1      NOp   1
 Largest Abelian subgroup         C1      NOp   1
 Largest concise Abelian subgroup C1      NOp   1
                         Standard orientation:                         
 ---------------------------------------------------------------------
 Center     Atomic      Atomic             Coordinates (Angstroms)
 Number     Number       Type             X           Y           Z
 ---------------------------------------------------------------------
      1         17           0        3.653138    0.205311    0.000068
      2          6           0        1.918369    0.166794    0.000001
      3          6           0        1.239890   -1.066197   -0.000050
      4          6           0        1.945472   -2.396167   -0.000046
      5          7           0       -0.093981   -1.068013   -0.000065
      6          6           0       -0.735445    0.109803   -0.000049
      7          6           0       -2.212120    0.109819   -0.000061
      8          8           0       -2.737915   -1.118526    0.000003
      9          6           0       -4.156559   -1.160913    0.000106
     10          8           0       -2.884099    1.133613   -0.000008
     11          6           0       -0.025662    1.333437   -0.000017
     12          7           0       -0.655461    2.533675   -0.000038
     13          7           0        1.316884    1.344916    0.000009
     14          1           0        1.204442   -3.195341   -0.000374
     15          1           0        2.583994   -2.505241    0.882716
     16          1           0        2.584465   -2.504996   -0.882508
     17          1           0       -4.414563   -2.219673    0.000163
     18          1           0       -4.568826   -0.675013   -0.889819
     19          1           0       -4.568699   -0.674999    0.890090
     20          1           0       -0.097177    3.369331    0.000023
     21          1           0       -1.666638    2.541454   -0.000034
 ---------------------------------------------------------------------
 Rotational constants (GHZ):           1.4707062           0.4168084           0.3260943
 Standard basis: 6-31G(d,p) (6D, 7F)
 There are   239 symmetry adapted cartesian basis functions of A   symmetry.
 There are   239 symmetry adapted basis functions of A   symmetry.
   239 basis functions,   444 primitive gaussians,   239 cartesian basis functions
    52 alpha electrons       52 beta electrons
       nuclear repulsion energy       883.4773041602 Hartrees.
 NAtoms=   21 NActive=   21 NUniq=   21 SFac= 1.00D+00 NAtFMM=   60 NAOKFM=F Big=F
 Integral buffers will be    131072 words long.
 Raffenetti 2 integral format.
 Two-electron integral symmetry is turned on.
 Nuclear repulsion after empirical dispersion term =      883.4366431788 Hartrees.
 One-electron integrals computed using PRISM.
 NBasis=   239 RedAO= T EigKep=  8.72D-04  NBF=   239
 NBsUse=   239 1.00D-06 EigRej= -1.00D+00 NBFU=   239
 Initial guess from the checkpoint file:  "pyrz2_conf-1.chk"
 B after Tr=     0.000000   -0.000000   -0.000000
         Rot=    0.999984    0.000001   -0.000000   -0.005720 Ang=   0.66 deg.
 ExpMin= 1.43D-01 ExpMax= 2.52D+04 ExpMxC= 3.78D+03 IAcc=3 IRadAn=         5 AccDes= 0.00D+00
 Harris functional with IExCor=  402 and IRadAn=       5 diagonalized for initial guess.
 HarFok:  IExCor=  402 AccDes= 0.00D+00 IRadAn=         5 IDoV= 1 UseB2=F ITyADJ=14
 ICtDFT=  3500011 ScaDFX=  1.000000  1.000000  1.000000  1.000000
 FoFCou: FMM=F IPFlag=           0 FMFlag=      100000 FMFlg1=           0
         NFxFlg=           0 DoJE=T BraDBF=F KetDBF=T FulRan=T
         wScrn=  0.000000 ICntrl=       500 IOpCl=  0 I1Cent=   200000004 NGrid=           0
         NMat0=    1 NMatS0=      1 NMatT0=    0 NMatD0=    1 NMtDS0=    0 NMtDT0=    0
 Petite list used in FoFCou.
 Requested convergence on RMS density matrix=1.00D-08 within 128 cycles.
 Requested convergence on MAX density matrix=1.00D-06.
 Requested convergence on             energy=1.00D-06.
 No special actions if energy rises.
 Integral accuracy reduced to 1.0D-05 until final iterations.
 Initial convergence to 1.0D-05 achieved.  Increase integral accuracy.
 SCF Done:  E(RB3LYP) =  -1046.53730410     A.U. after   13 cycles
            NFock= 13  Conv=0.72D-08     -V/T= 2.0064
 Calling FoFJK, ICntrl=      2127 FMM=F ISym2X=0 I1Cent= 0 IOpClX= 0 NMat=1 NMatS=1 NMatT=0.
 ***** Axes restored to original set *****
 -------------------------------------------------------------------
 Center     Atomic                   Forces (Hartrees/Bohr)
 Number     Number              X              Y              Z
 -------------------------------------------------------------------
      1       17          -0.008599693   -0.000276869   -0.000806603
      2        6           0.012298724    0.011415982    0.001866656
      3        6          -0.000515989   -0.012621339   -0.000866712
      4        6          -0.000510894    0.002047488    0.000095361
      5        7          -0.002410825    0.009438152    0.000391532
      6        6           0.001381971   -0.011917220   -0.000640936
      7        6          -0.006839040   -0.000649769   -0.000683145
      8        8          -0.004598034    0.001793019   -0.000301521
      9        6           0.010663023   -0.004662825    0.000669884
     10        8           0.007752404   -0.000952322    0.000654335
     11        6           0.009885258    0.016186158    0.001957769
     12        7          -0.005838690   -0.003498002   -0.000762615
     13        7          -0.009789178   -0.008594660   -0.001455244
     14        1           0.001024185    0.000390882    0.000116269
     15        1          -0.000728698   -0.000159973    0.000398154
     16        1          -0.000639369   -0.000097487   -0.000546091
     17        1           0.000410525   -0.000115035    0.000032979
     18        1          -0.000721624    0.000503246   -0.000888350
     19        1          -0.000879077    0.000395634    0.000802996
     20        1          -0.001512331    0.000897239   -0.000080550
     21        1           0.000167352    0.000477701    0.000045831
 -------------------------------------------------------------------
 Cartesian Forces:  Max     0.016186158 RMS     0.005078645

 GradGradGradGradGradGradGradGradGradGradGradGradGradGradGradGradGradGrad
 Berny optimization.
 Using GEDIIS/GDIIS optimizer.
 FormGI is forming the generalized inverse of G from B-inverse, IUseBI=4.
 Internal  Forces:  Max     0.013616823 RMS     0.003671019
 Search for a local minimum.
 Step number   2 out of a maximum of   99
 All quantities printed in internal units (Hartrees-Bohrs-Radians)
 Mixed Optimization -- RFO/linear search
 Update second derivatives using D2CorX and points    1    2
 DE= -9.52D-03 DEPred=-1.02D-02 R= 9.33D-01
 TightC=F SS=  1.41D+00  RLast= 2.45D-01 DXNew= 5.0454D-01 7.3496D-01
 Trust test= 9.33D-01 RLast= 2.45D-01 DXMaxT set to 5.05D-01
 ITU=  1  0
 Use linear search instead of GDIIS.
     Eigenvalues ---    0.00475   0.00699   0.01216   0.01344   0.01414
     Eigenvalues ---    0.01552   0.01842   0.01842   0.01987   0.02035
     Eigenvalues ---    0.02137   0.02167   0.02243   0.02248   0.07083
     Eigenvalues ---    0.07245   0.10128   0.10681   0.15119   0.16000
     Eigenvalues ---    0.16000   0.16000   0.16000   0.16000   0.16000
     Eigenvalues ---    0.16096   0.21938   0.25000   0.25000   0.25000
     Eigenvalues ---    0.25000   0.25000   0.25000   0.25000   0.25000
     Eigenvalues ---    0.29458   0.30147   0.32000   0.34413   0.34655
     Eigenvalues ---    0.34675   0.34706   0.34736   0.34820   0.35445
     Eigenvalues ---    0.40526   0.42148   0.44221   0.45087   0.46526
     Eigenvalues ---    0.47750   0.49236   0.51370   0.52250   0.53430
     Eigenvalues ---    0.59328   0.90209
 RFO step:  Lambda=-3.39073500D-03 EMin= 4.75279398D-03
 Quartic linear search produced a step of -0.04513.
 Iteration  1 RMS(Cart)=  0.04728235 RMS(Int)=  0.00057928
 Iteration  2 RMS(Cart)=  0.00084016 RMS(Int)=  0.00001506
 Iteration  3 RMS(Cart)=  0.00000010 RMS(Int)=  0.00001505
 Variable       Old X    -DE/DX   Delta X   Delta X   Delta X     New X
                                 (Linear)    (Quad)   (Total)
    R1        3.27905   0.00849  -0.00056   0.02737   0.02681   3.30586
    R2        2.65948   0.00309  -0.00061   0.00822   0.00759   2.66708
    R3        2.49970  -0.00695   0.00284  -0.02690  -0.02408   2.47562
    R4        2.84507  -0.00129   0.00140  -0.01111  -0.00970   2.83536
    R5        2.52065  -0.00127   0.00212  -0.01350  -0.01137   2.50928
    R6        2.05955   0.00028   0.00013   0.00010   0.00023   2.05978
    R7        2.06912   0.00003  -0.00037   0.00193   0.00157   2.07069
    R8        2.06914   0.00002  -0.00036   0.00187   0.00151   2.07065
    R9        2.53444  -0.00131   0.00199  -0.01188  -0.00986   2.52457
   R10        2.79051   0.00623   0.00242   0.00623   0.00865   2.79916
   R11        2.67319   0.01362  -0.00040   0.03255   0.03218   2.70537
   R12        2.52496   0.00333   0.00189  -0.00354  -0.00164   2.52331
   R13        2.31421   0.00436   0.00089   0.00025   0.00114   2.31534
   R14        2.68205   0.00999   0.00015   0.02159   0.02174   2.70379
   R15        2.05931   0.00016   0.00002   0.00035   0.00036   2.05968
   R16        2.06839  -0.00086  -0.00029  -0.00090  -0.00118   2.06721
   R17        2.06840  -0.00086  -0.00029  -0.00091  -0.00120   2.06721
   R18        2.56141  -0.00591   0.00283  -0.02594  -0.02311   2.53831
   R19        2.53714   0.00767   0.00102   0.00900   0.01002   2.54716
   R20        1.89915   0.00148   0.00014   0.00232   0.00245   1.90161
   R21        1.91090   0.00011   0.00037  -0.00162  -0.00125   1.90965
    A1        2.09605  -0.00318   0.00079  -0.01451  -0.01370   2.08234
    A2        2.02064   0.00206   0.00191  -0.00052   0.00141   2.02206
    A3        2.16649   0.00113  -0.00270   0.01503   0.01229   2.17878
    A4        2.15077   0.00036  -0.00042   0.00527   0.00486   2.15563
    A5        2.07521  -0.00384   0.00169  -0.02654  -0.02487   2.05034
    A6        2.05720   0.00348  -0.00126   0.02127   0.02001   2.07721
    A7        1.90616  -0.00168   0.00248  -0.02243  -0.01992   1.88624
    A8        1.94046   0.00084  -0.00071   0.00845   0.00774   1.94820
    A9        1.94046   0.00084  -0.00071   0.00845   0.00775   1.94821
   A10        1.90044   0.00049  -0.00083   0.00737   0.00657   1.90701
   A11        1.90040   0.00050  -0.00083   0.00742   0.00661   1.90702
   A12        1.87501  -0.00097   0.00053  -0.00877  -0.00826   1.86675
   A13        2.06814   0.00859   0.00029   0.03011   0.03044   2.09858
   A14        2.06951  -0.00536  -0.00111  -0.01603  -0.01716   2.05235
   A15        2.11726  -0.00528  -0.00155  -0.00901  -0.01051   2.10675
   A16        2.09641   0.01064   0.00265   0.02504   0.02767   2.12409
   A17        1.97524  -0.00024   0.00040  -0.00292  -0.00252   1.97272
   A18        2.15164   0.00765   0.00032   0.02715   0.02747   2.17911
   A19        2.15631  -0.00741  -0.00072  -0.02423  -0.02495   2.13135
   A20        2.00512   0.00328   0.00439  -0.00998  -0.00559   1.99953
   A21        1.83969   0.00132   0.00363  -0.00940  -0.00577   1.83392
   A22        1.94246  -0.00106  -0.00023  -0.00602  -0.00627   1.93620
   A23        1.94247  -0.00107  -0.00023  -0.00603  -0.00627   1.93619
   A24        1.92003   0.00050  -0.00142   0.01193   0.01051   1.93054
   A25        1.91998   0.00050  -0.00143   0.01199   0.01057   1.93054
   A26        1.89884  -0.00012  -0.00037  -0.00201  -0.00242   1.89643
   A27        2.13273   0.01028   0.00082   0.03279   0.03360   2.16633
   A28        2.10498  -0.00582   0.00096  -0.02325  -0.02227   2.08270
   A29        2.04548  -0.00447  -0.00177  -0.00954  -0.01132   2.03416
   A30        2.06938  -0.00153   0.00124  -0.01537  -0.01413   2.05525
   A31        2.06172   0.00124  -0.00113   0.01311   0.01197   2.07370
   A32        2.15208   0.00029  -0.00011   0.00226   0.00215   2.15424
   A33        2.03429   0.00522   0.00132   0.01365   0.01492   2.04922
    D1        0.00000  -0.00000   0.00000  -0.00002  -0.00002  -0.00001
    D2        3.14156   0.00000   0.00000   0.00001   0.00001   3.14157
    D3       -3.14158  -0.00000  -0.00000  -0.00001  -0.00001   3.14159
    D4       -0.00002   0.00000  -0.00000   0.00001   0.00001  -0.00001
    D5       -3.14157  -0.00000  -0.00000  -0.00001  -0.00001  -3.14158
    D6        0.00001  -0.00000   0.00000  -0.00001  -0.00001   0.00000
    D7       -3.14132  -0.00000   0.00000  -0.00007  -0.00007  -3.14139
    D8        1.04437  -0.00005  -0.00013   0.00005  -0.00006   1.04432
    D9       -1.04387   0.00005   0.00013  -0.00014  -0.00002  -1.04389
   D10        0.00031  -0.00000   0.00000  -0.00010  -0.00009   0.00021
   D11       -2.09719  -0.00005  -0.00013   0.00003  -0.00008  -2.09727
   D12        2.09776   0.00005   0.00013  -0.00016  -0.00005   2.09771
   D13        0.00002  -0.00000   0.00000  -0.00001  -0.00001   0.00000
   D14        3.14158   0.00000   0.00000   0.00001   0.00001   3.14159
   D15       -3.14159   0.00000  -0.00000   0.00002   0.00002  -3.14157
   D16       -0.00000   0.00000  -0.00000   0.00002   0.00002   0.00002
   D17        0.00007  -0.00000  -0.00000  -0.00021  -0.00021  -0.00014
   D18        3.14155   0.00000   0.00001   0.00017   0.00018  -3.14145
   D19       -3.14152  -0.00000  -0.00000  -0.00020  -0.00021   3.14146
   D20       -0.00004   0.00000   0.00001   0.00017   0.00018   0.00015
   D21        3.14156   0.00000  -0.00000   0.00002   0.00002   3.14158
   D22       -0.00001  -0.00000   0.00000  -0.00002  -0.00002  -0.00003
   D23       -0.00004   0.00000   0.00000   0.00002   0.00002  -0.00002
   D24        3.14158  -0.00000   0.00000  -0.00002  -0.00002   3.14156
   D25        3.14151   0.00000   0.00000   0.00022   0.00022  -3.14146
   D26        0.00003  -0.00000  -0.00001  -0.00016  -0.00016  -0.00014
   D27       -3.14158  -0.00000   0.00000  -0.00003  -0.00002   3.14158
   D28        1.06061  -0.00082  -0.00039  -0.00547  -0.00583   1.05478
   D29       -1.06064   0.00082   0.00039   0.00549   0.00584  -1.05480
   D30        3.14155  -0.00000   0.00000  -0.00002  -0.00002   3.14153
   D31        0.00005   0.00000   0.00000  -0.00001  -0.00001   0.00004
   D32       -0.00006   0.00000   0.00000   0.00002   0.00002  -0.00004
   D33       -3.14157   0.00000   0.00000   0.00003   0.00003  -3.14154
   D34        0.00000   0.00000  -0.00000   0.00002   0.00002   0.00002
   D35       -3.14157  -0.00000   0.00000  -0.00002  -0.00002  -3.14159
         Item               Value     Threshold  Converged?
 Maximum Force            0.013617     0.000450     NO 
 RMS     Force            0.003671     0.000300     NO 
 Maximum Displacement     0.202592     0.001800     NO 
 RMS     Displacement     0.047188     0.001200     NO 
 Predicted change in Energy=-1.726320D-03
 GradGradGradGradGradGradGradGradGradGradGradGradGradGradGradGradGradGrad

                          Input orientation:                          
 ---------------------------------------------------------------------
 Center     Atomic      Atomic             Coordinates (Angstroms)
 Number     Number       Type             X           Y           Z
 ---------------------------------------------------------------------
      1         17           0       -4.133989    1.010788   -0.313469
      2          6           0       -2.407546    0.766969   -0.171014
      3          6           0       -1.889711   -0.545419   -0.208578
      4          6           0       -2.744001   -1.768773   -0.366132
      5          7           0       -0.574278   -0.688405   -0.097290
      6          6           0        0.209519    0.384184    0.044028
      7          6           0        1.668397    0.156936    0.162970
      8          8           0        2.001839   -1.134954    0.109980
      9          6           0        3.404835   -1.392216    0.222040
     10          8           0        2.506096    1.040926    0.297147
     11          6           0       -0.352017    1.700643    0.077874
     12          7           0        0.370288    2.824553    0.216895
     13          7           0       -1.686626    1.852269   -0.034624
     14          1           0       -2.089955   -2.640715   -0.362464
     15          1           0       -3.311901   -1.746793   -1.302988
     16          1           0       -3.472604   -1.859967    0.447176
     17          1           0        3.500067   -2.476245    0.160655
     18          1           0        3.794655   -1.024787    1.175820
     19          1           0        3.956671   -0.910530   -0.590434
     20          1           0       -0.124080    3.700957    0.228329
     21          1           0        1.374344    2.750578    0.304077
 ---------------------------------------------------------------------
                    Distance matrix (angstroms):
                    1          2          3          4          5
     1  Cl   0.000000
     2  C    1.749384   0.000000
     3  C    2.733051   1.411356   0.000000
     4  C    3.108183   2.565397   1.500410   0.000000
     5  N    3.950383   2.341883   1.327853   2.438682   0.000000
     6  C    4.403010   2.653639   2.309705   3.677871   1.335947
     7  C    5.884194   4.134851   3.645749   4.843301   2.410794
     8  O    6.513978   4.810296   3.948822   4.811591   2.622737
     9  C    7.930641   6.212918   5.379100   6.188370   4.053476
    10  O    6.668170   4.943492   4.700571   5.991483   3.554557
    11  C    3.864241   2.271320   2.737034   4.237403   2.405750
    12  N    4.884622   3.478575   4.079869   5.580086   3.651272
    13  N    2.602966   1.310040   2.412553   3.786804   2.774214
    14  H    4.184967   3.427802   2.110460   1.089987   2.485781
    15  H    3.042898   2.901417   2.159550   1.095762   3.173085
    16  H    3.042572   2.901258   2.159536   1.095741   3.173215
    17  H    8.406129   6.747469   5.737084   6.306061   4.456815
    18  H    8.320152   6.594820   5.870125   6.759079   4.563062
    19  H    8.320273   6.594935   5.870205   6.759134   4.563116
    20  H    4.859004   3.739249   4.619529   6.093875   4.424387
    21  H    5.809472   4.296873   4.666955   6.150974   3.973013
                    6          7          8          9         10
     6  C    0.000000
     7  C    1.481254   0.000000
     8  O    2.350434   1.335280   0.000000
     9  C    3.660236   2.327784   1.430782   0.000000
    10  O    2.402009   1.225227   2.241374   2.594909   0.000000
    11  C    1.431620   2.544081   3.685415   4.868316   2.941449
    12  N    2.451761   2.967183   4.283816   5.195156   2.783782
    13  N    2.399338   3.764222   4.748598   6.042808   4.283371
    14  H    3.821365   4.714673   4.385579   5.665078   5.925643
    15  H    4.330810   5.529610   5.532329   6.896810   6.646871
    16  H    4.330909   5.529788   5.532529   6.897003   6.646995
    17  H    4.361578   3.207595   2.011546   1.089934   3.657472
    18  H    4.014891   2.635016   2.088621   1.093919   2.588362
    19  H    4.014969   2.635014   2.088615   1.093918   2.588464
    20  H    3.338599   3.972068   5.283898   6.196264   3.741434
    21  H    2.650333   2.614069   3.940658   4.614365   2.050322
                   11         12         13         14         15
    11  C    0.000000
    12  N    1.343214   0.000000
    13  N    1.347897   2.288993   0.000000
    14  H    4.696990   6.021429   4.522948   0.000000
    15  H    4.748948   6.063478   4.147712   1.782368   0.000000
    16  H    4.748936   6.063462   4.147595   1.782359   1.761167
    17  H    5.682588   6.156065   6.758398   5.616854   7.005516
    18  H    5.082159   5.240538   6.307698   6.293343   7.561013
    19  H    5.082288   5.240684   6.307834   6.293425   7.351137
    20  H    2.018873   1.006288   2.434818   6.665621   6.495007
    21  H    2.033188   1.010546   3.207992   6.442956   6.691031
                   16         17         18         19         20
    16  H    0.000000
    17  H    7.005714   0.000000
    18  H    7.351292   1.795570   0.000000
    19  H    7.561229   1.795574   1.777345   0.000000
    20  H    6.494950   7.162182   6.211834   6.211981   0.000000
    21  H    6.691077   5.644373   4.568503   4.568618   1.776016
                   21
    21  H    0.000000
 Stoichiometry    C7H8ClN3O2
 Framework group  C1[X(C7H8ClN3O2)]
 Deg. of freedom    57
 Full point group                 C1      NOp   1
 Largest Abelian subgroup         C1      NOp   1
 Largest concise Abelian subgroup C1      NOp   1
                         Standard orientation:                         
 ---------------------------------------------------------------------
 Center     Atomic      Atomic             Coordinates (Angstroms)
 Number     Number       Type             X           Y           Z
 ---------------------------------------------------------------------
      1         17           0        3.659559    0.161515   -0.000032
      2          6           0        1.910176    0.159277   -0.000016
      3          6           0        1.220853   -1.072290    0.000013
      4          6           0        1.907971   -2.406118    0.000017
      5          7           0       -0.106374   -1.031497    0.000050
      6          6           0       -0.743411    0.142785    0.000055
      7          6           0       -2.224487    0.119817    0.000128
      8          8           0       -2.727716   -1.117006    0.000009
      9          6           0       -4.157218   -1.177538   -0.000101
     10          8           0       -2.940194    1.114274    0.000001
     11          6           0       -0.010086    1.372325    0.000001
     12          7           0       -0.579152    2.589037   -0.000009
     13          7           0        1.337359    1.337448   -0.000023
     14          1           0        1.141668   -3.181265   -0.000170
     15          1           0        2.547945   -2.530666    0.880708
     16          1           0        2.548232   -2.530518   -0.880460
     17          1           0       -4.395928   -2.241011   -0.000198
     18          1           0       -4.569014   -0.690346   -0.888767
     19          1           0       -4.569137   -0.690475    0.888578
     20          1           0        0.028925    3.390821    0.000003
     21          1           0       -1.587536    2.655098    0.000058
 ---------------------------------------------------------------------
 Rotational constants (GHZ):           1.4499595           0.4158911           0.3244999
 Standard basis: 6-31G(d,p) (6D, 7F)
 There are   239 symmetry adapted cartesian basis functions of A   symmetry.
 There are   239 symmetry adapted basis functions of A   symmetry.
   239 basis functions,   444 primitive gaussians,   239 cartesian basis functions
    52 alpha electrons       52 beta electrons
       nuclear repulsion energy       881.2823929232 Hartrees.
 NAtoms=   21 NActive=   21 NUniq=   21 SFac= 1.00D+00 NAtFMM=   60 NAOKFM=F Big=F
 Integral buffers will be    131072 words long.
 Raffenetti 2 integral format.
 Two-electron integral symmetry is turned on.
 Nuclear repulsion after empirical dispersion term =      881.2418674955 Hartrees.
 One-electron integrals computed using PRISM.
 NBasis=   239 RedAO= T EigKep=  8.73D-04  NBF=   239
 NBsUse=   239 1.00D-06 EigRej= -1.00D+00 NBFU=   239
 Initial guess from the checkpoint file:  "pyrz2_conf-1.chk"
 B after Tr=    -0.000000    0.000000    0.000000
         Rot=    0.999994   -0.000000    0.000000    0.003385 Ang=  -0.39 deg.
 ExpMin= 1.43D-01 ExpMax= 2.52D+04 ExpMxC= 3.78D+03 IAcc=3 IRadAn=         5 AccDes= 0.00D+00
 Harris functional with IExCor=  402 and IRadAn=       5 diagonalized for initial guess.
 HarFok:  IExCor=  402 AccDes= 0.00D+00 IRadAn=         5 IDoV= 1 UseB2=F ITyADJ=14
 ICtDFT=  3500011 ScaDFX=  1.000000  1.000000  1.000000  1.000000
 FoFCou: FMM=F IPFlag=           0 FMFlag=      100000 FMFlg1=           0
         NFxFlg=           0 DoJE=T BraDBF=F KetDBF=T FulRan=T
         wScrn=  0.000000 ICntrl=       500 IOpCl=  0 I1Cent=   200000004 NGrid=           0
         NMat0=    1 NMatS0=      1 NMatT0=    0 NMatD0=    1 NMtDS0=    0 NMtDT0=    0
 Petite list used in FoFCou.
 Requested convergence on RMS density matrix=1.00D-08 within 128 cycles.
 Requested convergence on MAX density matrix=1.00D-06.
 Requested convergence on             energy=1.00D-06.
 No special actions if energy rises.
 Integral accuracy reduced to 1.0D-05 until final iterations.
 Initial convergence to 1.0D-05 achieved.  Increase integral accuracy.
 SCF Done:  E(RB3LYP) =  -1046.53808359     A.U. after   12 cycles
            NFock= 12  Conv=0.56D-08     -V/T= 2.0064
 Calling FoFJK, ICntrl=      2127 FMM=F ISym2X=0 I1Cent= 0 IOpClX= 0 NMat=1 NMatS=1 NMatT=0.
 ***** Axes restored to original set *****
 -------------------------------------------------------------------
 Center     Atomic                   Forces (Hartrees/Bohr)
 Number     Number              X              Y              Z
 -------------------------------------------------------------------
      1       17          -0.004713077   -0.000203792   -0.000445520
      2        6           0.000932464    0.001656221    0.000192867
      3        6          -0.002435354   -0.000664214   -0.000264999
      4        6           0.000071710   -0.000471561   -0.000031914
      5        7          -0.000295047    0.000420090   -0.000002374
      6        6          -0.000169773    0.002050134    0.000108239
      7        6          -0.000674709    0.001579623    0.000077783
      8        8          -0.000754088   -0.002949415   -0.000270761
      9        6           0.003280231   -0.002817579    0.000118671
     10        8          -0.002701278    0.007322774    0.000211895
     11        6           0.002889034   -0.005625403   -0.000103530
     12        7           0.004210929    0.000061122    0.000390174
     13        7          -0.001084573   -0.000723377   -0.000145025
     14        1          -0.000533209   -0.000946865   -0.000111033
     15        1           0.000458746    0.000056825    0.000419192
     16        1           0.000518961    0.000103182   -0.000309884
     17        1           0.000686751    0.000363198    0.000085866
     18        1          -0.000563044   -0.000142999   -0.000655715
     19        1          -0.000669067   -0.000219735    0.000518941
[...]
                 (A) (A) (A) (A)
       Virtual   (A) (A) (A) (A) (A) (A) (A) (A) (A) (A) (A) (A)
                 (A) (A) (A) (A) (A) (A) (A) (A) (A) (A) (A) (A)
                 (A) (A) (A) (A) (A) (A) (A) (A) (A) (A) (A) (A)
                 (A) (A) (A) (A) (A) (A) (A) (A) (A) (A) (A) (A)
                 (A) (A) (A) (A) (A) (A) (A) (A) (A) (A) (A) (A)
                 (A) (A) (A) (A) (A) (A) (A) (A) (A) (A) (A) (A)
                 (A) (A) (A) (A) (A) (A) (A) (A) (A) (A) (A) (A)
                 (A) (A) (A) (A) (A) (A) (A) (A) (A) (A) (A) (A)
                 (A) (A) (A) (A) (A) (A) (A) (A) (A) (A) (A) (A)
                 (A) (A) (A) (A) (A) (A) (A) (A) (A) (A) (A) (A)
                 (A) (A) (A) (A) (A) (A) (A) (A) (A) (A) (A) (A)
                 (A) (A) (A) (A) (A) (A) (A) (A) (A) (A) (A) (A)
                 (A) (A) (A) (A) (A) (A) (A) (A) (A) (A) (A) (A)
                 (A) (A) (A) (A) (A) (A) (A) (A) (A) (A) (A) (A)
                 (A) (A) (A) (A) (A) (A) (A) (A) (A) (A) (A) (A)
                 (A) (A) (A) (A) (A) (A) (A) (A) (A) (A) (A) (A)
                 (A) (A) (A) (A) (A) (A) (A) (A) (A) (A) (A) (A)
                 (A) (A) (A) (A) (A) (A) (A) (A) (A) (A) (A) (A)
                 (A) (A) (A) (A) (A) (A) (A) (A) (A) (A) (A) (A)
                 (A) (A) (A) (A) (A) (A) (A) (A) (A) (A) (A) (A)
                 (A) (A) (A) (A) (A) (A) (A) (A) (A) (A) (A) (A)
                 (A) (A) (A) (A) (A) (A) (A) (A) (A) (A) (A) (A)
                 (A) (A) (A) (A) (A) (A) (A) (A) (A) (A) (A) (A)
                 (A) (A) (A) (A) (A) (A) (A) (A) (A) (A) (A) (A)
                 (A) (A) (A) (A) (A) (A) (A) (A) (A) (A) (A) (A)
                 (A) (A) (A) (A) (A) (A) (A) (A) (A) (A) (A) (A)
                 (A) (A) (A) (A) (A) (A) (A) (A) (A) (A) (A) (A)
                 (A) (A) (A) (A) (A) (A) (A) (A) (A) (A) (A) (A)
                 (A) (A) (A) (A) (A) (A) (A) (A) (A) (A) (A) (A)
                 (A) (A) (A) (A) (A) (A) (A) (A) (A) (A) (A) (A)
                 (A) (A) (A) (A) (A) (A) (A) (A) (A) (A) (A) (A)
                 (A) (A) (A) (A) (A) (A) (A) (A) (A) (A) (A) (A)
                 (A) (A) (A) (A) (A) (A) (A) (A) (A) (A) (A) (A)
                 (A) (A) (A) (A) (A) (A) (A) (A) (A)
 The electronic state is 1-A.
 Alpha  occ. eigenvalues -- -102.65547 -19.68025 -19.62964 -14.77993 -14.77697
 Alpha  occ. eigenvalues --  -14.77335 -10.68847 -10.65679 -10.64944 -10.59910
 Alpha  occ. eigenvalues --  -10.59877 -10.59706 -10.54037  -9.81805  -7.53992
 Alpha  occ. eigenvalues --   -7.53503  -7.53458  -1.24373  -1.14934  -1.12623
 Alpha  occ. eigenvalues --   -1.05543  -1.02557  -0.95373  -0.89256  -0.83543
 Alpha  occ. eigenvalues --   -0.80554  -0.75979  -0.73016  -0.67608  -0.64863
 Alpha  occ. eigenvalues --   -0.61958  -0.60779  -0.58839  -0.57934  -0.55019
 Alpha  occ. eigenvalues --   -0.54346  -0.52647  -0.50321  -0.49192  -0.47800
 Alpha  occ. eigenvalues --   -0.47682  -0.46642  -0.44119  -0.43549  -0.41993
 Alpha  occ. eigenvalues --   -0.40888  -0.38674  -0.38161  -0.37935  -0.36155
 Alpha  occ. eigenvalues --   -0.33415  -0.28183
 Alpha virt. eigenvalues --   -0.04490   0.00751   0.06899   0.07044   0.07139
 Alpha virt. eigenvalues --    0.08148   0.08526   0.10752   0.12434   0.13675
 Alpha virt. eigenvalues --    0.14298   0.14777   0.15121   0.15673   0.16952
 Alpha virt. eigenvalues --    0.18810   0.20169   0.20629   0.21722   0.22693
 Alpha virt. eigenvalues --    0.23439   0.23868   0.24339   0.25515   0.25944
 Alpha virt. eigenvalues --    0.26933   0.28057   0.28185   0.30659   0.31343
 Alpha virt. eigenvalues --    0.31755   0.32839   0.33752   0.34209   0.34455
 Alpha virt. eigenvalues --    0.34462   0.35597   0.36582   0.37720   0.39386
 Alpha virt. eigenvalues --    0.40169   0.40768   0.40917   0.41091   0.41374
 Alpha virt. eigenvalues --    0.44149   0.44900   0.44987   0.45659   0.46625
 Alpha virt. eigenvalues --    0.46643   0.47521   0.48764   0.49628   0.49723
 Alpha virt. eigenvalues --    0.49839   0.51341   0.52045   0.52689   0.53271
 Alpha virt. eigenvalues --    0.53614   0.54187   0.55613   0.56651   0.58733
 Alpha virt. eigenvalues --    0.59087   0.60455   0.61726   0.62021   0.62821
 Alpha virt. eigenvalues --    0.63061   0.63152   0.65077   0.66277   0.67143
 Alpha virt. eigenvalues --    0.68339   0.69056   0.69508   0.70665   0.72723
 Alpha virt. eigenvalues --    0.73343   0.73367   0.74547   0.76094   0.77587
 Alpha virt. eigenvalues --    0.78192   0.80253   0.82716   0.83409   0.83932
 Alpha virt. eigenvalues --    0.85478   0.86664   0.87399   0.89350   0.90613
 Alpha virt. eigenvalues --    0.93155   0.93515   0.95439   0.96337   0.96542
 Alpha virt. eigenvalues --    0.99125   1.01369   1.01486   1.03954   1.04227
 Alpha virt. eigenvalues --    1.05178   1.08421   1.11741   1.12206   1.13332
 Alpha virt. eigenvalues --    1.14162   1.14630   1.19565   1.20584   1.25335
 Alpha virt. eigenvalues --    1.27441   1.27902   1.31221   1.32909   1.34564
 Alpha virt. eigenvalues --    1.36314   1.37253   1.38459   1.43341   1.45343
 Alpha virt. eigenvalues --    1.46197   1.47966   1.48614   1.49992   1.51060
 Alpha virt. eigenvalues --    1.51067   1.51172   1.52350   1.53932   1.54484
 Alpha virt. eigenvalues --    1.55821   1.57153   1.57329   1.57600   1.60482
 Alpha virt. eigenvalues --    1.60951   1.61203   1.62439   1.62554   1.64897
 Alpha virt. eigenvalues --    1.65702   1.67342   1.70714   1.71689   1.72349
 Alpha virt. eigenvalues --    1.74534   1.75721   1.76806   1.77460   1.79137
 Alpha virt. eigenvalues --    1.79736   1.81791   1.83198   1.83703   1.84846
 Alpha virt. eigenvalues --    1.84951   1.87122   1.87231   1.88330   1.88889
 Alpha virt. eigenvalues --    1.89497   1.89695   1.93595   1.96327   1.96329
 Alpha virt. eigenvalues --    1.97222   2.00571   2.02309   2.03944   2.04683
 Alpha virt. eigenvalues --    2.05540   2.07925   2.08341   2.10035   2.10635
 Alpha virt. eigenvalues --    2.11918   2.12949   2.13261   2.14253   2.15488
 Alpha virt. eigenvalues --    2.16198   2.18481   2.19516   2.21154   2.22564
 Alpha virt. eigenvalues --    2.23447   2.25942   2.26354   2.28108   2.28408
 Alpha virt. eigenvalues --    2.30563   2.31307   2.32732   2.33128   2.33270
 Alpha virt. eigenvalues --    2.35321   2.36217   2.36792   2.39363   2.39687
 Alpha virt. eigenvalues --    2.41590   2.42127   2.42750   2.43641   2.47315
 Alpha virt. eigenvalues --    2.52706   2.52933   2.54801   2.54950   2.56281
 Alpha virt. eigenvalues --    2.57340   2.59250   2.61735   2.62982   2.65235
 Alpha virt. eigenvalues --    2.66623   2.67465   2.69297   2.72304   2.73366
 Alpha virt. eigenvalues --    2.74107   2.78621   2.80662   2.81284   2.83044
 Alpha virt. eigenvalues --    2.83843   2.86341   2.87356   2.90185   2.90193
 Alpha virt. eigenvalues --    2.92098   2.94729   2.94744   2.99897   3.00681
 Alpha virt. eigenvalues --    3.01484   3.04260   3.04506   3.04973   3.06440
 Alpha virt. eigenvalues --    3.06472   3.07589   3.09578   3.10659   3.12019
 Alpha virt. eigenvalues --    3.13611   3.14968   3.15508   3.16158   3.17866
 Alpha virt. eigenvalues --    3.17977   3.20440   3.21480   3.22896   3.24555
 Alpha virt. eigenvalues --    3.24853   3.26075   3.26352   3.27387   3.28114
 Alpha virt. eigenvalues --    3.29670   3.30715   3.32088   3.32685   3.33509
 Alpha virt. eigenvalues --    3.33651   3.36622   3.37693   3.38724   3.39316
 Alpha virt. eigenvalues --    3.39763   3.41208   3.44508   3.46019   3.46247
 Alpha virt. eigenvalues --    3.47304   3.50487   3.53404   3.55091   3.55504
 Alpha virt. eigenvalues --    3.57684   3.59284   3.63451   3.64126   3.65312
 Alpha virt. eigenvalues --    3.68957   3.71426   3.73092   3.73374   3.74923
 Alpha virt. eigenvalues --    3.79269   3.81061   3.82325   3.84910   3.85298
 Alpha virt. eigenvalues --    3.92405   3.96290   4.00271   4.00462   4.03590
 Alpha virt. eigenvalues --    4.06591   4.06857   4.09885   4.13240   4.14641
 Alpha virt. eigenvalues --    4.14767   4.17347   4.20173   4.22759   4.22896
 Alpha virt. eigenvalues --    4.23464   4.26213   4.27356   4.32440   4.32692
 Alpha virt. eigenvalues --    4.36663   4.40419   4.46269   4.46445   4.51617
 Alpha virt. eigenvalues --    4.56033   4.56398   4.59146   4.64974   4.66560
 Alpha virt. eigenvalues --    4.71260   4.72317   4.72870   4.75280   4.79408
 Alpha virt. eigenvalues --    4.80167   4.83885   4.93709   4.95976   4.98923
 Alpha virt. eigenvalues --    5.01089   5.03018   5.05751   5.09814   5.10700
 Alpha virt. eigenvalues --    5.13506   5.14790   5.16857   5.18004   5.22084
 Alpha virt. eigenvalues --    5.23424   5.24356   5.28104   5.28682   5.30777
 Alpha virt. eigenvalues --    5.32839   5.37989   5.42717   5.46053   5.48973
 Alpha virt. eigenvalues --    5.50300   5.54591   5.58728   5.60184   5.65735
 Alpha virt. eigenvalues --    5.66014   5.68016   5.77272   5.82791   5.87571
 Alpha virt. eigenvalues --    5.94299   5.95080   6.02292   6.10183   6.12203
 Alpha virt. eigenvalues --    6.13383   6.34103   6.35268   6.42595   6.58444
 Alpha virt. eigenvalues --    6.63661   6.70199   6.74410   6.85917   6.93835
 Alpha virt. eigenvalues --    7.02738   7.12185   7.28490   7.41077  10.80848
 Alpha virt. eigenvalues --   10.88049  11.40392  22.42982  22.51540  22.71814
 Alpha virt. eigenvalues --   23.05200  23.19056  23.28215  23.51869  25.87824
 Alpha virt. eigenvalues --   32.19009  32.57785  32.88902  44.05622  44.29298
          Condensed to atoms (all electrons):
               1          2          3          4          5          6
     1  Cl  16.835876   0.372040  -0.089603   0.013927   0.006643  -0.001000
     2  C    0.372040   4.771046   0.439173  -0.092079  -0.049837  -0.042172
     3  C   -0.089603   0.439173   5.142377   0.231979   0.529406  -0.107001
     4  C    0.013927  -0.092079   0.231979   5.153249  -0.069359   0.002437
     5  N    0.006643  -0.049837   0.529406  -0.069359   6.429690   0.454619
     6  C   -0.001000  -0.042172  -0.107001   0.002437   0.454619   5.259829
     7  C   -0.000078   0.000666  -0.002359  -0.001889  -0.031888   0.284767
     8  O   -0.000000   0.000133  -0.000826  -0.000322  -0.016088  -0.100590
     9  C   -0.000000  -0.000007   0.000061   0.000007  -0.000162   0.007196
    10  O   -0.000001   0.000697  -0.000729  -0.000020   0.004284  -0.075283
    11  C    0.002073  -0.053168  -0.025773   0.003275  -0.076204   0.461675
    12  N   -0.000325   0.002009   0.001830   0.000169   0.004448  -0.087411
    13  N   -0.082847   0.557239  -0.068590   0.006588  -0.007584  -0.042082
    14  H    0.000770   0.005388  -0.066855   0.429342   0.010365  -0.000195
    15  H    0.000538  -0.001375  -0.041594   0.408506   0.000906  -0.000184
    16  H    0.000538  -0.001376  -0.041600   0.408516   0.000908  -0.000184
    17  H   -0.000000  -0.000002  -0.000005   0.000004  -0.000085   0.003196
    18  H    0.000000  -0.000000  -0.000004  -0.000001  -0.000117  -0.002862
    19  H    0.000000  -0.000000  -0.000004  -0.000001  -0.000118  -0.002860
    20  H   -0.000234   0.000727   0.000465  -0.000012  -0.000458   0.008726
    21  H    0.000011  -0.000478   0.000203   0.000005   0.000204  -0.001756
               7          8          9         10         11         12
     1  Cl  -0.000078  -0.000000  -0.000000  -0.000001   0.002073  -0.000325
     2  C    0.000666   0.000133  -0.000007   0.000697  -0.053168   0.002009
     3  C   -0.002359  -0.000826   0.000061  -0.000729  -0.025773   0.001830
     4  C   -0.001889  -0.000322   0.000007  -0.000020   0.003275   0.000169
     5  N   -0.031888  -0.016088  -0.000162   0.004284  -0.076204   0.004448
     6  C    0.284767  -0.100590   0.007196  -0.075283   0.461675  -0.087411
     7  C    4.490364   0.420009  -0.053525   0.550214  -0.052822   0.000447
     8  O    0.420009   7.888365   0.213143  -0.071848   0.000855  -0.000196
     9  C   -0.053525   0.213143   4.859691  -0.001317   0.000213  -0.000036
    10  O    0.550214  -0.071848  -0.001317   8.036732  -0.006863  -0.033564
    11  C   -0.052822   0.000855   0.000213  -0.006863   4.609178   0.388920
    12  N    0.000447  -0.000196  -0.000036  -0.033564   0.388920   6.606744
    13  N    0.004093  -0.000131   0.000020   0.000016   0.486298  -0.108554
    14  H   -0.000304   0.000145   0.000001   0.000003   0.000232  -0.000006
    15  H    0.000011  -0.000001   0.000000  -0.000000   0.000174  -0.000005
    16  H    0.000011  -0.000001   0.000000  -0.000000   0.000174  -0.000005
    17  H    0.003543  -0.030788   0.396964   0.001379   0.000055   0.000003
    18  H   -0.008682  -0.033310   0.419747   0.004801   0.000038  -0.000016
    19  H   -0.008684  -0.033308   0.419749   0.004799   0.000038  -0.000016
    20  H   -0.001007   0.000025  -0.000008   0.002130  -0.034167   0.361655
    21  H   -0.010767   0.000332  -0.000003   0.020306  -0.024999   0.374591
              13         14         15         16         17         18
     1  Cl  -0.082847   0.000770   0.000538   0.000538  -0.000000   0.000000
     2  C    0.557239   0.005388  -0.001375  -0.001376  -0.000002  -0.000000
     3  C   -0.068590  -0.066855  -0.041594  -0.041600  -0.000005  -0.000004
     4  C    0.006588   0.429342   0.408506   0.408516   0.000004  -0.000001
     5  N   -0.007584   0.010365   0.000906   0.000908  -0.000085  -0.000117
     6  C   -0.042082  -0.000195  -0.000184  -0.000184   0.003196  -0.002862
     7  C    0.004093  -0.000304   0.000011   0.000011   0.003543  -0.008682
     8  O   -0.000131   0.000145  -0.000001  -0.000001  -0.030788  -0.033310
     9  C    0.000020   0.000001   0.000000   0.000000   0.396964   0.419747
    10  O    0.000016   0.000003  -0.000000  -0.000000   0.001379   0.004801
    11  C    0.486298   0.000232   0.000174   0.000174   0.000055   0.000038
    12  N   -0.108554  -0.000006  -0.000005  -0.000005   0.000003  -0.000016
    13  N    6.474532  -0.000404   0.000032   0.000032  -0.000001   0.000001
    14  H   -0.000404   0.497863  -0.018774  -0.018774  -0.000001  -0.000000
    15  H    0.000032  -0.018774   0.528062  -0.037788   0.000000  -0.000000
    16  H    0.000032  -0.018774  -0.037788   0.528061   0.000000   0.000000
    17  H   -0.000001  -0.000001   0.000000   0.000000   0.523051  -0.024206
    18  H    0.000001  -0.000000  -0.000000   0.000000  -0.024206   0.533781
    19  H    0.000001  -0.000000   0.000000  -0.000000  -0.024207  -0.041894
    20  H    0.008991   0.000001   0.000000   0.000000  -0.000000  -0.000001
    21  H    0.003499  -0.000000  -0.000000  -0.000000   0.000002  -0.000008
              19         20         21
     1  Cl   0.000000  -0.000234   0.000011
     2  C   -0.000000   0.000727  -0.000478
     3  C   -0.000004   0.000465   0.000203
     4  C   -0.000001  -0.000012   0.000005
     5  N   -0.000118  -0.000458   0.000204
     6  C   -0.002860   0.008726  -0.001756
     7  C   -0.008684  -0.001007  -0.010767
     8  O   -0.033308   0.000025   0.000332
     9  C    0.419749  -0.000008  -0.000003
    10  O    0.004799   0.002130   0.020306
    11  C    0.000038  -0.034167  -0.024999
    12  N   -0.000016   0.361655   0.374591
    13  N    0.000001   0.008991   0.003499
    14  H   -0.000000   0.000001  -0.000000
    15  H    0.000000   0.000000  -0.000000
    16  H   -0.000000   0.000000  -0.000000
    17  H   -0.024207  -0.000000   0.000002
    18  H   -0.041894  -0.000001  -0.000008
    19  H    0.533779  -0.000001  -0.000008
    20  H   -0.000001   0.410822  -0.018213
    21  H   -0.000008  -0.018213   0.351892
 Mulliken charges:
               1
     1  Cl  -0.058328
     2  C    0.091376
     3  C    0.099451
     4  C   -0.494323
     5  N   -0.189572
     6  C   -0.018864
     7  C    0.417879
     8  O   -0.235598
     9  C   -0.261735
    10  O   -0.435738
    11  C    0.320797
    12  N   -0.510681
    13  N   -0.231150
    14  H    0.161203
    15  H    0.161491
    16  H    0.161489
    17  H    0.151097
    18  H    0.152733
    19  H    0.152733
    20  H    0.260556
    21  H    0.305186
 Sum of Mulliken charges =  -0.00000
 Mulliken charges with hydrogens summed into heavy atoms:
               1
     1  Cl  -0.058328
     2  C    0.091376
     3  C    0.099451
     4  C   -0.010140
     5  N   -0.189572
     6  C   -0.018864
     7  C    0.417879
     8  O   -0.235598
     9  C    0.194828
    10  O   -0.435738
    11  C    0.320797
    12  N    0.055061
    13  N   -0.231150
 Electronic spatial extent (au):  <R**2>=           3181.0183
 Charge=             -0.0000 electrons
 Dipole moment (field-independent basis, Debye):
    X=             -1.3585    Y=             -0.2584    Z=             -0.0000  Tot=              1.3829
 Quadrupole moment (field-independent basis, Debye-Ang):
   XX=            -78.1044   YY=            -75.4470   ZZ=            -82.1317
   XY=              0.3414   XZ=              0.0003   YZ=              0.0001
 Traceless Quadrupole moment (field-independent basis, Debye-Ang):
   XX=              0.4566   YY=              3.1140   ZZ=             -3.5706
   XY=              0.3414   XZ=              0.0003   YZ=              0.0001
 Octapole moment (field-independent basis, Debye-Ang**2):
  XXX=            -55.9641  YYY=             29.7569  ZZZ=              0.0003  XYY=             -4.7485
  XXY=            -37.0924  XXZ=             -0.0013  XZZ=             -4.3867  YZZ=             -1.0542
  YYZ=             -0.0002  XYZ=              0.0000
 Hexadecapole moment (field-independent basis, Debye-Ang**3):
 XXXX=          -2790.5879 YYYY=           -830.4831 ZZZZ=            -96.2902 XXXY=            116.7753
 XXXZ=              0.0039 YYYX=            -11.6838 YYYZ=              0.0014 ZZZX=              0.0000
 ZZZY=             -0.0003 XXYY=           -652.6125 XXZZ=           -509.2298 YYZZ=           -188.9375
 XXYZ=              0.0001 YYXZ=              0.0019 ZZXY=             -1.0035
 N-N= 8.801861459432D+02 E-N=-4.223828817845D+03  KE= 1.043099186931D+03
 Unable to Open any file for archive entry.
 1\1\GINC-COMPUTE-0-35\SP\RM062X\def2TZVP\C7H8Cl1N3O2\ZTAN64\14-Aug-202
 4\0\\# M062X/def2tzvp int=(grid=ultrafine) nmr=giao guess=read geom=ch
 eck\\pyrz2.xyz\\0,1\Cl,0,-4.1532870887,1.0213266791,-0.3146276585\C,0,
 -2.4167428619,0.7702073075,-0.1716899299\C,0,-1.9094368944,-0.54979316
 08,-0.2106690589\C,0,-2.7712632546,-1.7684504454,-0.3685985858\N,0,-0.
 5932924963,-0.7018544128,-0.0998677144\C,0,0.2001945238,0.3648898704,0
 .0419578475\C,0,1.6606697873,0.1571331504,0.1623622134\O,0,2.022736172
 8,-1.1309139622,0.1122120931\C,0,3.4339330226,-1.371299921,0.226052113
 2\O,0,2.4696888716,1.0709790954,0.2957230742\C,0,-0.3465603252,1.68223
 03467,0.07716455\N,0,0.3964553986,2.7959899031,0.2174382812\N,0,-1.684
 0470303,1.8462780956,-0.0348256703\H,0,-2.1313457141,-2.6514268034,-0.
 3670299881\H,0,-3.3391181522,-1.7384469432,-1.3042629187\H,0,-3.499588
 9398,-1.851621713,0.444695336\H,0,3.5485048754,-2.4527049579,0.1665808
 647\H,0,3.8128852407,-0.9947926261,1.1791410218\H,0,3.9747859888,-0.88
 05347271,-0.5865785986\H,0,-0.0748291396,3.685566019,0.2318226059\H,0,
 1.3996580157,2.6972392057,0.3030001225\\Version=ES64L-G16RevC.01\State
 =1-A\HF=-1046.4836609\RMSD=3.824e-09\Dipole=0.5149016,-0.1720135,0.036
 067\Quadrupole=0.2827999,2.3264071,-2.609207,-0.0117651,0.2687351,0.32
 14152\PG=C01 [X(C7H8Cl1N3O2)]\\@
 The archive entry for this job was punched.


 CHRISTMAS IS ON TOP OF A STEEP HILL.
 THE CLOSER YOU GET, THE STEEPER THE HILL IS.
          -- LINUS, OF PEANUTS
 Job cpu time:       0 days  0 hours 27 minutes 27.3 seconds.
 Elapsed time:       0 days  0 hours  1 minutes 50.0 seconds.
 File lengths (MBytes):  RWF=    120 Int=      0 D2E=      0 Chk=     20 Scr=      1
 Normal termination of Gaussian 16 at Wed Aug 14 20:41:40 2024.
 
 
-----Kestrel cluster job statistics-----
Time info:

real	10m1.861s
user	157m5.339s
sys	0m16.238s
 
Disk space usage:
20M	/scratch/363000.kestrel.chem.wisc.edu
