 Entering Gaussian System, Link 0=/share/apps/gaussian/g16/g16
 Initial command:
 /share/apps/gaussian/g16/l1.exe "/scratch/363663.kestrel.chem.wisc.edu/Gau-110446.inp" -scrdir="/scratch/363663.kestrel.chem.wisc.edu/"
 Entering Link 1 = /share/apps/gaussian/g16/l1.exe PID=    110456.
  
 Copyright (c) 1988-2019, Gaussian, Inc.  All Rights Reserved.
  
 This is part of the Gaussian(R) 16 program.  It is based on
 the Gaussian(R) 09 system (copyright 2009, Gaussian, Inc.),
 the Gaussian(R) 03 system (copyright 2003, Gaussian, Inc.),
 the Gaussian(R) 98 system (copyright 1998, Gaussian, Inc.),
 the Gaussian(R) 94 system (copyright 1995, Gaussian, Inc.),
 the Gaussian 92(TM) system (copyright 1992, Gaussian, Inc.),
 the Gaussian 90(TM) system (copyright 1990, Gaussian, Inc.),
 the Gaussian 88(TM) system (copyright 1988, Gaussian, Inc.),
 the Gaussian 86(TM) system (copyright 1986, Carnegie Mellon
 University), and the Gaussian 82(TM) system (copyright 1983,
 Carnegie Mellon University). Gaussian is a federally registered
 trademark of Gaussian, Inc.
  
 This software contains proprietary and confidential information,
 including trade secrets, belonging to Gaussian, Inc.
  
 This software is provided under written license and may be
 used, copied, transmitted, or stored only in accord with that
 written license.
  
 The following legend is applicable only to US Government
 contracts under FAR:
  
                    RESTRICTED RIGHTS LEGEND
  
 Use, reproduction and disclosure by the US Government is
 subject to restrictions as set forth in subparagraphs (a)
 and (c) of the Commercial Computer Software - Restricted
 Rights clause in FAR 52.227-19.
  
 Gaussian, Inc.
 340 Quinnipiac St., Bldg. 40, Wallingford CT 06492
  
  
 ---------------------------------------------------------------
 Warning -- This program may not be used in any manner that
 competes with the business of Gaussian, Inc. or will provide
 assistance to any competitor of Gaussian, Inc.  The licensee
 of this program is prohibited from giving any competitor of
 Gaussian, Inc. access to this program.  By using this program,
 the user acknowledges that Gaussian, Inc. is engaged in the
 business of creating and licensing software in the field of
 computational chemistry and represents and warrants to the
 licensee that it is not a competitor of Gaussian, Inc. and that
 it will not use this program in any manner prohibited above.
 ---------------------------------------------------------------
  

 Cite this work as:
 Gaussian 16, Revision C.01,
 M. J. Frisch, G. W. Trucks, H. B. Schlegel, G. E. Scuseria, 
 M. A. Robb, J. R. Cheeseman, G. Scalmani, V. Barone, 
 G. A. Petersson, H. Nakatsuji, X. Li, M. Caricato, A. V. Marenich, 
 J. Bloino, B. G. Janesko, R. Gomperts, B. Mennucci, H. P. Hratchian, 
 J. V. Ortiz, A. F. Izmaylov, J. L. Sonnenberg, D. Williams-Young, 
 F. Ding, F. Lipparini, F. Egidi, J. Goings, B. Peng, A. Petrone, 
 T. Henderson, D. Ranasinghe, V. G. Zakrzewski, J. Gao, N. Rega, 
 G. Zheng, W. Liang, M. Hada, M. Ehara, K. Toyota, R. Fukuda, 
 J. Hasegawa, M. Ishida, T. Nakajima, Y. Honda, O. Kitao, H. Nakai, 
 T. Vreven, K. Throssell, J. A. Montgomery, Jr., J. E. Peralta, 
 F. Ogliaro, M. J. Bearpark, J. J. Heyd, E. N. Brothers, K. N. Kudin, 
 V. N. Staroverov, T. A. Keith, R. Kobayashi, J. Normand, 
 K. Raghavachari, A. P. Rendell, J. C. Burant, S. S. Iyengar, 
 J. Tomasi, M. Cossi, J. M. Millam, M. Klene, C. Adamo, R. Cammi, 
 J. W. Ochterski, R. L. Martin, K. Morokuma, O. Farkas, 
 J. B. Foresman, and D. J. Fox, Gaussian, Inc., Wallingford CT, 2019.
 
 ******************************************
 Gaussian 16:  ES64L-G16RevC.01  3-Jul-2019
                16-Aug-2024 
 ******************************************
 %nprocs=16
 Will use up to   16 processors via shared memory.
 %mem=16GB
 %chk=pyrmd2_conf-2.chk
 ----------------------------------------------------------------------
 # B3LYP/6-31G(d,p) symmetry=loose empiricaldispersion=GD3BJ int=(grid=
 ultrafine) opt=calcfc freq=noraman
 ----------------------------------------------------------------------
 1/10=4,18=20,19=15,26=4,38=1/1,3;
 2/9=110,12=2,17=4,18=3,40=1/2;
 3/5=1,6=6,7=101,11=2,25=1,30=1,71=2,74=-5,75=-5,124=41,140=1/1,2,3;
 4//1;
 5/5=2,38=5/2;
 8/6=4,10=90,11=11/1;
 11/6=1,8=1,9=11,15=111,16=1/1,2,10;
 10/6=1,13=1/2;
 6/7=2,8=2,9=2,10=2,28=1/1;
 7/10=1,25=1/1,2,3,16;
 1/10=4,18=20,19=15,26=4/3(2);
 2/9=110/2;
 99//99;
 2/9=110/2;
 3/5=1,6=6,7=101,11=2,25=1,30=1,71=1,74=-5,75=-5,124=41/1,2,3;
 4/5=5,16=3,69=1/1;
 5/5=2,38=5/2;
 7//1,2,3,16;
 1/18=20,19=15,26=4/3(-5);
 2/9=110/2;
 6/7=2,8=2,9=2,10=2,19=2,28=1/1;
 99/9=1/99;
 ----------
 pyrmd2.xyz
 ----------
 Symbolic Z-matrix:
 Charge =  0 Multiplicity = 1
 Cl                    3.5518    0.8378   -3.1456 
 C                     2.9951    0.3997   -1.5733 
 C                     3.263     1.2463   -0.4957 
 C                     2.7949    0.855     0.7602 
 Cl                    3.0995    1.8656    2.1238 
 N                     2.105    -0.3004    0.9422 
 C                     1.8908   -1.0621   -0.1647 
 C                     1.1205   -2.3736   -0.022 
 C                     0.6315   -2.7457    1.3764 
 C                    -0.6369   -2.3418    1.8022 
 C                    -1.092    -2.7007    3.0684 
 C                    -0.2798   -3.4671    3.9021 
 C                     0.9834   -3.878     3.481 
 C                     1.4389   -3.5192    2.2148 
 N                     2.3075   -0.7624   -1.4225 
 H                     3.8099    2.1665   -0.6277 
 H                     1.7515   -3.1791   -0.3997 
 H                     0.2635   -2.3375   -0.6959 
 H                    -1.2659   -1.7432    1.1589 
 H                    -2.0692   -2.3842    3.4036 
 H                    -0.6321   -3.7434    4.8856 
 H                     1.6078   -4.47      4.1346 
 H                     2.4207   -3.8344    1.8918 
 

 GradGradGradGradGradGradGradGradGradGradGradGradGradGradGradGradGradGrad
 Berny optimization.
 Initialization pass.
                           ----------------------------
                           !    Initial Parameters    !
                           ! (Angstroms and Degrees)  !
 --------------------------                            --------------------------
 ! Name  Definition              Value          Derivative Info.                !
 --------------------------------------------------------------------------------
 ! R1    R(1,2)                  1.7245         calculate D2E/DX2 analytically  !
 ! R2    R(2,3)                  1.3963         calculate D2E/DX2 analytically  !
 ! R3    R(2,15)                 1.3587         calculate D2E/DX2 analytically  !
 ! R4    R(3,4)                  1.3963         calculate D2E/DX2 analytically  !
 ! R5    R(3,16)                 1.0786         calculate D2E/DX2 analytically  !
 ! R6    R(4,5)                  1.7244         calculate D2E/DX2 analytically  !
 ! R7    R(4,6)                  1.358          calculate D2E/DX2 analytically  !
 ! R8    R(6,7)                  1.3606         calculate D2E/DX2 analytically  !
 ! R9    R(7,8)                  1.5277         calculate D2E/DX2 analytically  !
 ! R10   R(7,15)                 1.3585         calculate D2E/DX2 analytically  !
 ! R11   R(8,9)                  1.5274         calculate D2E/DX2 analytically  !
 ! R12   R(8,17)                 1.0907         calculate D2E/DX2 analytically  !
 ! R13   R(8,18)                 1.0908         calculate D2E/DX2 analytically  !
 ! R14   R(9,10)                 1.3976         calculate D2E/DX2 analytically  !
 ! R15   R(9,14)                 1.3975         calculate D2E/DX2 analytically  !
 ! R16   R(10,11)                1.3925         calculate D2E/DX2 analytically  !
 ! R17   R(10,19)                1.0806         calculate D2E/DX2 analytically  !
 ! R18   R(11,12)                1.3936         calculate D2E/DX2 analytically  !
 ! R19   R(11,20)                1.0805         calculate D2E/DX2 analytically  !
 ! R20   R(12,13)                1.3935         calculate D2E/DX2 analytically  !
 ! R21   R(12,21)                1.0806         calculate D2E/DX2 analytically  !
 ! R22   R(13,14)                1.3927         calculate D2E/DX2 analytically  !
 ! R23   R(13,22)                1.0805         calculate D2E/DX2 analytically  !
 ! R24   R(14,23)                1.0806         calculate D2E/DX2 analytically  !
 ! A1    A(1,2,3)              119.1867         calculate D2E/DX2 analytically  !
 ! A2    A(1,2,15)             118.8062         calculate D2E/DX2 analytically  !
 ! A3    A(3,2,15)             122.0071         calculate D2E/DX2 analytically  !
 ! A4    A(2,3,4)              117.3823         calculate D2E/DX2 analytically  !
 ! A5    A(2,3,16)             121.3404         calculate D2E/DX2 analytically  !
 ! A6    A(4,3,16)             121.2774         calculate D2E/DX2 analytically  !
 ! A7    A(3,4,5)              119.1975         calculate D2E/DX2 analytically  !
 ! A8    A(3,4,6)              121.9599         calculate D2E/DX2 analytically  !
 ! A9    A(5,4,6)              118.8426         calculate D2E/DX2 analytically  !
 ! A10   A(4,6,7)              116.5681         calculate D2E/DX2 analytically  !
 ! A11   A(6,7,8)              118.9464         calculate D2E/DX2 analytically  !
 ! A12   A(6,7,15)             125.5512         calculate D2E/DX2 analytically  !
 ! A13   A(8,7,15)             115.5023         calculate D2E/DX2 analytically  !
 ! A14   A(7,8,9)              117.1346         calculate D2E/DX2 analytically  !
 ! A15   A(7,8,17)             108.0564         calculate D2E/DX2 analytically  !
 ! A16   A(7,8,18)             108.061          calculate D2E/DX2 analytically  !
 ! A17   A(9,8,17)             108.8041         calculate D2E/DX2 analytically  !
 ! A18   A(9,8,18)             108.7924         calculate D2E/DX2 analytically  !
 ! A19   A(17,8,18)            105.3682         calculate D2E/DX2 analytically  !
 ! A20   A(8,9,10)             119.9385         calculate D2E/DX2 analytically  !
 ! A21   A(8,9,14)             119.9407         calculate D2E/DX2 analytically  !
 ! A22   A(10,9,14)            120.0994         calculate D2E/DX2 analytically  !
 ! A23   A(9,10,11)            119.9431         calculate D2E/DX2 analytically  !
 ! A24   A(9,10,19)            120.4622         calculate D2E/DX2 analytically  !
 ! A25   A(11,10,19)           119.592          calculate D2E/DX2 analytically  !
 ! A26   A(10,11,12)           119.6848         calculate D2E/DX2 analytically  !
 ! A27   A(10,11,20)           120.1429         calculate D2E/DX2 analytically  !
 ! A28   A(12,11,20)           120.1721         calculate D2E/DX2 analytically  !
 ! A29   A(11,12,13)           120.6436         calculate D2E/DX2 analytically  !
 ! A30   A(11,12,21)           119.6752         calculate D2E/DX2 analytically  !
 ! A31   A(13,12,21)           119.681          calculate D2E/DX2 analytically  !
 ! A32   A(12,13,14)           119.6877         calculate D2E/DX2 analytically  !
 ! A33   A(12,13,22)           120.1719         calculate D2E/DX2 analytically  !
 ! A34   A(14,13,22)           120.1402         calculate D2E/DX2 analytically  !
 ! A35   A(9,14,13)            119.9389         calculate D2E/DX2 analytically  !
 ! A36   A(9,14,23)            120.4676         calculate D2E/DX2 analytically  !
 ! A37   A(13,14,23)           119.5909         calculate D2E/DX2 analytically  !
 ! A38   A(2,15,7)             116.5314         calculate D2E/DX2 analytically  !
 ! D1    D(1,2,3,4)            179.9998         calculate D2E/DX2 analytically  !
 ! D2    D(1,2,3,16)             0.0053         calculate D2E/DX2 analytically  !
 ! D3    D(15,2,3,4)            -0.0033         calculate D2E/DX2 analytically  !
 ! D4    D(15,2,3,16)         -179.9978         calculate D2E/DX2 analytically  !
 ! D5    D(1,2,15,7)          -179.9959         calculate D2E/DX2 analytically  !
 ! D6    D(3,2,15,7)             0.0072         calculate D2E/DX2 analytically  !
 ! D7    D(2,3,4,5)           -179.9989         calculate D2E/DX2 analytically  !
 ! D8    D(2,3,4,6)              0.0046         calculate D2E/DX2 analytically  !
 ! D9    D(16,3,4,5)            -0.0044         calculate D2E/DX2 analytically  !
 ! D10   D(16,3,4,6)           179.9991         calculate D2E/DX2 analytically  !
 ! D11   D(3,4,6,7)             -0.0096         calculate D2E/DX2 analytically  !
 ! D12   D(5,4,6,7)            179.9939         calculate D2E/DX2 analytically  !
 ! D13   D(4,6,7,8)            179.9898         calculate D2E/DX2 analytically  !
 ! D14   D(4,6,7,15)             0.0144         calculate D2E/DX2 analytically  !
 ! D15   D(6,7,8,9)              0.1562         calculate D2E/DX2 analytically  !
 ! D16   D(6,7,8,17)          -123.0761         calculate D2E/DX2 analytically  !
 ! D17   D(6,7,8,18)           123.3766         calculate D2E/DX2 analytically  !
 ! D18   D(15,7,8,9)          -179.866          calculate D2E/DX2 analytically  !
 ! D19   D(15,7,8,17)           56.9017         calculate D2E/DX2 analytically  !
 ! D20   D(15,7,8,18)          -56.6456         calculate D2E/DX2 analytically  !
 ! D21   D(6,7,15,2)            -0.0132         calculate D2E/DX2 analytically  !
 ! D22   D(8,7,15,2)          -179.9893         calculate D2E/DX2 analytically  !
 ! D23   D(7,8,9,10)            90.7697         calculate D2E/DX2 analytically  !
 ! D24   D(7,8,9,14)           -90.9103         calculate D2E/DX2 analytically  !
 ! D25   D(17,8,9,10)         -146.3811         calculate D2E/DX2 analytically  !
 ! D26   D(17,8,9,14)           31.9389         calculate D2E/DX2 analytically  !
 ! D27   D(18,8,9,10)          -32.076          calculate D2E/DX2 analytically  !
 ! D28   D(18,8,9,14)          146.244          calculate D2E/DX2 analytically  !
 ! D29   D(8,9,10,11)          178.888          calculate D2E/DX2 analytically  !
 ! D30   D(8,9,10,19)           -1.7131         calculate D2E/DX2 analytically  !
 ! D31   D(14,9,10,11)           0.5707         calculate D2E/DX2 analytically  !
 ! D32   D(14,9,10,19)         179.9695         calculate D2E/DX2 analytically  !
 ! D33   D(8,9,14,13)         -178.8843         calculate D2E/DX2 analytically  !
 ! D34   D(8,9,14,23)            1.7086         calculate D2E/DX2 analytically  !
 ! D35   D(10,9,14,13)          -0.567          calculate D2E/DX2 analytically  !
 ! D36   D(10,9,14,23)        -179.9742         calculate D2E/DX2 analytically  !
 ! D37   D(9,10,11,12)          -0.2833         calculate D2E/DX2 analytically  !
 ! D38   D(9,10,11,20)         179.5602         calculate D2E/DX2 analytically  !
 ! D39   D(19,10,11,12)       -179.6875         calculate D2E/DX2 analytically  !
 ! D40   D(19,10,11,20)          0.156          calculate D2E/DX2 analytically  !
 ! D41   D(10,11,12,13)         -0.0068         calculate D2E/DX2 analytically  !
 ! D42   D(10,11,12,21)        179.8452         calculate D2E/DX2 analytically  !
 ! D43   D(20,11,12,13)       -179.8502         calculate D2E/DX2 analytically  !
 ! D44   D(20,11,12,21)          0.0018         calculate D2E/DX2 analytically  !
 ! D45   D(11,12,13,14)          0.0104         calculate D2E/DX2 analytically  !
 ! D46   D(11,12,13,22)        179.8488         calculate D2E/DX2 analytically  !
 ! D47   D(21,12,13,14)       -179.8416         calculate D2E/DX2 analytically  !
 ! D48   D(21,12,13,22)         -0.0032         calculate D2E/DX2 analytically  !
 ! D49   D(12,13,14,9)           0.2762         calculate D2E/DX2 analytically  !
 ! D50   D(12,13,14,23)        179.6885         calculate D2E/DX2 analytically  !
 ! D51   D(22,13,14,9)        -179.5623         calculate D2E/DX2 analytically  !
 ! D52   D(22,13,14,23)         -0.15           calculate D2E/DX2 analytically  !
 --------------------------------------------------------------------------------
 Trust Radius=3.00D-01 FncErr=1.00D-07 GrdErr=1.00D-06 EigMax=2.50D+02 EigMin=1.00D-04
 Number of steps in this run=    124 maximum allowed number of steps=    138.
 GradGradGradGradGradGradGradGradGradGradGradGradGradGradGradGradGradGrad

                          Input orientation:                          
 ---------------------------------------------------------------------
 Center     Atomic      Atomic             Coordinates (Angstroms)
 Number     Number       Type             X           Y           Z
 ---------------------------------------------------------------------
      1         17           0        3.551800    0.837800   -3.145600
      2          6           0        2.995100    0.399700   -1.573300
      3          6           0        3.263000    1.246300   -0.495700
      4          6           0        2.794900    0.855000    0.760200
      5         17           0        3.099500    1.865600    2.123800
      6          7           0        2.105000   -0.300400    0.942200
      7          6           0        1.890800   -1.062100   -0.164700
      8          6           0        1.120500   -2.373600   -0.022000
      9          6           0        0.631500   -2.745700    1.376400
     10          6           0       -0.636900   -2.341800    1.802200
     11          6           0       -1.092000   -2.700700    3.068400
     12          6           0       -0.279800   -3.467100    3.902100
     13          6           0        0.983400   -3.878000    3.481000
     14          6           0        1.438900   -3.519200    2.214800
     15          7           0        2.307500   -0.762400   -1.422500
     16          1           0        3.809900    2.166500   -0.627700
     17          1           0        1.751500   -3.179100   -0.399700
     18          1           0        0.263500   -2.337500   -0.695900
     19          1           0       -1.265900   -1.743200    1.158900
     20          1           0       -2.069200   -2.384200    3.403600
     21          1           0       -0.632100   -3.743400    4.885600
     22          1           0        1.607800   -4.470000    4.134600
     23          1           0        2.420700   -3.834400    1.891800
 ---------------------------------------------------------------------
                    Distance matrix (angstroms):
                    1          2          3          4          5
     1  Cl   0.000000
     2  C    1.724521   0.000000
     3  C    2.696711   1.396325   0.000000
     4  C    3.978501   2.385917   1.396251   0.000000
     5  Cl   5.387720   3.978481   2.696673   1.724384   0.000000
     6  N    4.483173   2.758652   2.408485   1.357953   2.660219
     7  C    3.905676   2.310950   2.705772   2.312598   3.907636
     8  C    5.097174   3.689424   4.233010   3.720122   5.147010
     9  C    6.466692   4.917405   5.134746   4.245591   5.283343
    10  C    7.220512   5.665796   5.776160   4.804430   5.636162
    11  C    8.526409   6.918255   6.873692   5.751416   6.269931
    12  C    9.104032   7.460370   7.355829   6.164890   6.558941
    13  C    8.529201   6.920376   6.875258   5.752006   6.269674
    14  C    7.223689   5.668266   5.777901   4.805021   5.635774
    15  N    2.660450   1.358680   2.409733   2.760022   4.484405
    16  H    2.858650   2.163248   1.078560   2.162527   2.857615
    17  H    5.188115   3.966319   4.677394   4.325276   5.799496
    18  H    5.186181   3.965316   4.677681   4.326693   5.801694
    19  H    6.957048   5.496641   5.673248   4.837324   5.745536
    20  H    9.212434   7.626714   7.537734   6.414004   6.812793
    21  H   10.148526   8.487594   8.308267   7.064597   7.281020
    22  H    9.217005   7.630118   7.540255   6.414936   6.812365
    23  H    6.963062   5.501314   5.676543   4.838493   5.744962
                    6          7          8          9         10
     6  N    0.000000
     7  C    1.360623   0.000000
     8  C    2.489394   1.527664   0.000000
     9  C    2.887771   2.606786   1.527449   0.000000
    10  C    3.524901   3.448999   2.533214   1.397598   0.000000
    11  C    4.528021   4.694150   3.814803   2.415645   1.392547
    12  C    4.947350   5.199461   4.307568   2.780296   2.409025
    13  C    4.527992   4.695082   3.814843   2.415632   2.793502
    14  C    3.524752   3.450156   2.533190   1.397538   2.421870
    15  N    2.417903   1.358499   2.442608   3.817892   4.643564
    16  H    3.384799   3.784332   5.311521   6.184525   6.782567
    17  H    3.195711   2.134553   1.090710   2.144007   3.354682
    18  H    3.197541   2.134695   1.090822   2.143940   2.655418
    19  H    3.673091   3.490067   2.736208   2.156951   1.080647
    20  H    5.274908   5.492023   4.680709   3.396175   2.148898
    21  H    5.907315   6.249794   5.388181   3.860903   3.387014
    22  H    5.274864   5.493437   4.680777   3.396180   3.874016
    23  H    3.672950   3.492225   2.736254   2.156882   3.403645
                   11         12         13         14         15
    11  C    0.000000
    12  C    1.393590   0.000000
    13  C    2.421479   1.393499   0.000000
    14  C    2.793569   2.409071   1.392652   0.000000
    15  N    5.956659   6.508524   5.958567   4.645897   0.000000
    16  H    7.834502   8.305551   7.836230   6.784440   3.386350
    17  H    4.510219   4.765984   4.017247   2.654995   2.682479
    18  H    4.017368   4.765792   4.509755   3.354125   2.680825
    19  H    2.143184   3.386646   3.874128   3.403681   4.516058
    20  H    1.080487   2.150146   3.399382   3.874046   6.713939
    21  H    2.144982   1.080615   2.144961   3.387105   7.570980
    22  H    3.399430   2.150093   1.080524   2.148995   6.716937
    23  H    3.874110   3.386579   2.143196   1.080561   4.520463
                   16         17         18         19         20
    16  H    0.000000
    17  H    5.732751   0.000000
    18  H    5.733029   1.734984   0.000000
    19  H    6.651424   3.687241   2.476397   0.000000
    20  H    8.457190   5.449285   4.716945   2.468775   0.000000
    21  H    9.222514   5.825322   5.825101   4.276774   2.471640
    22  H    8.460016   4.716667   5.448709   4.954632   4.290134
    23  H    6.654965   2.475524   3.686518   4.301311   4.954576
                   21         22         23
    21  H    0.000000
    22  H    2.471659   0.000000
    23  H    4.276764   2.468794   0.000000
 Stoichiometry    C11H8Cl2N2
 Framework group  C1[X(C11H8Cl2N2)]
 Deg. of freedom    63
 Full point group                 C1      NOp   1
 Largest Abelian subgroup         C1      NOp   1
 Largest concise Abelian subgroup C1      NOp   1
                         Standard orientation:                         
 ---------------------------------------------------------------------
 Center     Atomic      Atomic             Coordinates (Angstroms)
 Number     Number       Type             X           Y           Z
 ---------------------------------------------------------------------
      1         17           0       -4.229650   -1.425139    0.001311
      2          6           0       -2.688827   -0.650649    0.000193
      3          6           0       -2.627908    0.744347    0.000657
      4          6           0       -1.361259    1.331816   -0.000275
      5         17           0       -1.231496    3.051310    0.000276
      6          7           0       -0.224433    0.589078   -0.001678
      7          6           0       -0.380588   -0.762555   -0.001929
      8          6           0        0.862539   -1.650468   -0.003725
      9          6           0        2.219506   -0.949228   -0.001436
     10          6           0        2.846174   -0.646546    1.210566
     11          6           0        4.093872   -0.028134    1.212515
     12          6           0        4.713256    0.280095    0.002783
     13          6           0        4.096278   -0.024627   -1.208960
     14          6           0        2.848453   -0.643017   -1.211300
     15          7           0       -1.569205   -1.420361   -0.001178
     16          1           0       -3.523746    1.344984    0.001785
     17          1           0        0.807648   -2.307211   -0.872819
     18          1           0        0.807177   -2.311583    0.862159
     19          1           0        2.364964   -0.880292    2.149501
     20          1           0        4.578085    0.213757    2.147650
     21          1           0        5.680339    0.762253    0.004477
     22          1           0        4.582326    0.219986   -2.142477
     23          1           0        2.369184   -0.874025   -2.151804
 ---------------------------------------------------------------------
 Rotational constants (GHZ):           0.8031424           0.2492794           0.2041412
 Standard basis: 6-31G(d,p) (6D, 7F)
 There are   273 symmetry adapted cartesian basis functions of A   symmetry.
 There are   273 symmetry adapted basis functions of A   symmetry.
   273 basis functions,   524 primitive gaussians,   273 cartesian basis functions
    61 alpha electrons       61 beta electrons
       nuclear repulsion energy      1072.1456935218 Hartrees.
 NAtoms=   23 NActive=   23 NUniq=   23 SFac= 1.00D+00 NAtFMM=   60 NAOKFM=F Big=F
 Integral buffers will be    131072 words long.
 Raffenetti 2 integral format.
 Two-electron integral symmetry is turned on.
 Nuclear repulsion after empirical dispersion term =     1072.0931327785 Hartrees.
 One-electron integrals computed using PRISM.
 NBasis=   273 RedAO= T EigKep=  4.63D-04  NBF=   273
 NBsUse=   273 1.00D-06 EigRej= -1.00D+00 NBFU=   273
 ExpMin= 1.43D-01 ExpMax= 2.52D+04 ExpMxC= 3.78D+03 IAcc=3 IRadAn=         5 AccDes= 0.00D+00
 Harris functional with IExCor=  402 and IRadAn=       5 diagonalized for initial guess.
 HarFok:  IExCor=  402 AccDes= 0.00D+00 IRadAn=         5 IDoV= 1 UseB2=F ITyADJ=14
 ICtDFT=  3500011 ScaDFX=  1.000000  1.000000  1.000000  1.000000
 FoFCou: FMM=F IPFlag=           0 FMFlag=      100000 FMFlg1=           0
         NFxFlg=           0 DoJE=T BraDBF=F KetDBF=T FulRan=T
         wScrn=  0.000000 ICntrl=       500 IOpCl=  0 I1Cent=   200000004 NGrid=           0
         NMat0=    1 NMatS0=      1 NMatT0=    0 NMatD0=    1 NMtDS0=    0 NMtDT0=    0
 Petite list used in FoFCou.
 Requested convergence on RMS density matrix=1.00D-08 within 128 cycles.
 Requested convergence on MAX density matrix=1.00D-06.
 Requested convergence on             energy=1.00D-06.
 No special actions if energy rises.
 Integral accuracy reduced to 1.0D-05 until final iterations.
 Initial convergence to 1.0D-05 achieved.  Increase integral accuracy.
 SCF Done:  E(RB3LYP) =  -1453.94767173     A.U. after   14 cycles
            NFock= 14  Conv=0.61D-08     -V/T= 2.0056
 DoSCS=F DFT=T ScalE2(SS,OS)=  1.000000  1.000000
 Range of M.O.s used for correlation:     1   273
 NBasis=   273 NAE=    61 NBE=    61 NFC=     0 NFV=     0
 NROrb=    273 NOA=    61 NOB=    61 NVA=   212 NVB=   212
 Symmetrizing basis deriv contribution to polar:
 IMax=3 JMax=2 DiffMx= 0.00D+00
 G2DrvN: will do    24 centers at a time, making    1 passes.
 Calling FoFCou, ICntrl=  3107 FMM=F I1Cent=   0 AccDes= 0.00D+00.
 End of G2Drv F.D. properties file   721 does not exist.
 End of G2Drv F.D. properties file   722 does not exist.
 End of G2Drv F.D. properties file   788 does not exist.
          IDoAtm=11111111111111111111111
          Differentiating once with respect to nuclear coordinates.
 Keep R1 ints in memory in canonical form, NReq=717089784.
          There are    72 degrees of freedom in the 1st order CPHF.  IDoFFX=6 NUNeed=     0.
     66 vectors produced by pass  0 Test12= 1.80D-14 1.39D-09 XBig12= 1.53D-01 2.39D-01.
 AX will form    66 AO Fock derivatives at one time.
     66 vectors produced by pass  1 Test12= 1.80D-14 1.39D-09 XBig12= 3.27D-02 6.94D-02.
     66 vectors produced by pass  2 Test12= 1.80D-14 1.39D-09 XBig12= 5.65D-04 4.36D-03.
     66 vectors produced by pass  3 Test12= 1.80D-14 1.39D-09 XBig12= 5.32D-06 4.13D-04.
     66 vectors produced by pass  4 Test12= 1.80D-14 1.39D-09 XBig12= 2.00D-08 2.26D-05.
     57 vectors produced by pass  5 Test12= 1.80D-14 1.39D-09 XBig12= 2.87D-11 6.44D-07.
     28 vectors produced by pass  6 Test12= 1.80D-14 1.39D-09 XBig12= 3.45D-14 2.20D-08.
 InvSVY:  IOpt=1 It=  1 EMax= 3.61D-16
 Solved reduced A of dimension   415 with    72 vectors.
 End of Minotr F.D. properties file   721 does not exist.
 End of Minotr F.D. properties file   722 does not exist.
 End of Minotr F.D. properties file   788 does not exist.

 **********************************************************************

            Population analysis using the SCF Density.

 **********************************************************************

 Orbital symmetries:
       Occupied  (A) (A) (A) (A) (A) (A) (A) (A) (A) (A) (A) (A)
                 (A) (A) (A) (A) (A) (A) (A) (A) (A) (A) (A) (A)
                 (A) (A) (A) (A) (A) (A) (A) (A) (A) (A) (A) (A)
                 (A) (A) (A) (A) (A) (A) (A) (A) (A) (A) (A) (A)
                 (A) (A) (A) (A) (A) (A) (A) (A) (A) (A) (A) (A)
                 (A)
       Virtual   (A) (A) (A) (A) (A) (A) (A) (A) (A) (A) (A) (A)
                 (A) (A) (A) (A) (A) (A) (A) (A) (A) (A) (A) (A)
                 (A) (A) (A) (A) (A) (A) (A) (A) (A) (A) (A) (A)
                 (A) (A) (A) (A) (A) (A) (A) (A) (A) (A) (A) (A)
                 (A) (A) (A) (A) (A) (A) (A) (A) (A) (A) (A) (A)
                 (A) (A) (A) (A) (A) (A) (A) (A) (A) (A) (A) (A)
                 (A) (A) (A) (A) (A) (A) (A) (A) (A) (A) (A) (A)
                 (A) (A) (A) (A) (A) (A) (A) (A) (A) (A) (A) (A)
                 (A) (A) (A) (A) (A) (A) (A) (A) (A) (A) (A) (A)
                 (A) (A) (A) (A) (A) (A) (A) (A) (A) (A) (A) (A)
                 (A) (A) (A) (A) (A) (A) (A) (A) (A) (A) (A) (A)
                 (A) (A) (A) (A) (A) (A) (A) (A) (A) (A) (A) (A)
                 (A) (A) (A) (A) (A) (A) (A) (A) (A) (A) (A) (A)
                 (A) (A) (A) (A) (A) (A) (A) (A) (A) (A) (A) (A)
                 (A) (A) (A) (A) (A) (A) (A) (A) (A) (A) (A) (A)
                 (A) (A) (A) (A) (A) (A) (A) (A) (A) (A) (A) (A)
                 (A) (A) (A) (A) (A) (A) (A) (A) (A) (A) (A) (A)
                 (A) (A) (A) (A) (A) (A) (A) (A)
 The electronic state is 1-A.
 Alpha  occ. eigenvalues -- -101.57297-101.57179 -14.36269 -14.36226 -10.31666
 Alpha  occ. eigenvalues --  -10.31591 -10.29325 -10.23444 -10.20605 -10.19817
 Alpha  occ. eigenvalues --  -10.18748 -10.18741 -10.18677 -10.18674 -10.18579
 Alpha  occ. eigenvalues --   -9.48995  -9.48877  -7.25396  -7.25278  -7.24437
 Alpha  occ. eigenvalues --   -7.24348  -7.24320  -7.24228  -1.00767  -0.93335
 Alpha  occ. eigenvalues --   -0.89348  -0.85569  -0.85307  -0.80127  -0.77084
 Alpha  occ. eigenvalues --   -0.74397  -0.71291  -0.64573  -0.64154  -0.60487
 Alpha  occ. eigenvalues --   -0.58321  -0.55194  -0.52405  -0.50857  -0.48138
 Alpha  occ. eigenvalues --   -0.47463  -0.45796  -0.45080  -0.44997  -0.43084
 Alpha  occ. eigenvalues --   -0.42172  -0.40383  -0.40317  -0.39482  -0.35718
 Alpha  occ. eigenvalues --   -0.34978  -0.34167  -0.34059  -0.33936  -0.33220
 Alpha  occ. eigenvalues --   -0.32203  -0.30058  -0.28411  -0.27835  -0.24875
 Alpha  occ. eigenvalues --   -0.24217
 Alpha virt. eigenvalues --   -0.06380  -0.04833  -0.00235   0.00143   0.00960
 Alpha virt. eigenvalues --    0.04406   0.09134   0.09224   0.12017   0.13476
 Alpha virt. eigenvalues --    0.13695   0.15529   0.16618   0.17742   0.19056
 Alpha virt. eigenvalues --    0.19378   0.20485   0.21796   0.23170   0.25548
 Alpha virt. eigenvalues --    0.27718   0.28320   0.30711   0.31645   0.32399
 Alpha virt. eigenvalues --    0.34200   0.34458   0.37485   0.37764   0.39588
 Alpha virt. eigenvalues --    0.40784   0.42325   0.42941   0.43619   0.45117
 Alpha virt. eigenvalues --    0.45972   0.48280   0.49946   0.51685   0.52610
 Alpha virt. eigenvalues --    0.53600   0.55049   0.55159   0.55283   0.56490
 Alpha virt. eigenvalues --    0.57977   0.58592   0.58947   0.59632   0.60441
 Alpha virt. eigenvalues --    0.60523   0.61231   0.61714   0.62613   0.62837
 Alpha virt. eigenvalues --    0.64207   0.66360   0.67554   0.69898   0.72207
 Alpha virt. eigenvalues --    0.75374   0.76068   0.76741   0.76800   0.79196
 Alpha virt. eigenvalues --    0.80831   0.81621   0.81950   0.82320   0.82508
 Alpha virt. eigenvalues --    0.83463   0.83533   0.84667   0.84964   0.85906
 Alpha virt. eigenvalues --    0.86257   0.88210   0.89463   0.89586   0.90264
 Alpha virt. eigenvalues --    0.93132   0.93592   0.94773   0.95057   0.95518
 Alpha virt. eigenvalues --    0.96865   1.01065   1.01076   1.01853   1.05196
 Alpha virt. eigenvalues --    1.07006   1.10668   1.10728   1.13532   1.14716
 Alpha virt. eigenvalues --    1.15218   1.16787   1.17112   1.22604   1.26048
 Alpha virt. eigenvalues --    1.28934   1.31533   1.33658   1.37653   1.38726
 Alpha virt. eigenvalues --    1.40406   1.41008   1.42326   1.42760   1.43305
 Alpha virt. eigenvalues --    1.45301   1.46768   1.47670   1.49112   1.54360
 Alpha virt. eigenvalues --    1.55407   1.57658   1.61256   1.65990   1.71672
 Alpha virt. eigenvalues --    1.75903   1.76244   1.77109   1.81683   1.81701
 Alpha virt. eigenvalues --    1.84389   1.85598   1.87731   1.88985   1.90643
 Alpha virt. eigenvalues --    1.92754   1.95848   1.97365   1.97501   1.97793
 Alpha virt. eigenvalues --    1.99914   2.00380   2.04687   2.06614   2.09247
 Alpha virt. eigenvalues --    2.09707   2.11876   2.14560   2.14975   2.16948
 Alpha virt. eigenvalues --    2.21907   2.24349   2.26745   2.27417   2.29363
 Alpha virt. eigenvalues --    2.30560   2.30612   2.31702   2.33054   2.38094
 Alpha virt. eigenvalues --    2.38876   2.39103   2.41883   2.42682   2.44735
 Alpha virt. eigenvalues --    2.47250   2.49106   2.49965   2.50972   2.52438
 Alpha virt. eigenvalues --    2.53564   2.56024   2.58805   2.60652   2.60945
 Alpha virt. eigenvalues --    2.64239   2.65343   2.66168   2.69066   2.70831
 Alpha virt. eigenvalues --    2.73661   2.77509   2.78888   2.81157   2.81328
 Alpha virt. eigenvalues --    2.88104   2.88558   2.94895   3.05115   3.06779
 Alpha virt. eigenvalues --    3.15233   3.17515   3.21335   3.25225   3.25930
 Alpha virt. eigenvalues --    3.32170   3.36208   3.44899   3.47961   3.50633
 Alpha virt. eigenvalues --    3.52127   3.91233   4.02160   4.03892   4.10645
 Alpha virt. eigenvalues --    4.10827   4.14112   4.16264   4.21173   4.22805
 Alpha virt. eigenvalues --    4.29229   4.32493   4.44058   4.45705   4.51679
 Alpha virt. eigenvalues --    4.62149   4.84560
          Condensed to atoms (all electrons):
               1          2          3          4          5          6
     1  Cl  16.817476   0.277956  -0.083866   0.004471  -0.000174  -0.000139
     2  C    0.277956   4.887502   0.454292  -0.034511   0.004451  -0.031731
     3  C   -0.083866   0.454292   5.061967   0.453289  -0.085275  -0.038316
     4  C    0.004471  -0.034511   0.453289   4.899764   0.279600   0.394535
     5  Cl  -0.000174   0.004451  -0.085275   0.279600  16.815362  -0.069889
     6  N   -0.000139  -0.031731  -0.038316   0.394535  -0.069889   6.868140
     7  C    0.004173  -0.039470  -0.034989  -0.041130   0.004672   0.450945
     8  C   -0.000195   0.004107   0.000477   0.006554  -0.000150  -0.094455
     9  C    0.000000  -0.000150  -0.000007  -0.000107   0.000007   0.003041
    10  C    0.000000  -0.000001  -0.000005  -0.000050   0.000013   0.001901
    11  C    0.000000  -0.000000  -0.000000   0.000002  -0.000000  -0.000124
    12  C   -0.000000   0.000000   0.000000   0.000001  -0.000000   0.000047
    13  C    0.000000  -0.000000  -0.000000   0.000002  -0.000000  -0.000124
    14  C    0.000000  -0.000001  -0.000005  -0.000049   0.000013   0.001917
    15  N   -0.069288   0.403727  -0.038659  -0.033436  -0.000142  -0.066772
    16  H   -0.000478  -0.034525   0.369942  -0.035095  -0.000392   0.003749
    17  H   -0.000001   0.000117   0.000006  -0.000127   0.000005   0.001509
    18  H   -0.000001   0.000120   0.000006  -0.000128   0.000005   0.001537
    19  H   -0.000000   0.000001  -0.000000  -0.000002  -0.000000   0.000279
    20  H   -0.000000   0.000000  -0.000000  -0.000000   0.000000  -0.000001
    21  H    0.000000  -0.000000   0.000000  -0.000000   0.000000  -0.000000
    22  H   -0.000000   0.000000  -0.000000  -0.000000   0.000000  -0.000001
    23  H   -0.000000   0.000001  -0.000000  -0.000002   0.000000   0.000278
               7          8          9         10         11         12
     1  Cl   0.004173  -0.000195   0.000000   0.000000   0.000000  -0.000000
     2  C   -0.039470   0.004107  -0.000150  -0.000001  -0.000000   0.000000
     3  C   -0.034989   0.000477  -0.000007  -0.000005  -0.000000   0.000000
     4  C   -0.041130   0.006554  -0.000107  -0.000050   0.000002   0.000001
     5  Cl   0.004672  -0.000150   0.000007   0.000013  -0.000000  -0.000000
     6  N    0.450945  -0.094455   0.003041   0.001901  -0.000124   0.000047
     7  C    4.649888   0.328090  -0.034909  -0.002171  -0.000042   0.000016
     8  C    0.328090   5.214292   0.314485  -0.051124   0.006158   0.000396
     9  C   -0.034909   0.314485   4.703814   0.549627  -0.024567  -0.035887
    10  C   -0.002171  -0.051124   0.549627   4.866249   0.526631  -0.040072
    11  C   -0.000042   0.006158  -0.024567   0.526631   4.812502   0.551407
    12  C    0.000016   0.000396  -0.035887  -0.040072   0.551407   4.801467
    13  C   -0.000042   0.006157  -0.024580  -0.045858  -0.028860   0.551488
    14  C   -0.002192  -0.050991   0.549676  -0.036035  -0.045851  -0.040071
    15  N    0.364531  -0.084604   0.003770   0.000009   0.000001  -0.000000
    16  H    0.000572   0.000022  -0.000001  -0.000000   0.000000  -0.000000
    17  H   -0.030171   0.364888  -0.028499   0.003344  -0.000212   0.000017
    18  H   -0.030177   0.364921  -0.028549  -0.004541   0.000079   0.000017
    19  H    0.000229  -0.009279  -0.045360   0.366512  -0.042470   0.005013
    20  H   -0.000001  -0.000186   0.004080  -0.038347   0.366040  -0.041794
    21  H    0.000000   0.000005   0.000732   0.005094  -0.042739   0.368552
    22  H   -0.000001  -0.000186   0.004081   0.000922   0.004574  -0.041797
    23  H    0.000226  -0.009289  -0.045349   0.005544   0.000421   0.005013
              13         14         15         16         17         18
     1  Cl   0.000000   0.000000  -0.069288  -0.000478  -0.000001  -0.000001
     2  C   -0.000000  -0.000001   0.403727  -0.034525   0.000117   0.000120
     3  C   -0.000000  -0.000005  -0.038659   0.369942   0.000006   0.000006
     4  C    0.000002  -0.000049  -0.033436  -0.035095  -0.000127  -0.000128
     5  Cl  -0.000000   0.000013  -0.000142  -0.000392   0.000005   0.000005
     6  N   -0.000124   0.001917  -0.066772   0.003749   0.001509   0.001537
     7  C   -0.000042  -0.002192   0.364531   0.000572  -0.030171  -0.030177
     8  C    0.006157  -0.050991  -0.084604   0.000022   0.364888   0.364921
     9  C   -0.024580   0.549676   0.003770  -0.000001  -0.028499  -0.028549
    10  C   -0.045858  -0.036035   0.000009  -0.000000   0.003344  -0.004541
    11  C   -0.028860  -0.045851   0.000001   0.000000  -0.000212   0.000079
    12  C    0.551488  -0.040071  -0.000000  -0.000000   0.000017   0.000017
    13  C    4.812550   0.526533   0.000001   0.000000   0.000079  -0.000212
    14  C    0.526533   4.866195   0.000008  -0.000000  -0.004546   0.003335
    15  N    0.000001   0.000008   6.953503   0.003740  -0.000584  -0.000577
    16  H    0.000000  -0.000000   0.003740   0.556896  -0.000001  -0.000001
    17  H    0.000079  -0.004546  -0.000584  -0.000001   0.575845  -0.027432
    18  H   -0.000212   0.003335  -0.000577  -0.000001  -0.027432   0.575870
    19  H    0.000421   0.005542  -0.000038  -0.000000   0.000089   0.004710
    20  H    0.004574   0.000922  -0.000000   0.000000   0.000003  -0.000006
    21  H   -0.042737   0.005093   0.000000  -0.000000  -0.000000  -0.000000
    22  H    0.366035  -0.038343  -0.000000   0.000000  -0.000006   0.000003
    23  H   -0.042478   0.366521  -0.000037  -0.000000   0.004725   0.000089
              19         20         21         22         23
     1  Cl  -0.000000  -0.000000   0.000000  -0.000000  -0.000000
     2  C    0.000001   0.000000  -0.000000   0.000000   0.000001
     3  C   -0.000000  -0.000000   0.000000  -0.000000  -0.000000
     4  C   -0.000002  -0.000000  -0.000000  -0.000000  -0.000002
     5  Cl  -0.000000   0.000000   0.000000   0.000000   0.000000
     6  N    0.000279  -0.000001  -0.000000  -0.000001   0.000278
     7  C    0.000229  -0.000001   0.000000  -0.000001   0.000226
     8  C   -0.009279  -0.000186   0.000005  -0.000186  -0.009289
     9  C   -0.045360   0.004080   0.000732   0.004081  -0.045349
    10  C    0.366512  -0.038347   0.005094   0.000922   0.005544
    11  C   -0.042470   0.366040  -0.042739   0.004574   0.000421
    12  C    0.005013  -0.041794   0.368552  -0.041797   0.005013
    13  C    0.000421   0.004574  -0.042737   0.366035  -0.042478
    14  C    0.005542   0.000922   0.005093  -0.038343   0.366521
    15  N   -0.000038  -0.000000   0.000000  -0.000000  -0.000037
    16  H   -0.000000   0.000000  -0.000000   0.000000  -0.000000
    17  H    0.000089   0.000003  -0.000000  -0.000006   0.004725
    18  H    0.004710  -0.000006  -0.000000   0.000003   0.000089
    19  H    0.640270  -0.006171  -0.000204   0.000018  -0.000176
    20  H   -0.006171   0.632052  -0.006452  -0.000196   0.000018
    21  H   -0.000204  -0.006452   0.636571  -0.006453  -0.000204
    22  H    0.000018  -0.000196  -0.006453   0.632060  -0.006170
    23  H   -0.000176   0.000018  -0.000204  -0.006170   0.640250
 Mulliken charges:
               1
     1  Cl   0.050067
     2  C    0.108115
     3  C   -0.058857
     4  C    0.106419
     5  Cl   0.051894
     6  N   -0.426326
     7  C    0.411952
     8  C   -0.310095
     9  C    0.134651
    10  C   -0.107641
    11  C   -0.082950
    12  C   -0.083812
    13  C   -0.082950
    14  C   -0.107670
    15  N   -0.435153
    16  H    0.135570
    17  H    0.140951
    18  H    0.140932
    19  H    0.080617
    20  H    0.085464
    21  H    0.082741
    22  H    0.085460
    23  H    0.080620
 Sum of Mulliken charges =  -0.00000
 Mulliken charges with hydrogens summed into heavy atoms:
               1
     1  Cl   0.050067
     2  C    0.108115
     3  C    0.076714
     4  C    0.106419
     5  Cl   0.051894
     6  N   -0.426326
     7  C    0.411952
     8  C   -0.028212
     9  C    0.134651
    10  C   -0.027024
    11  C    0.002515
    12  C   -0.001071
    13  C    0.002509
    14  C   -0.027050
    15  N   -0.435153
 APT charges:
               1
     1  Cl   0.294312
     2  C   -0.042447
     3  C   -0.352425
     4  C   -0.148395
     5  Cl   0.181058
     6  N   -0.564740
     7  C    0.074806
     8  C   -0.904633
     9  C   -0.627358
    10  C   -0.500466
    11  C   -0.405308
    12  C   -0.399298
    13  C   -0.405374
    14  C   -0.500400
    15  N   -0.309111
    16  H    0.755422
    17  H    0.459999
    18  H    0.460040
    19  H    0.277350
    20  H    0.721885
    21  H    0.934645
    22  H    0.722461
    23  H    0.277976
 Sum of APT charges =  -0.00000
 APT charges with hydrogens summed into heavy atoms:
               1
     1  Cl   0.294312
     2  C   -0.042447
     3  C    0.402997
     4  C   -0.148395
     5  Cl   0.181058
     6  N   -0.564740
     7  C    0.074806
     8  C    0.015406
     9  C   -0.627358
    10  C   -0.223116
    11  C    0.316578
    12  C    0.535347
    13  C    0.317087
    14  C   -0.222423
    15  N   -0.309111
 Electronic spatial extent (au):  <R**2>=           4984.6050
 Charge=             -0.0000 electrons
 Dipole moment (field-independent basis, Debye):
    X=             -0.0709    Y=              0.2720    Z=              0.0002  Tot=              0.2811
 Quadrupole moment (field-independent basis, Debye-Ang):
   XX=            -92.6462   YY=           -102.1604   ZZ=            -94.0696
   XY=             -3.2893   XZ=             -0.0023   YZ=             -0.0003
 Traceless Quadrupole moment (field-independent basis, Debye-Ang):
   XX=              3.6459   YY=             -5.8684   ZZ=              2.2224
   XY=             -3.2893   XZ=             -0.0023   YZ=             -0.0003
 Octapole moment (field-independent basis, Debye-Ang**2):
  XXX=            -15.4595  YYY=             16.1719  ZZZ=             -0.0007  XYY=            -10.9524
  XXY=             30.5547  XXZ=              0.0362  XZZ=              5.9591  YZZ=             -0.8127
  YYZ=              0.0080  XYZ=             -0.0121
 Hexadecapole moment (field-independent basis, Debye-Ang**3):
 XXXX=          -4683.5279 YYYY=          -1304.3996 ZZZZ=           -340.2727 XXXY=            106.7318
 XXXZ=              0.0225 YYYX=             -1.3109 YYYZ=              0.0017 ZZZX=              0.0153
 ZZZY=             -0.0120 XXYY=          -1073.3425 XXZZ=           -839.5072 YYZZ=           -284.0974
 XXYZ=             -0.0627 YYXZ=             -0.0459 ZZXY=              5.7148
 N-N= 1.072093132778D+03 E-N=-5.567973641496D+03  KE= 1.445807790563D+03
  Exact polarizability:       0.000       0.000       0.000       0.000       0.000       0.000
 Approx polarizability:     271.798      47.082     225.150      -0.055      -0.031     177.570
 Calling FoFJK, ICntrl=    100127 FMM=F ISym2X=0 I1Cent= 0 IOpClX= 0 NMat=1 NMatS=1 NMatT=0.
 ***** Axes restored to original set *****
 -------------------------------------------------------------------
 Center     Atomic                   Forces (Hartrees/Bohr)
 Number     Number              X              Y              Z
 -------------------------------------------------------------------
      1       17           0.000708907   -0.001010965   -0.006527848
      2        6          -0.020416804   -0.027087748    0.025948262
      3        6           0.002389384    0.004285222    0.000122905
      4        6          -0.015868190   -0.034446629   -0.018464945
      5       17          -0.000511368    0.001325537    0.006434749
      6        7           0.008870023    0.011693580   -0.011573936
      7        6           0.007361066    0.014045386    0.003162251
      8        6          -0.001264562    0.001664921    0.010552593
      9        6           0.005915127    0.005764287   -0.013286010
     10        6           0.003555187   -0.002518589    0.004992500
     11        6           0.003790916   -0.001017671   -0.001098901
     12        6          -0.000668515   -0.000347756    0.002112050
     13        6          -0.002223303    0.002425629   -0.002347941
     14        6          -0.005307803    0.002445646    0.003333622
     15        7           0.010129210    0.019211272    0.003689061
     16        1           0.001344952    0.002214724   -0.000461307
     17        1           0.003641745   -0.000102825   -0.002920256
     18        1          -0.000862929    0.002498580   -0.003802839
     19        1          -0.001049781    0.001924576   -0.003661297
     20        1          -0.003324990    0.000820657    0.001076238
     21        1          -0.001341993   -0.001163234    0.003456875
     22        1           0.001915622   -0.002147025    0.002104458
     23        1           0.003218097   -0.000477576   -0.002840287
 -------------------------------------------------------------------
 Cartesian Forces:  Max     0.034446629 RMS     0.008868075
 FormGI is forming the generalized inverse of G from B-inverse, IUseBI=4.

 GradGradGradGradGradGradGradGradGradGradGradGradGradGradGradGradGradGrad
 Berny optimization.
 Internal  Forces:  Max     0.032657266 RMS     0.005904077
 Search for a local minimum.
 Step number   1 out of a maximum of  124
 All quantities printed in internal units (Hartrees-Bohrs-Radians)
 Mixed Optimization -- RFO/linear search
 Second derivative matrix not updated -- analytic derivatives used.
 ITU=  0
     Eigenvalues ---   -0.00057   0.00011   0.01423   0.01575   0.01703
     Eigenvalues ---    0.01752   0.01926   0.01984   0.02039   0.02354
     Eigenvalues ---    0.02457   0.02552   0.02677   0.02797   0.02858
     Eigenvalues ---    0.03112   0.04299   0.04603   0.04742   0.04839
     Eigenvalues ---    0.08651   0.11008   0.11144   0.11477   0.11835
     Eigenvalues ---    0.12029   0.12458   0.12791   0.14323   0.17173
     Eigenvalues ---    0.18191   0.18816   0.19292   0.19492   0.19747
     Eigenvalues ---    0.20169   0.20177   0.21017   0.22011   0.25784
     Eigenvalues ---    0.27498   0.27849   0.28041   0.29589   0.30176
     Eigenvalues ---    0.34347   0.34982   0.36809   0.36950   0.37137
     Eigenvalues ---    0.37150   0.37292   0.37828   0.41431   0.42398
     Eigenvalues ---    0.42550   0.42647   0.46796   0.47105   0.47858
     Eigenvalues ---    0.48044   0.51789   0.52301
 RFO step:  Lambda=-1.09377048D-02 EMin=-5.68451653D-04
 Linear search not attempted -- first point.
 Iteration  1 RMS(Cart)=  0.16396694 RMS(Int)=  0.02531030
 Iteration  2 RMS(Cart)=  0.07400001 RMS(Int)=  0.00176078
 Iteration  3 RMS(Cart)=  0.00277616 RMS(Int)=  0.00017384
 Iteration  4 RMS(Cart)=  0.00000395 RMS(Int)=  0.00017383
 Iteration  5 RMS(Cart)=  0.00000000 RMS(Int)=  0.00017383
 Variable       Old X    -DE/DX   Delta X   Delta X   Delta X     New X
                                 (Linear)    (Quad)   (Total)
    R1        3.25887   0.00592   0.00000   0.04542   0.04542   3.30429
    R2        2.63867  -0.00598   0.00000  -0.00256  -0.00244   2.63623
    R3        2.56753  -0.03266   0.00000  -0.08105  -0.08106   2.48647
    R4        2.63853  -0.00637   0.00000  -0.00968  -0.00954   2.62899
    R5        2.03818   0.00263   0.00000   0.00324   0.00324   2.04142
    R6        3.25861   0.00578   0.00000   0.04378   0.04378   3.30240
    R7        2.56616  -0.03114   0.00000  -0.07050  -0.07049   2.49567
    R8        2.57121  -0.02190   0.00000  -0.04645  -0.04658   2.52463
    R9        2.88687  -0.01163   0.00000  -0.02811  -0.02811   2.85876
   R10        2.56719  -0.01646   0.00000  -0.02547  -0.02561   2.54159
   R11        2.88646  -0.00846   0.00000  -0.03758  -0.03758   2.84888
   R12        2.06114   0.00319   0.00000   0.01350   0.01350   2.07464
   R13        2.06136   0.00311   0.00000   0.00590   0.00590   2.06725
   R14        2.64108  -0.00056   0.00000   0.00038   0.00040   2.64148
   R15        2.64096  -0.00054   0.00000   0.00086   0.00088   2.64184
   R16        2.63153   0.00293   0.00000   0.00385   0.00386   2.63539
   R17        2.04213   0.00386   0.00000   0.01135   0.01135   2.05348
   R18        2.63350   0.00107   0.00000   0.00194   0.00193   2.63543
   R19        2.04182   0.00358   0.00000   0.00958   0.00958   2.05140
   R20        2.63333   0.00111   0.00000   0.00389   0.00387   2.63721
   R21        2.04207   0.00388   0.00000   0.00917   0.00917   2.05123
   R22        2.63173   0.00287   0.00000   0.00129   0.00129   2.63302
   R23        2.04189   0.00356   0.00000   0.00944   0.00944   2.05133
   R24        2.04196   0.00391   0.00000   0.01068   0.01068   2.05264
    A1        2.08020   0.00211   0.00000  -0.00753  -0.00760   2.07260
    A2        2.07356  -0.00769   0.00000  -0.02740  -0.02746   2.04610
    A3        2.12943   0.00557   0.00000   0.03493   0.03506   2.16448
    A4        2.04871  -0.01164   0.00000  -0.06066  -0.06037   1.98834
    A5        2.11779   0.00567   0.00000   0.02887   0.02873   2.14651
    A6        2.11669   0.00597   0.00000   0.03179   0.03164   2.14833
    A7        2.08039   0.00193   0.00000  -0.00380  -0.00389   2.07650
    A8        2.12860   0.00648   0.00000   0.03525   0.03542   2.16402
    A9        2.07420  -0.00841   0.00000  -0.03145  -0.03153   2.04266
   A10        2.03450  -0.00375   0.00000  -0.00134  -0.00146   2.03303
   A11        2.07601  -0.00488   0.00000   0.00000   0.00004   2.07605
   A12        2.19128   0.00672   0.00000  -0.00596  -0.00625   2.18503
   A13        2.01590  -0.00184   0.00000   0.00595   0.00599   2.02189
   A14        2.04439  -0.00764   0.00000  -0.03483  -0.03470   2.00968
   A15        1.88594  -0.00032   0.00000  -0.01749  -0.01739   1.86855
   A16        1.88602  -0.00034   0.00000  -0.01324  -0.01286   1.87316
   A17        1.89899   0.00473   0.00000   0.02547   0.02479   1.92378
   A18        1.89879   0.00476   0.00000   0.04203   0.04166   1.94044
   A19        1.83902  -0.00062   0.00000   0.00081  -0.00007   1.83895
   A20        2.09332   0.00194   0.00000   0.00680   0.00668   2.10000
   A21        2.09336   0.00196   0.00000   0.01456   0.01445   2.10781
   A22        2.09613  -0.00388   0.00000  -0.02071  -0.02076   2.07537
   A23        2.09340   0.00252   0.00000   0.01246   0.01249   2.10589
   A24        2.10246  -0.00311   0.00000  -0.01656  -0.01659   2.08588
   A25        2.08727   0.00059   0.00000   0.00417   0.00414   2.09142
   A26        2.08889   0.00129   0.00000   0.00561   0.00561   2.09451
   A27        2.09689  -0.00058   0.00000  -0.00490  -0.00490   2.09199
   A28        2.09740  -0.00071   0.00000  -0.00070  -0.00071   2.09669
   A29        2.10563  -0.00375   0.00000  -0.01598  -0.01600   2.08963
   A30        2.08873   0.00188   0.00000   0.00813   0.00813   2.09686
   A31        2.08883   0.00187   0.00000   0.00786   0.00787   2.09669
   A32        2.08894   0.00129   0.00000   0.00639   0.00639   2.09533
   A33        2.09740  -0.00071   0.00000  -0.00149  -0.00149   2.09590
   A34        2.09684  -0.00058   0.00000  -0.00489  -0.00489   2.09195
   A35        2.09333   0.00253   0.00000   0.01228   0.01231   2.10563
   A36        2.10256  -0.00312   0.00000  -0.01753  -0.01755   2.08501
   A37        2.08726   0.00059   0.00000   0.00526   0.00525   2.09251
   A38        2.03386  -0.00338   0.00000  -0.00222  -0.00241   2.03145
    D1        3.14159   0.00000   0.00000   0.00186   0.00181  -3.13979
    D2        0.00009  -0.00000   0.00000   0.00249   0.00247   0.00257
    D3       -0.00006   0.00000   0.00000   0.00466   0.00464   0.00458
    D4       -3.14155   0.00000   0.00000   0.00529   0.00531  -3.13625
    D5       -3.14152  -0.00000   0.00000   0.00084   0.00077  -3.14075
    D6        0.00012  -0.00000   0.00000  -0.00196  -0.00203  -0.00190
    D7       -3.14157  -0.00000   0.00000  -0.00363  -0.00358   3.13803
    D8        0.00008  -0.00000   0.00000  -0.00344  -0.00341  -0.00333
    D9       -0.00008   0.00000   0.00000  -0.00426  -0.00425  -0.00433
   D10        3.14158  -0.00000   0.00000  -0.00406  -0.00408   3.13750
   D11       -0.00017   0.00000   0.00000  -0.00037  -0.00029  -0.00046
   D12        3.14149   0.00000   0.00000  -0.00018  -0.00012   3.14136
   D13        3.14141   0.00000   0.00000  -0.01992  -0.01984   3.12157
   D14        0.00025  -0.00001   0.00000   0.00344   0.00344   0.00369
   D15        0.00273  -0.00001   0.00000   0.30278   0.30290   0.30563
   D16       -2.14808  -0.00052   0.00000   0.30843   0.30829  -1.83980
   D17        2.15333   0.00053   0.00000   0.32279   0.32293   2.47626
   D18       -3.13925  -0.00000   0.00000   0.28172   0.28176  -2.85749
   D19        0.99312  -0.00052   0.00000   0.28737   0.28715   1.28027
   D20       -0.98865   0.00053   0.00000   0.30173   0.30179  -0.68686
   D21       -0.00023   0.00001   0.00000  -0.00229  -0.00232  -0.00255
   D22       -3.14141   0.00000   0.00000   0.02035   0.02032  -3.12109
   D23        1.58423  -0.00025   0.00000   0.04768   0.04748   1.63171
   D24       -1.58668   0.00025   0.00000   0.07276   0.07284  -1.51384
   D25       -2.55483  -0.00238   0.00000   0.01968   0.01904  -2.53579
   D26        0.55744  -0.00189   0.00000   0.04476   0.04440   0.60184
   D27       -0.55983   0.00189   0.00000   0.05622   0.05664  -0.50319
   D28        2.55244   0.00238   0.00000   0.08131   0.08200   2.63444
   D29        3.12218   0.00027   0.00000   0.01964   0.01950  -3.14150
   D30       -0.02990   0.00050   0.00000   0.02822   0.02804  -0.00186
   D31        0.00996  -0.00033   0.00000  -0.00609  -0.00598   0.00398
   D32        3.14106  -0.00010   0.00000   0.00249   0.00256  -3.13957
   D33       -3.12212  -0.00027   0.00000  -0.01951  -0.01948   3.14159
   D34        0.02982  -0.00049   0.00000  -0.02092  -0.02086   0.00896
   D35       -0.00990   0.00033   0.00000   0.00609   0.00598  -0.00391
   D36       -3.14114   0.00010   0.00000   0.00468   0.00460  -3.13654
   D37       -0.00494   0.00012   0.00000   0.00266   0.00265  -0.00229
   D38        3.13392   0.00027   0.00000   0.00776   0.00777  -3.14150
   D39       -3.13614  -0.00008   0.00000  -0.00572  -0.00579   3.14126
   D40        0.00272   0.00007   0.00000  -0.00062  -0.00067   0.00205
   D41       -0.00012   0.00005   0.00000   0.00059   0.00059   0.00047
   D42        3.13889   0.00016   0.00000   0.00431   0.00432  -3.13997
   D43       -3.13898  -0.00010   0.00000  -0.00451  -0.00454   3.13967
   D44        0.00003   0.00001   0.00000  -0.00079  -0.00081  -0.00078
   D45        0.00018  -0.00005   0.00000  -0.00060  -0.00059  -0.00040
   D46        3.13895   0.00010   0.00000   0.00201   0.00201   3.14097
   D47       -3.13883  -0.00016   0.00000  -0.00431  -0.00432   3.14004
   D48       -0.00006  -0.00001   0.00000  -0.00171  -0.00172  -0.00177
   D49        0.00482  -0.00012   0.00000  -0.00266  -0.00266   0.00216
   D50        3.13616   0.00008   0.00000  -0.00140  -0.00141   3.13475
   D51       -3.13395  -0.00027   0.00000  -0.00527  -0.00526  -3.13922
   D52       -0.00262  -0.00007   0.00000  -0.00401  -0.00401  -0.00663
         Item               Value     Threshold  Converged?
 Maximum Force            0.032657     0.000450     NO 
 RMS     Force            0.005904     0.000300     NO 
 Maximum Displacement     1.055879     0.001800     NO 
 RMS     Displacement     0.228778     0.001200     NO 
 Predicted change in Energy=-5.860778D-03
 GradGradGradGradGradGradGradGradGradGradGradGradGradGradGradGradGradGrad

                          Input orientation:                          
 ---------------------------------------------------------------------
 Center     Atomic      Atomic             Coordinates (Angstroms)
 Number     Number       Type             X           Y           Z
 ---------------------------------------------------------------------
      1         17           0        2.993053    1.110144   -3.136514
      2          6           0        2.749932    0.486458   -1.521166
      3          6           0        3.249935    1.211791   -0.439499
      4          6           0        3.002367    0.623826    0.796805
      5         17           0        3.576570    1.419560    2.242849
      6          7           0        2.352036   -0.514530    0.955994
      7          6           0        1.917805   -1.113232   -0.156586
      8          6           0        1.188844   -2.433737   -0.040742
      9          6           0        0.659457   -2.754809    1.333815
     10          6           0       -0.652526   -2.419826    1.680736
     11          6           0       -1.149444   -2.713433    2.950280
     12          6           0       -0.336187   -3.349902    3.887539
     13          6           0        0.974312   -3.689983    3.549168
     14          6           0        1.466252   -3.394471    2.279502
     15          7           0        2.096059   -0.649577   -1.406441
     16          1           0        3.780622    2.145899   -0.552664
     17          1           0        1.884593   -3.215828   -0.371716
     18          1           0        0.384856   -2.428171   -0.782553
     19          1           0       -1.288811   -1.924114    0.952568
     20          1           0       -2.170420   -2.447547    3.205895
     21          1           0       -0.721193   -3.580816    4.875813
     22          1           0        1.612593   -4.184995    4.274365
     23          1           0        2.488694   -3.654607    2.021052
 ---------------------------------------------------------------------
                    Distance matrix (angstroms):
                    1          2          3          4          5
     1  Cl   0.000000
     2  C    1.748554   0.000000
     3  C    2.711127   1.395032   0.000000
     4  C    3.963281   2.335719   1.391202   0.000000
     5  Cl   5.419757   3.965074   2.710138   1.747553   0.000000
     6  N    4.449617   2.701225   2.394537   1.320653   2.626058
     7  C    3.870340   2.261310   2.694503   2.258893   3.863136
     8  C    5.039650   3.627146   4.206778   3.652265   5.075817
     9  C    6.353532   4.798626   5.058570   4.146417   5.173127
    10  C    6.996916   5.502307   5.737007   4.837705   5.739522
    11  C    8.296330   6.740791   6.800921   5.745631   6.318014
    12  C    8.961761   7.314087   7.238271   6.040620   6.384547
    13  C    8.474366   6.804687   6.716793   5.504312   5.880956
    14  C    7.208045   5.581624   5.638452   4.550247   5.256395
    15  N    2.625713   1.315784   2.393971   2.701341   4.448658
    16  H    2.892979   2.180381   1.080274   2.177948   2.895531
    17  H    5.252317   3.972023   4.633850   4.166270   5.584403
    18  H    4.986331   3.825466   4.644963   4.319770   5.843383
    19  H    6.652945   5.314289   5.689637   4.993042   6.042922
    20  H    8.918788   7.427204   7.487316   6.480337   6.993559
    21  H    9.999906   8.337431   8.184832   6.941341   7.099790
    22  H    9.212236   7.530219   7.350286   6.095052   6.276568
    23  H    7.039725   5.455637   5.505964   4.479691   5.194213
                    6          7          8          9         10
     6  N    0.000000
     7  C    1.335977   0.000000
     8  C    2.455576   1.512791   0.000000
     9  C    2.833094   2.549413   1.507562   0.000000
    10  C    3.630812   3.418997   2.520778   1.397809   0.000000
    11  C    4.590502   4.649868   3.806840   2.426272   1.394588
    12  C    4.884653   5.141801   4.312362   2.804808   2.415593
    13  C    4.325064   4.611120   3.809413   2.425175   2.784051
    14  C    3.290950   3.367859   2.526558   1.398002   2.407836
    15  N    2.380097   1.344949   2.423097   3.742302   4.496572
    16  H    3.375617   3.774772   5.287007   6.108798   6.744385
    17  H    3.046035   2.113834   1.097852   2.149961   3.359040
    18  H    3.248748   2.114434   1.093942   2.158961   2.672831
    19  H    3.904191   3.488573   2.717563   2.152011   1.086654
    20  H    5.408439   5.458962   4.671777   3.406949   2.151948
    21  H    5.849087   6.195023   5.397828   3.890274   3.400166
    22  H    5.003067   5.400204   4.676175   3.405985   3.869560
    23  H    3.318601   3.395086   2.726010   2.151288   3.392309
                   11         12         13         14         15
    11  C    0.000000
    12  C    1.394609   0.000000
    13  C    2.413018   1.395549   0.000000
    14  C    2.784892   2.415896   1.393335   0.000000
    15  N    5.811524   6.421355   5.921186   4.638672   0.000000
    16  H    7.758175   8.177246   7.665372   6.638763   3.373629
    17  H    4.526968   4.805319   4.052994   2.689959   2.775071
    18  H    4.045923   4.814483   4.550103   3.388116   2.545751
    19  H    2.152510   3.399179   3.870704   3.393092   4.318184
    20  H    1.085554   2.154831   3.398651   3.870433   6.535227
    21  H    2.154862   1.085466   2.155607   3.400069   7.483033
    22  H    3.398168   2.155170   1.085518   2.150773   6.708538
    23  H    3.871088   3.399495   2.151683   1.086211   4.575159
                   16         17         18         19         20
    16  H    0.000000
    17  H    5.689972   0.000000
    18  H    5.701420   1.743101   0.000000
    19  H    6.673072   3.673247   2.462901   0.000000
    20  H    8.404845   5.461931   4.736827   2.475621   0.000000
    21  H    9.084600   5.870255   5.879544   4.296359   2.484590
    22  H    8.251108   4.753876   5.492375   4.956214   4.297853
    23  H    6.476030   2.506553   3.713554   4.290199   4.956631
                   21         22         23
    21  H    0.000000
    22  H    2.484618   0.000000
    23  H    4.296333   2.475132   0.000000
 Stoichiometry    C11H8Cl2N2
 Framework group  C1[X(C11H8Cl2N2)]
 Deg. of freedom    63
 Full point group                 C1      NOp   1
 Largest Abelian subgroup         C1      NOp   1
 Largest concise Abelian subgroup C1      NOp   1
                         Standard orientation:                         
 ---------------------------------------------------------------------
 Center     Atomic      Atomic             Coordinates (Angstroms)
 Number     Number       Type             X           Y           Z
 ---------------------------------------------------------------------
      1         17           0       -4.184307   -1.410139    0.125654
      2          6           0       -2.634995   -0.607429    0.012835
      3          6           0       -2.588852    0.781824    0.130993
      4          6           0       -1.308314    1.314908    0.023824
      5         17           0       -1.098701    3.045458    0.147129
      6          7           0       -0.220798    0.590676   -0.168329
      7          6           0       -0.393682   -0.730845   -0.260681
      8          6           0        0.811407   -1.611517   -0.507079
      9          6           0        2.144355   -0.968081   -0.220748
     10          6           0        2.747835   -1.121748    1.030677
     11          6           0        3.980683   -0.529549    1.303189
     12          6           0        4.625274    0.222672    0.321558
     13          6           0        4.031179    0.379621   -0.931429
     14          6           0        2.799290   -0.213933   -1.198874
     15          7           0       -1.576530   -1.365537   -0.177460
     16          1           0       -3.468465    1.387942    0.291904
     17          1           0        0.764059   -1.936467   -1.554669
     18          1           0        0.676444   -2.521419    0.085012
     19          1           0        2.248263   -1.707520    1.797564
     20          1           0        4.437700   -0.657385    2.279519
     21          1           0        5.585616    0.683317    0.530808
     22          1           0        4.527490    0.964381   -1.699596
     23          1           0        2.336251   -0.084769   -2.172920
 ---------------------------------------------------------------------
 Rotational constants (GHZ):           0.7995292           0.2595342           0.2102508
 Standard basis: 6-31G(d,p) (6D, 7F)
 There are   273 symmetry adapted cartesian basis functions of A   symmetry.
 There are   273 symmetry adapted basis functions of A   symmetry.
   273 basis functions,   524 primitive gaussians,   273 cartesian basis functions
    61 alpha electrons       61 beta electrons
       nuclear repulsion energy      1081.3818520290 Hartrees.
 NAtoms=   23 NActive=   23 NUniq=   23 SFac= 1.00D+00 NAtFMM=   60 NAOKFM=F Big=F
 Integral buffers will be    131072 words long.
 Raffenetti 2 integral format.
 Two-electron integral symmetry is turned on.
 Nuclear repulsion after empirical dispersion term =     1081.3288894307 Hartrees.
 One-electron integrals computed using PRISM.
 NBasis=   273 RedAO= T EigKep=  4.62D-04  NBF=   273
 NBsUse=   273 1.00D-06 EigRej= -1.00D+00 NBFU=   273
 Initial guess from the checkpoint file:  "pyrmd2_conf-2.chk"
 B after Tr=    -0.000000   -0.000000   -0.000000
         Rot=    0.998033   -0.062328    0.000819    0.006735 Ang=  -7.19 deg.
 ExpMin= 1.43D-01 ExpMax= 2.52D+04 ExpMxC= 3.78D+03 IAcc=3 IRadAn=         5 AccDes= 0.00D+00
 Harris functional with IExCor=  402 and IRadAn=       5 diagonalized for initial guess.
 HarFok:  IExCor=  402 AccDes= 0.00D+00 IRadAn=         5 IDoV= 1 UseB2=F ITyADJ=14
 ICtDFT=  3500011 ScaDFX=  1.000000  1.000000  1.000000  1.000000
 FoFCou: FMM=F IPFlag=           0 FMFlag=      100000 FMFlg1=           0
         NFxFlg=           0 DoJE=T BraDBF=F KetDBF=T FulRan=T
         wScrn=  0.000000 ICntrl=       500 IOpCl=  0 I1Cent=   200000004 NGrid=           0
         NMat0=    1 NMatS0=      1 NMatT0=    0 NMatD0=    1 NMtDS0=    0 NMtDT0=    0
 Petite list used in FoFCou.
 Requested convergence on RMS density matrix=1.00D-08 within 128 cycles.
 Requested convergence on MAX density matrix=1.00D-06.
 Requested convergence on             energy=1.00D-06.
 No special actions if energy rises.
 Integral accuracy reduced to 1.0D-05 until final iterations.
 Initial convergence to 1.0D-05 achieved.  Increase integral accuracy.
 SCF Done:  E(RB3LYP) =  -1453.95320983     A.U. after   14 cycles
            NFock= 14  Conv=0.62D-08     -V/T= 2.0054
 Calling FoFJK, ICntrl=      2127 FMM=F ISym2X=0 I1Cent= 0 IOpClX= 0 NMat=1 NMatS=1 NMatT=0.
 ***** Axes restored to original set *****
 -------------------------------------------------------------------
 Center     Atomic                   Forces (Hartrees/Bohr)
 Number     Number              X              Y              Z
 -------------------------------------------------------------------
      1       17           0.000242300    0.000552591   -0.001330607
      2        6           0.002032395    0.003602754    0.000937676
      3        6           0.000190489    0.000345246   -0.000286811
      4        6           0.000898810    0.001809504   -0.001094422
      5       17           0.000500054    0.000667843    0.001120194
      6        7          -0.000720086   -0.001947025    0.001578290
      7        6          -0.000951437   -0.001566294   -0.001580824
      8        6          -0.000130126   -0.000557132    0.000081350
      9        6          -0.000633964   -0.000947239   -0.000252778
     10        6           0.000027645    0.000367986    0.000460356
     11        6           0.000230545    0.000057186   -0.000024172
     12        6          -0.000017339    0.000044590    0.000175912
     13        6          -0.000124784    0.000213778   -0.000093712
     14        6           0.000103038    0.000290031    0.000496521
     15        7          -0.002174680   -0.003455490    0.000063360
     16        1           0.000044914    0.000069861   -0.000019079
     17        1           0.000586672    0.000317240    0.000070145
     18        1           0.000018573    0.000454683   -0.000070647
     19        1          -0.000015145   -0.000039385   -0.000223309
     20        1          -0.000168005   -0.000003600   -0.000016069
     21        1          -0.000070066   -0.000083061    0.000123508
     22        1           0.000098100   -0.000127995    0.000048226
     23        1           0.000032099   -0.000066072   -0.000163109
 -------------------------------------------------------------------
 Cartesian Forces:  Max     0.003602754 RMS     0.000934893

 GradGradGradGradGradGradGradGradGradGradGradGradGradGradGradGradGradGrad
 Berny optimization.
 Using GEDIIS/GDIIS optimizer.
 FormGI is forming the generalized inverse of G from B-inverse, IUseBI=4.
 Internal  Forces:  Max     0.004898274 RMS     0.000635527
 Search for a local minimum.
 Step number   2 out of a maximum of  124
 All quantities printed in internal units (Hartrees-Bohrs-Radians)
 Mixed Optimization -- En-DIIS/RFO-DIIS
 Update second derivatives using D2CorX and points    1    2
 DE= -5.54D-03 DEPred=-5.86D-03 R= 9.45D-01
 TightC=F SS=  1.41D+00  RLast= 7.77D-01 DXNew= 5.0454D-01 2.3325D+00
 Trust test= 9.45D-01 RLast= 7.77D-01 DXMaxT set to 5.05D-01
 ITU=  1  0
 Use linear search instead of GDIIS.
     Eigenvalues ---   -0.00057   0.00011   0.01423   0.01575   0.01703
     Eigenvalues ---    0.01752   0.01926   0.01984   0.02039   0.02354
     Eigenvalues ---    0.02457   0.02551   0.02677   0.02796   0.02858
     Eigenvalues ---    0.03111   0.04297   0.04603   0.04740   0.04833
     Eigenvalues ---    0.08629   0.11008   0.11146   0.11476   0.11835
     Eigenvalues ---    0.12025   0.12458   0.12783   0.14323   0.17246
     Eigenvalues ---    0.18187   0.18820   0.19200   0.19473   0.19801
     Eigenvalues ---    0.20175   0.20184   0.20896   0.22081   0.25781
     Eigenvalues ---    0.27515   0.27915   0.27973   0.29588   0.30185
     Eigenvalues ---    0.34347   0.34972   0.36808   0.36930   0.37103
     Eigenvalues ---    0.37147   0.37291   0.37823   0.41371   0.42393
     Eigenvalues ---    0.42549   0.42699   0.47010   0.47377   0.47858
     Eigenvalues ---    0.48052   0.52263   0.55932
 RFO step:  Lambda=-8.15822400D-04 EMin=-5.72546042D-04
 Quartic linear search produced a step of -0.01532.
 Iteration  1 RMS(Cart)=  0.14579500 RMS(Int)=  0.04837566
 Iteration  2 RMS(Cart)=  0.13808184 RMS(Int)=  0.00660350
 Iteration  3 RMS(Cart)=  0.01135958 RMS(Int)=  0.00004442
 Iteration  4 RMS(Cart)=  0.00007763 RMS(Int)=  0.00002633
 Iteration  5 RMS(Cart)=  0.00000000 RMS(Int)=  0.00002633
 Variable       Old X    -DE/DX   Delta X   Delta X   Delta X     New X
                                 (Linear)    (Quad)   (Total)
    R1        3.30429   0.00146  -0.00070   0.00437   0.00368   3.30796
    R2        2.63623   0.00011   0.00004  -0.00209  -0.00207   2.63416
    R3        2.48647   0.00490   0.00124   0.01013   0.01137   2.49784
    R4        2.62899   0.00044   0.00015   0.00115   0.00127   2.63026
    R5        2.04142   0.00008  -0.00005   0.00027   0.00022   2.04164
    R6        3.30240   0.00140  -0.00067   0.00525   0.00458   3.30698
    R7        2.49567   0.00319   0.00108   0.00304   0.00412   2.49979
    R8        2.52463   0.00170   0.00071   0.00473   0.00546   2.53009
    R9        2.85876   0.00015   0.00043   0.00109   0.00152   2.86028
   R10        2.54159   0.00059   0.00039  -0.00145  -0.00104   2.54055
   R11        2.84888   0.00074   0.00058   0.00067   0.00124   2.85012
   R12        2.07464   0.00012  -0.00021   0.00516   0.00496   2.07959
   R13        2.06725   0.00004  -0.00009  -0.00461  -0.00470   2.06256
   R14        2.64148   0.00013  -0.00001   0.00039   0.00039   2.64186
   R15        2.64184   0.00019  -0.00001   0.00016   0.00015   2.64199
   R16        2.63539   0.00009  -0.00006   0.00117   0.00111   2.63650
   R17        2.05348   0.00014  -0.00017   0.00110   0.00093   2.05441
   R18        2.63543   0.00010  -0.00003  -0.00058  -0.00062   2.63481
   R19        2.05140   0.00015  -0.00015   0.00062   0.00047   2.05187
   R20        2.63721   0.00009  -0.00006   0.00104   0.00098   2.63818
   R21        2.05123   0.00015  -0.00014   0.00050   0.00036   2.05159
   R22        2.63302   0.00011  -0.00002  -0.00108  -0.00110   2.63192
   R23        2.05133   0.00015  -0.00014   0.00052   0.00037   2.05171
   R24        2.05264   0.00008  -0.00016  -0.00012  -0.00028   2.05236
    A1        2.07260  -0.00014   0.00012   0.00092   0.00104   2.07364
    A2        2.04610   0.00003   0.00042  -0.00227  -0.00185   2.04425
    A3        2.16448   0.00012  -0.00054   0.00134   0.00080   2.16528
    A4        1.98834  -0.00001   0.00092  -0.00127  -0.00036   1.98797
    A5        2.14651  -0.00001  -0.00044   0.00069   0.00026   2.14678
    A6        2.14833   0.00001  -0.00048   0.00058   0.00010   2.14843
    A7        2.07650  -0.00018   0.00006  -0.00109  -0.00103   2.07547
    A8        2.16402   0.00017  -0.00054   0.00191   0.00136   2.16538
    A9        2.04266   0.00001   0.00048  -0.00082  -0.00033   2.04233
   A10        2.03303   0.00037   0.00002  -0.00060  -0.00054   2.03249
   A11        2.07605  -0.00041  -0.00000  -0.00360  -0.00374   2.07230
   A12        2.18503  -0.00062   0.00010  -0.00026  -0.00024   2.18479
   A13        2.02189   0.00104  -0.00009   0.00330   0.00307   2.02495
   A14        2.00968  -0.00012   0.00053  -0.00338  -0.00288   2.00680
   A15        1.86855  -0.00040   0.00027  -0.00633  -0.00611   1.86244
   A16        1.87316  -0.00024   0.00020  -0.00131  -0.00112   1.87204
   A17        1.92378   0.00043  -0.00038  -0.00610  -0.00651   1.91727
   A18        1.94044   0.00009  -0.00064   0.01234   0.01171   1.95216
   A19        1.83895   0.00024   0.00000   0.00502   0.00504   1.84400
   A20        2.10000  -0.00002  -0.00010  -0.00582  -0.00597   2.09403
   A21        2.10781   0.00023  -0.00022   0.00680   0.00653   2.11434
   A22        2.07537  -0.00021   0.00032  -0.00092  -0.00062   2.07475
   A23        2.10589   0.00011  -0.00019   0.00069   0.00051   2.10640
   A24        2.08588  -0.00020   0.00025  -0.00095  -0.00070   2.08517
   A25        2.09142   0.00008  -0.00006   0.00027   0.00019   2.09161
   A26        2.09451   0.00008  -0.00009  -0.00008  -0.00016   2.09434
   A27        2.09199  -0.00007   0.00008  -0.00052  -0.00045   2.09154
   A28        2.09669  -0.00000   0.00001   0.00059   0.00060   2.09729
   A29        2.08963  -0.00016   0.00025  -0.00098  -0.00074   2.08890
   A30        2.09686   0.00008  -0.00012   0.00058   0.00046   2.09732
   A31        2.09669   0.00008  -0.00012   0.00039   0.00027   2.09697
   A32        2.09533   0.00010  -0.00010   0.00111   0.00101   2.09634
   A33        2.09590  -0.00001   0.00002  -0.00028  -0.00026   2.09564
   A34        2.09195  -0.00009   0.00007  -0.00083  -0.00075   2.09120
   A35        2.10563   0.00007  -0.00019   0.00018   0.00000   2.10564
   A36        2.08501  -0.00016   0.00027  -0.00168  -0.00142   2.08359
   A37        2.09251   0.00009  -0.00008   0.00148   0.00140   2.09390
   A38        2.03145  -0.00004   0.00004  -0.00115  -0.00108   2.03037
    D1       -3.13979   0.00003  -0.00003   0.00329   0.00327  -3.13652
    D2        0.00257   0.00001  -0.00004   0.00380   0.00376   0.00633
    D3        0.00458  -0.00002  -0.00007   0.00638   0.00630   0.01088
    D4       -3.13625  -0.00003  -0.00008   0.00689   0.00680  -3.12945
    D5       -3.14075  -0.00001  -0.00001   0.00116   0.00115  -3.13960
    D6       -0.00190   0.00003   0.00003  -0.00188  -0.00183  -0.00373
    D7        3.13803  -0.00003   0.00005  -0.00591  -0.00585   3.13218
    D8       -0.00333  -0.00000   0.00005  -0.00520  -0.00515  -0.00848
    D9       -0.00433  -0.00001   0.00007  -0.00642  -0.00635  -0.01068
   D10        3.13750   0.00001   0.00006  -0.00571  -0.00565   3.13185
   D11       -0.00046   0.00001   0.00000  -0.00035  -0.00034  -0.00080
   D12        3.14136   0.00003   0.00000   0.00034   0.00035  -3.14147
   D13        3.12157   0.00008   0.00030  -0.02436  -0.02401   3.09756
   D14        0.00369   0.00001  -0.00005   0.00574   0.00569   0.00937
   D15        0.30563   0.00026  -0.00464   0.41302   0.40839   0.71402
   D16       -1.83980   0.00009  -0.00472   0.42796   0.42322  -1.41657
   D17        2.47626   0.00011  -0.00495   0.42576   0.42081   2.89707
   D18       -2.85749   0.00030  -0.00432   0.38565   0.38135  -2.47615
   D19        1.28027   0.00012  -0.00440   0.40059   0.39618   1.67645
   D20       -0.68686   0.00015  -0.00462   0.39839   0.39377  -0.29309
   D21       -0.00255  -0.00003   0.00004  -0.00467  -0.00464  -0.00719
   D22       -3.12109  -0.00008  -0.00031   0.02468   0.02442  -3.09667
   D23        1.63171  -0.00018  -0.00073   0.03029   0.02955   1.66127
   D24       -1.51384   0.00012  -0.00112   0.04728   0.04615  -1.46769
   D25       -2.53579  -0.00045  -0.00029   0.01483   0.01457  -2.52122
   D26        0.60184  -0.00016  -0.00068   0.03182   0.03117   0.63301
   D27       -0.50319   0.00016  -0.00087   0.02471   0.02383  -0.47936
   D28        2.63444   0.00045  -0.00126   0.04170   0.04043   2.67487
   D29       -3.14150   0.00021  -0.00030   0.01309   0.01274  -3.12876
   D30       -0.00186   0.00025  -0.00043   0.01990   0.01942   0.01756
   D31        0.00398  -0.00008   0.00009  -0.00360  -0.00350   0.00048
   D32       -3.13957  -0.00004  -0.00004   0.00321   0.00318  -3.13638
   D33        3.14159  -0.00020   0.00030  -0.01265  -0.01240   3.12918
   D34        0.00896  -0.00025   0.00032  -0.01095  -0.01068  -0.00172
[...]
 Alpha  occ. eigenvalues --  -10.67339 -10.64916 -10.58859 -10.56005 -10.55843
 Alpha  occ. eigenvalues --  -10.54669 -10.54651 -10.54552 -10.54540 -10.54511
 Alpha  occ. eigenvalues --   -9.82810  -9.82810  -7.55005  -7.55005  -7.54499
 Alpha  occ. eigenvalues --   -7.54499  -7.54458  -7.54458  -1.13992  -1.04886
 Alpha  occ. eigenvalues --   -0.99102  -0.96631  -0.95043  -0.90533  -0.87422
 Alpha  occ. eigenvalues --   -0.84541  -0.81323  -0.73412  -0.73358  -0.69292
 Alpha  occ. eigenvalues --   -0.66990  -0.63610  -0.60399  -0.59251  -0.55959
 Alpha  occ. eigenvalues --   -0.54883  -0.53597  -0.52870  -0.50984  -0.49918
 Alpha  occ. eigenvalues --   -0.49033  -0.48411  -0.46615  -0.45832  -0.43861
 Alpha  occ. eigenvalues --   -0.42700  -0.41014  -0.40493  -0.40304  -0.39628
 Alpha  occ. eigenvalues --   -0.39593  -0.36777  -0.35529  -0.34360  -0.31130
 Alpha  occ. eigenvalues --   -0.30477
 Alpha virt. eigenvalues --   -0.03140  -0.02755   0.01790   0.02089   0.03990
 Alpha virt. eigenvalues --    0.07512   0.08287   0.08685   0.10452   0.10454
 Alpha virt. eigenvalues --    0.11408   0.12698   0.12968   0.14149   0.14595
 Alpha virt. eigenvalues --    0.15807   0.16007   0.16409   0.19065   0.19613
 Alpha virt. eigenvalues --    0.19663   0.19907   0.21834   0.22479   0.23784
 Alpha virt. eigenvalues --    0.24298   0.25096   0.25171   0.26626   0.26656
 Alpha virt. eigenvalues --    0.26953   0.26988   0.28319   0.28447   0.30514
 Alpha virt. eigenvalues --    0.31289   0.31741   0.31745   0.32603   0.33018
 Alpha virt. eigenvalues --    0.33642   0.33735   0.34528   0.35020   0.36058
 Alpha virt. eigenvalues --    0.36499   0.37363   0.37932   0.38419   0.38618
 Alpha virt. eigenvalues --    0.38998   0.39196   0.39373   0.40069   0.40814
 Alpha virt. eigenvalues --    0.41102   0.41531   0.42559   0.43538   0.43571
 Alpha virt. eigenvalues --    0.43912   0.44121   0.44884   0.44911   0.45437
 Alpha virt. eigenvalues --    0.47798   0.47992   0.48138   0.48941   0.49080
 Alpha virt. eigenvalues --    0.51241   0.52628   0.53284   0.53800   0.54052
 Alpha virt. eigenvalues --    0.54981   0.55771   0.56257   0.56414   0.57178
 Alpha virt. eigenvalues --    0.58348   0.58996   0.59569   0.60365   0.60546
 Alpha virt. eigenvalues --    0.62758   0.63215   0.63721   0.66331   0.67012
 Alpha virt. eigenvalues --    0.68271   0.68662   0.69831   0.70201   0.71827
 Alpha virt. eigenvalues --    0.72346   0.72551   0.73006   0.74069   0.75483
 Alpha virt. eigenvalues --    0.76250   0.76549   0.77506   0.77659   0.77942
 Alpha virt. eigenvalues --    0.78802   0.79674   0.81866   0.82245   0.83615
 Alpha virt. eigenvalues --    0.84465   0.86747   0.87052   0.88235   0.90993
 Alpha virt. eigenvalues --    0.92566   0.93351   0.94201   0.95563   0.95812
 Alpha virt. eigenvalues --    0.97799   0.98531   1.01397   1.02801   1.03670
 Alpha virt. eigenvalues --    1.04178   1.06089   1.07663   1.07732   1.09266
 Alpha virt. eigenvalues --    1.09911   1.11210   1.11668   1.14659   1.14986
 Alpha virt. eigenvalues --    1.17006   1.17150   1.20374   1.22005   1.23784
 Alpha virt. eigenvalues --    1.24432   1.24894   1.26763   1.28019   1.28126
 Alpha virt. eigenvalues --    1.28316   1.29261   1.29855   1.32271   1.33601
 Alpha virt. eigenvalues --    1.34014   1.34898   1.38103   1.40326   1.41481
 Alpha virt. eigenvalues --    1.42470   1.44094   1.44481   1.45529   1.45831
 Alpha virt. eigenvalues --    1.47317   1.49267   1.49743   1.50202   1.51136
 Alpha virt. eigenvalues --    1.52003   1.53953   1.54779   1.55338   1.55661
 Alpha virt. eigenvalues --    1.58295   1.59820   1.59936   1.62548   1.63559
 Alpha virt. eigenvalues --    1.65875   1.65928   1.66920   1.68012   1.68538
 Alpha virt. eigenvalues --    1.69413   1.71202   1.72413   1.73903   1.74472
 Alpha virt. eigenvalues --    1.74614   1.74949   1.75067   1.76374   1.76921
 Alpha virt. eigenvalues --    1.78527   1.81035   1.81091   1.82312   1.82338
 Alpha virt. eigenvalues --    1.82808   1.84598   1.85434   1.85629   1.86806
 Alpha virt. eigenvalues --    1.86922   1.88476   1.89407   1.90303   1.91762
 Alpha virt. eigenvalues --    1.92823   1.94136   1.95158   1.97633   1.98679
 Alpha virt. eigenvalues --    1.99363   2.01665   2.03321   2.03362   2.04601
 Alpha virt. eigenvalues --    2.07481   2.08580   2.09545   2.09563   2.10998
 Alpha virt. eigenvalues --    2.11015   2.11630   2.12651   2.13729   2.14203
 Alpha virt. eigenvalues --    2.14459   2.15537   2.16403   2.17663   2.18373
 Alpha virt. eigenvalues --    2.19232   2.21173   2.21473   2.22492   2.24628
 Alpha virt. eigenvalues --    2.24888   2.26001   2.26212   2.26732   2.28354
 Alpha virt. eigenvalues --    2.29008   2.30536   2.30974   2.31524   2.32191
 Alpha virt. eigenvalues --    2.36681   2.37859   2.38207   2.40841   2.42924
 Alpha virt. eigenvalues --    2.44448   2.45897   2.45945   2.48623   2.51698
 Alpha virt. eigenvalues --    2.52736   2.54058   2.54119   2.54218   2.57699
 Alpha virt. eigenvalues --    2.58507   2.59571   2.61041   2.61588   2.61790
 Alpha virt. eigenvalues --    2.64100   2.65406   2.67522   2.68369   2.68668
 Alpha virt. eigenvalues --    2.69085   2.69463   2.70599   2.71529   2.71778
 Alpha virt. eigenvalues --    2.72556   2.76776   2.77388   2.78146   2.78629
 Alpha virt. eigenvalues --    2.79766   2.81339   2.83582   2.84382   2.85096
 Alpha virt. eigenvalues --    2.85210   2.87422   2.87842   2.90813   2.90825
 Alpha virt. eigenvalues --    2.91424   2.91702   2.95002   2.95133   2.96163
 Alpha virt. eigenvalues --    2.98941   3.00220   3.02315   3.02425   3.02506
 Alpha virt. eigenvalues --    3.04739   3.05447   3.06736   3.07541   3.08220
 Alpha virt. eigenvalues --    3.09676   3.11755   3.11914   3.13846   3.14355
 Alpha virt. eigenvalues --    3.15078   3.15214   3.15216   3.16550   3.17280
 Alpha virt. eigenvalues --    3.20051   3.20947   3.21644   3.22363   3.23193
 Alpha virt. eigenvalues --    3.24071   3.24332   3.24625   3.27064   3.27130
 Alpha virt. eigenvalues --    3.28182   3.29109   3.29700   3.30548   3.31957
 Alpha virt. eigenvalues --    3.32498   3.33116   3.35717   3.36330   3.37279
 Alpha virt. eigenvalues --    3.38487   3.39266   3.41031   3.41605   3.41982
 Alpha virt. eigenvalues --    3.44056   3.45147   3.46096   3.46252   3.47253
 Alpha virt. eigenvalues --    3.49786   3.50253   3.51492   3.52751   3.54108
 Alpha virt. eigenvalues --    3.54785   3.57816   3.57884   3.62604   3.64738
 Alpha virt. eigenvalues --    3.67208   3.67991   3.69246   3.71876   3.73114
 Alpha virt. eigenvalues --    3.76685   3.77309   3.78337   3.78827   3.79984
 Alpha virt. eigenvalues --    3.83004   3.83470   3.86880   3.88408   3.89805
 Alpha virt. eigenvalues --    3.92093   3.93477   3.94967   3.96610   3.99871
 Alpha virt. eigenvalues --    4.00306   4.02060   4.02895   4.06101   4.06173
 Alpha virt. eigenvalues --    4.09540   4.10322   4.11711   4.13629   4.13768
 Alpha virt. eigenvalues --    4.15153   4.15752   4.16441   4.19311   4.20338
 Alpha virt. eigenvalues --    4.20702   4.26370   4.27263   4.28013   4.32727
 Alpha virt. eigenvalues --    4.33975   4.40274   4.43524   4.44759   4.47619
 Alpha virt. eigenvalues --    4.49913   4.50111   4.54289   4.54684   4.61812
 Alpha virt. eigenvalues --    4.63618   4.64939   4.65373   4.66672   4.71849
 Alpha virt. eigenvalues --    4.72950   4.73703   4.78564   4.82234   4.85073
 Alpha virt. eigenvalues --    4.90035   4.90682   4.91926   4.94424   5.00566
 Alpha virt. eigenvalues --    5.01963   5.02192   5.07054   5.13235   5.14614
 Alpha virt. eigenvalues --    5.16856   5.19615   5.23096   5.29810   5.31086
 Alpha virt. eigenvalues --    5.33219   5.33426   5.37883   5.40186   5.40491
 Alpha virt. eigenvalues --    5.40865   5.56306   5.59767   5.61692   5.69323
 Alpha virt. eigenvalues --    5.74074   5.94513   6.24271  10.79515  10.80157
 Alpha virt. eigenvalues --   10.85415  10.86436  11.37359  11.40500  22.17322
 Alpha virt. eigenvalues --   22.53367  22.61473  22.69090  22.73740  22.76008
 Alpha virt. eigenvalues --   22.82120  22.87776  22.89441  23.21895  23.32433
 Alpha virt. eigenvalues --   25.83132  25.95300  32.51245  32.75376
          Condensed to atoms (all electrons):
               1          2          3          4          5          6
     1  Cl  16.816534   0.377222  -0.075345   0.008158  -0.000267  -0.000792
     2  C    0.377222   4.680044   0.430630  -0.035532   0.008158  -0.022254
     3  C   -0.075345   0.430630   5.257742   0.430631  -0.075345  -0.043132
     4  C    0.008158  -0.035532   0.430631   4.680044   0.377221   0.518955
     5  Cl  -0.000267   0.008158  -0.075345   0.377221  16.816534  -0.079609
     6  N   -0.000792  -0.022254  -0.043132   0.518955  -0.079609   6.517817
     7  C    0.001752  -0.069993  -0.042009  -0.069993   0.001752   0.464681
     8  C   -0.001462  -0.004708   0.007571  -0.004708  -0.001462  -0.073419
     9  C    0.000211   0.001014  -0.000413   0.001014   0.000211  -0.007619
    10  C   -0.000050  -0.000770   0.000814  -0.000522   0.000026   0.004347
    11  C   -0.000017   0.000152  -0.000112   0.000111  -0.000001  -0.000470
    12  C    0.000002  -0.000047   0.000033  -0.000047   0.000002   0.000387
    13  C   -0.000001   0.000111  -0.000112   0.000152  -0.000017  -0.001905
    14  C    0.000026  -0.000522   0.000814  -0.000770  -0.000050   0.006087
    15  N   -0.079609   0.518954  -0.043131  -0.022254  -0.000792  -0.070158
    16  H    0.000997  -0.026184   0.393114  -0.026184   0.000997   0.004073
    17  H    0.000012  -0.000519   0.000353  -0.000012  -0.000017   0.002979
    18  H   -0.000017  -0.000012   0.000353  -0.000519   0.000012   0.003666
    19  H    0.000073  -0.000032   0.000162  -0.000052   0.000001   0.000269
    20  H   -0.000001  -0.000001  -0.000002   0.000001  -0.000000  -0.000001
    21  H    0.000000  -0.000000   0.000000  -0.000000   0.000000   0.000001
    22  H   -0.000000   0.000001  -0.000002  -0.000001  -0.000001  -0.000044
    23  H    0.000001  -0.000052   0.000162  -0.000032   0.000073   0.006278
               7          8          9         10         11         12
     1  Cl   0.001752  -0.001462   0.000211  -0.000050  -0.000017   0.000002
     2  C   -0.069993  -0.004708   0.001014  -0.000770   0.000152  -0.000047
     3  C   -0.042009   0.007571  -0.000413   0.000814  -0.000112   0.000033
     4  C   -0.069993  -0.004708   0.001014  -0.000522   0.000111  -0.000047
     5  Cl   0.001752  -0.001462   0.000211   0.000026  -0.000001   0.000002
     6  N    0.464681  -0.073419  -0.007619   0.004347  -0.000470   0.000387
     7  C    4.864432   0.214052   0.002244  -0.014392   0.003616  -0.001441
     8  C    0.214052   5.336368   0.228479  -0.059183   0.006172  -0.001442
     9  C    0.002244   0.228479   5.066274   0.434603  -0.005994  -0.083974
    10  C   -0.014392  -0.059183   0.434603   5.025319   0.468167  -0.001290
    11  C    0.003616   0.006172  -0.005994   0.468167   4.930671   0.480307
    12  C   -0.001441  -0.001442  -0.083974  -0.001290   0.480307   4.930209
    13  C    0.003616   0.006172  -0.005993  -0.084503  -0.011670   0.480308
    14  C   -0.014392  -0.059180   0.434608   0.020459  -0.084502  -0.001290
    15  N    0.464679  -0.073420  -0.007619   0.006087  -0.001905   0.000387
    16  H    0.001634   0.000348  -0.000001  -0.000013   0.000002  -0.000001
    17  H   -0.055937   0.448515  -0.049190   0.006973  -0.000978   0.000428
    18  H   -0.055940   0.448517  -0.049191  -0.003420  -0.000809   0.000428
    19  H   -0.004196   0.004677  -0.041417   0.407804  -0.032242   0.005541
    20  H    0.000059  -0.000196   0.006671  -0.035595   0.411614  -0.034851
    21  H    0.000001   0.000050   0.000494   0.003577  -0.032255   0.408435
    22  H    0.000059  -0.000196   0.006671  -0.000793   0.004722  -0.034851
    23  H   -0.004196   0.004676  -0.041417   0.007910  -0.001896   0.005541
              13         14         15         16         17         18
     1  Cl  -0.000001   0.000026  -0.079609   0.000997   0.000012  -0.000017
     2  C    0.000111  -0.000522   0.518954  -0.026184  -0.000519  -0.000012
     3  C   -0.000112   0.000814  -0.043131   0.393114   0.000353   0.000353
     4  C    0.000152  -0.000770  -0.022254  -0.026184  -0.000012  -0.000519
     5  Cl  -0.000017  -0.000050  -0.000792   0.000997  -0.000017   0.000012
     6  N   -0.001905   0.006087  -0.070158   0.004073   0.002979   0.003666
     7  C    0.003616  -0.014392   0.464679   0.001634  -0.055937  -0.055940
     8  C    0.006172  -0.059180  -0.073420   0.000348   0.448515   0.448517
     9  C   -0.005993   0.434608  -0.007619  -0.000001  -0.049190  -0.049191
    10  C   -0.084503   0.020459   0.006087  -0.000013   0.006973  -0.003420
    11  C   -0.011670  -0.084502  -0.001905   0.000002  -0.000978  -0.000809
    12  C    0.480308  -0.001290   0.000387  -0.000001   0.000428   0.000428
    13  C    4.930672   0.468168  -0.000470   0.000002  -0.000809  -0.000979
    14  C    0.468168   5.025307   0.004347  -0.000013  -0.003419   0.006973
    15  N   -0.000470   0.004347   6.517823   0.004073   0.003666   0.002979
    16  H    0.000002  -0.000013   0.004073   0.467010  -0.000010  -0.000010
    17  H   -0.000809  -0.003419   0.003666  -0.000010   0.468400  -0.008260
    18  H   -0.000979   0.006973   0.002979  -0.000010  -0.008260   0.468400
    19  H   -0.001896   0.007910   0.006279  -0.000002   0.000467   0.000105
    20  H    0.004722  -0.000793  -0.000044   0.000000   0.000004  -0.000049
    21  H   -0.032255   0.003577   0.000001  -0.000000   0.000000   0.000000
    22  H    0.411614  -0.035596  -0.000001   0.000000  -0.000049   0.000004
    23  H   -0.032243   0.407805   0.000269  -0.000002   0.000105   0.000467
              19         20         21         22         23
     1  Cl   0.000073  -0.000001   0.000000  -0.000000   0.000001
     2  C   -0.000032  -0.000001  -0.000000   0.000001  -0.000052
     3  C    0.000162  -0.000002   0.000000  -0.000002   0.000162
     4  C   -0.000052   0.000001  -0.000000  -0.000001  -0.000032
     5  Cl   0.000001  -0.000000   0.000000  -0.000001   0.000073
     6  N    0.000269  -0.000001   0.000001  -0.000044   0.006278
     7  C   -0.004196   0.000059   0.000001   0.000059  -0.004196
     8  C    0.004677  -0.000196   0.000050  -0.000196   0.004676
     9  C   -0.041417   0.006671   0.000494   0.006671  -0.041417
    10  C    0.407804  -0.035595   0.003577  -0.000793   0.007910
    11  C   -0.032242   0.411614  -0.032255   0.004722  -0.001896
    12  C    0.005541  -0.034851   0.408435  -0.034851   0.005541
    13  C   -0.001896   0.004722  -0.032255   0.411614  -0.032243
    14  C    0.007910  -0.000793   0.003577  -0.035596   0.407805
    15  N    0.006279  -0.000044   0.000001  -0.000001   0.000269
    16  H   -0.000002   0.000000  -0.000000   0.000000  -0.000002
    17  H    0.000467   0.000004   0.000000  -0.000049   0.000105
    18  H    0.000105  -0.000049   0.000000   0.000004   0.000467
    19  H    0.493183  -0.003952  -0.000223   0.000057  -0.000218
    20  H   -0.003952   0.511560  -0.003824  -0.000252   0.000057
    21  H   -0.000223  -0.003824   0.511933  -0.003824  -0.000223
    22  H    0.000057  -0.000252  -0.003824   0.511560  -0.003952
    23  H   -0.000218   0.000057  -0.000223  -0.003952   0.493190
 Mulliken charges:
               1
     1  Cl  -0.047426
     2  C    0.144340
     3  C   -0.242777
     4  C    0.144340
     5  Cl  -0.047426
     6  N   -0.230137
     7  C    0.309910
     8  C   -0.426220
     9  C    0.110335
    10  C   -0.185556
    11  C   -0.132683
    12  C   -0.152775
    13  C   -0.132684
    14  C   -0.185552
    15  N   -0.230140
    16  H    0.180173
    17  H    0.187299
    18  H    0.187301
    19  H    0.157703
    20  H    0.144870
    21  H    0.144535
    22  H    0.144870
    23  H    0.157699
 Sum of Mulliken charges =  -0.00000
 Mulliken charges with hydrogens summed into heavy atoms:
               1
     1  Cl  -0.047426
     2  C    0.144340
     3  C   -0.062604
     4  C    0.144340
     5  Cl  -0.047426
     6  N   -0.230137
     7  C    0.309910
     8  C   -0.051620
     9  C    0.110335
    10  C   -0.027852
    11  C    0.012187
    12  C   -0.008240
    13  C    0.012186
    14  C   -0.027854
    15  N   -0.230140
 Electronic spatial extent (au):  <R**2>=           4583.2544
 Charge=              0.0000 electrons
 Dipole moment (field-independent basis, Debye):
    X=              0.0342    Y=             -0.0000    Z=              0.2790  Tot=              0.2811
 Quadrupole moment (field-independent basis, Debye-Ang):
   XX=            -94.1170   YY=           -101.6433   ZZ=            -98.0897
   XY=              0.0002   XZ=              1.2453   YZ=             -0.0003
 Traceless Quadrupole moment (field-independent basis, Debye-Ang):
   XX=              3.8330   YY=             -3.6933   ZZ=             -0.1397
   XY=              0.0002   XZ=              1.2453   YZ=             -0.0003
 Octapole moment (field-independent basis, Debye-Ang**2):
  XXX=            -36.7368  YYY=             -0.0002  ZZZ=             -3.2375  XYY=              7.7977
  XXY=              0.0017  XXZ=             33.1798  XZZ=             -6.0694  YZZ=             -0.0000
  YYZ=              7.3670  XYZ=             -0.0008
 Hexadecapole moment (field-independent basis, Debye-Ang**3):
 XXXX=          -3989.6943 YYYY=          -1608.2195 ZZZZ=           -471.6632 XXXY=              0.0087
 XXXZ=            106.2161 YYYX=              0.0014 YYYZ=             -0.0009 ZZZX=            -11.7758
 ZZZY=             -0.0002 XXYY=           -898.2294 XXZZ=           -728.3718 YYZZ=           -356.8096
 XXYZ=             -0.0021 YYXZ=             -3.5449 ZZXY=             -0.0011
 N-N= 1.087629375333D+03 E-N=-5.602981766178D+03  KE= 1.450167709002D+03
 Unable to Open any file for archive entry.
 1\1\GINC-COMPUTE-0-15\SP\RM062X\def2TZVP\C11H8Cl2N2\ZTAN64\16-Aug-2024
 \0\\# M062X/def2tzvp int=(grid=ultrafine) nmr=giao guess=read geom=che
 ck\\pyrmd2.xyz\\0,1\Cl,0,0.8979931959,1.9475389741,-1.6519508781\C,0,1
 .8816474311,0.7585620666,-0.8263387851\C,0,3.0990562645,1.1561233536,-
 0.2782065191\C,0,3.8008404225,0.1289842329,0.3487473999\Cl,0,5.3523574
 307,0.4863147904,1.0753745141\N,0,3.3697255298,-1.1182220379,0.4326760
 108\C,0,2.17860946,-1.3742224936,-0.1305889134\C,0,1.6284861379,-2.769
 0495486,0.0205808306\C,0,0.8148364826,-2.8611655824,1.3001122019\C,0,-
 0.5486204669,-2.5497942999,1.294694427\C,0,-1.2868584236,-2.5920062475
 ,2.4768655827\C,0,-0.6666717424,-2.9400197372,3.6775336723\C,0,0.69557
 57159,-3.2424389486,3.690661342\C,0,1.4330392148,-3.1999725534,2.50801
 55504\N,0,1.4108556486,-0.4756272323,-0.766703693\H,0,3.4677211867,2.1
 699115988,-0.3371642524\H,0,2.4641718469,-3.4714075706,0.0503253017\H,
 0,1.0013685677,-2.9915416624,-0.845319676\H,0,-1.0273889561,-2.2685519
 049,0.3613780938\H,0,-2.3459994963,-2.3535558888,2.4599357951\H,0,-1.2
 416786858,-2.9753387386,4.5977385978\H,0,1.1847910687,-3.5120016253,4.
 6217517391\H,0,2.4955421668,-3.4244189444,2.5183816579\\Version=ES64L-
 G16RevC.01\State=1-A\HF=-1453.8732346\RMSD=1.345e-09\Dipole=-0.0296205
 ,0.0659358,0.0837049\Quadrupole=-0.8466907,0.2046291,0.6420616,1.44268
 38,-2.3289753,-0.7759352\PG=C01 [X(C11H8Cl2N2)]\\@
 The archive entry for this job was punched.


 THE WISE MAN HAS THE POWER TO REASON AWAY
 WHAT A FOOL BELIEVES.
                     - DOOBIE BROTHERS
 Job cpu time:       0 days  0 hours 43 minutes 36.0 seconds.
 Elapsed time:       0 days  0 hours  2 minutes 53.3 seconds.
 File lengths (MBytes):  RWF=    156 Int=      0 D2E=      0 Chk=     25 Scr=      1
 Normal termination of Gaussian 16 at Fri Aug 16 14:13:49 2024.
 
 
-----Kestrel cluster job statistics-----
Time info:

real	21m6.666s
user	330m57.687s
sys	0m35.608s
 
Disk space usage:
25M	/scratch/363663.kestrel.chem.wisc.edu
