 Entering Gaussian System, Link 0=/share/apps/gaussian/g16/g16
 Initial command:
 /share/apps/gaussian/g16/l1.exe "/scratch/363664.kestrel.chem.wisc.edu/Gau-110449.inp" -scrdir="/scratch/363664.kestrel.chem.wisc.edu/"
 Entering Link 1 = /share/apps/gaussian/g16/l1.exe PID=    110455.
  
 Copyright (c) 1988-2019, Gaussian, Inc.  All Rights Reserved.
  
 This is part of the Gaussian(R) 16 program.  It is based on
 the Gaussian(R) 09 system (copyright 2009, Gaussian, Inc.),
 the Gaussian(R) 03 system (copyright 2003, Gaussian, Inc.),
 the Gaussian(R) 98 system (copyright 1998, Gaussian, Inc.),
 the Gaussian(R) 94 system (copyright 1995, Gaussian, Inc.),
 the Gaussian 92(TM) system (copyright 1992, Gaussian, Inc.),
 the Gaussian 90(TM) system (copyright 1990, Gaussian, Inc.),
 the Gaussian 88(TM) system (copyright 1988, Gaussian, Inc.),
 the Gaussian 86(TM) system (copyright 1986, Carnegie Mellon
 University), and the Gaussian 82(TM) system (copyright 1983,
 Carnegie Mellon University). Gaussian is a federally registered
 trademark of Gaussian, Inc.
  
 This software contains proprietary and confidential information,
 including trade secrets, belonging to Gaussian, Inc.
  
 This software is provided under written license and may be
 used, copied, transmitted, or stored only in accord with that
 written license.
  
 The following legend is applicable only to US Government
 contracts under FAR:
  
                    RESTRICTED RIGHTS LEGEND
  
 Use, reproduction and disclosure by the US Government is
 subject to restrictions as set forth in subparagraphs (a)
 and (c) of the Commercial Computer Software - Restricted
 Rights clause in FAR 52.227-19.
  
 Gaussian, Inc.
 340 Quinnipiac St., Bldg. 40, Wallingford CT 06492
  
  
 ---------------------------------------------------------------
 Warning -- This program may not be used in any manner that
 competes with the business of Gaussian, Inc. or will provide
 assistance to any competitor of Gaussian, Inc.  The licensee
 of this program is prohibited from giving any competitor of
 Gaussian, Inc. access to this program.  By using this program,
 the user acknowledges that Gaussian, Inc. is engaged in the
 business of creating and licensing software in the field of
 computational chemistry and represents and warrants to the
 licensee that it is not a competitor of Gaussian, Inc. and that
 it will not use this program in any manner prohibited above.
 ---------------------------------------------------------------
  

 Cite this work as:
 Gaussian 16, Revision C.01,
 M. J. Frisch, G. W. Trucks, H. B. Schlegel, G. E. Scuseria, 
 M. A. Robb, J. R. Cheeseman, G. Scalmani, V. Barone, 
 G. A. Petersson, H. Nakatsuji, X. Li, M. Caricato, A. V. Marenich, 
 J. Bloino, B. G. Janesko, R. Gomperts, B. Mennucci, H. P. Hratchian, 
 J. V. Ortiz, A. F. Izmaylov, J. L. Sonnenberg, D. Williams-Young, 
 F. Ding, F. Lipparini, F. Egidi, J. Goings, B. Peng, A. Petrone, 
 T. Henderson, D. Ranasinghe, V. G. Zakrzewski, J. Gao, N. Rega, 
 G. Zheng, W. Liang, M. Hada, M. Ehara, K. Toyota, R. Fukuda, 
 J. Hasegawa, M. Ishida, T. Nakajima, Y. Honda, O. Kitao, H. Nakai, 
 T. Vreven, K. Throssell, J. A. Montgomery, Jr., J. E. Peralta, 
 F. Ogliaro, M. J. Bearpark, J. J. Heyd, E. N. Brothers, K. N. Kudin, 
 V. N. Staroverov, T. A. Keith, R. Kobayashi, J. Normand, 
 K. Raghavachari, A. P. Rendell, J. C. Burant, S. S. Iyengar, 
 J. Tomasi, M. Cossi, J. M. Millam, M. Klene, C. Adamo, R. Cammi, 
 J. W. Ochterski, R. L. Martin, K. Morokuma, O. Farkas, 
 J. B. Foresman, and D. J. Fox, Gaussian, Inc., Wallingford CT, 2019.
 
 ******************************************
 Gaussian 16:  ES64L-G16RevC.01  3-Jul-2019
                16-Aug-2024 
 ******************************************
 %nprocs=16
 Will use up to   16 processors via shared memory.
 %mem=16GB
 %chk=pyrz2_conf-2.chk
 ----------------------------------------------------------------------
 # B3LYP/6-31G(d,p) symmetry=loose empiricaldispersion=GD3BJ int=(grid=
 ultrafine) opt=calcfc freq=noraman
 ----------------------------------------------------------------------
 1/10=4,18=20,19=15,26=4,38=1/1,3;
 2/9=110,12=2,17=4,18=3,40=1/2;
 3/5=1,6=6,7=101,11=2,25=1,30=1,71=2,74=-5,75=-5,124=41,140=1/1,2,3;
 4//1;
 5/5=2,38=5/2;
 8/6=4,10=90,11=11/1;
 11/6=1,8=1,9=11,15=111,16=1/1,2,10;
 10/6=1,13=1/2;
 6/7=2,8=2,9=2,10=2,28=1/1;
 7/10=1,25=1/1,2,3,16;
 1/10=4,18=20,19=15,26=4/3(2);
 2/9=110/2;
 99//99;
 2/9=110/2;
 3/5=1,6=6,7=101,11=2,25=1,30=1,71=1,74=-5,75=-5,124=41/1,2,3;
 4/5=5,16=3,69=1/1;
 5/5=2,38=5/2;
 7//1,2,3,16;
 1/18=20,19=15,26=4/3(-5);
 2/9=110/2;
 6/7=2,8=2,9=2,10=2,19=2,28=1/1;
 99/9=1/99;
 ---------
 pyrz2.xyz
 ---------
 Symbolic Z-matrix:
 Charge =  0 Multiplicity = 1
 Cl                   -4.1518    1.2901   -0.2954 
 C                    -2.4829    0.8575   -0.1714 
 C                    -2.0766   -0.4804   -0.2227 
 C                    -3.0566   -1.6329   -0.3886 
 N                    -0.7643   -0.8171   -0.125 
 C                     0.1641    0.17      0.0252 
 C                     1.5806   -0.3279    0.1219 
 O                     2.5114    0.6462    0.2764 
 C                     3.89      0.3124    0.3813 
 O                     1.8819   -1.5236    0.0663 
 C                    -0.2632    1.5155    0.0751 
 N                     0.589     2.6015    0.2246 
 N                    -1.5723    1.8506   -0.0225 
 H                    -2.556    -2.6028   -0.4071 
 H                    -3.6121   -1.5263   -1.321 
 H                    -3.7724   -1.6426    0.4341 
 H                     4.4875    1.2161    0.5 
 H                     4.2351   -0.2089   -0.5133 
 H                     4.0717   -0.3317    1.2433 
 H                     0.2009    3.5308    0.2508 
 H                     1.5796    2.416     0.3037 
 

 GradGradGradGradGradGradGradGradGradGradGradGradGradGradGradGradGradGrad
 Berny optimization.
 Initialization pass.
                           ----------------------------
                           !    Initial Parameters    !
                           ! (Angstroms and Degrees)  !
 --------------------------                            --------------------------
 ! Name  Definition              Value          Derivative Info.                !
 --------------------------------------------------------------------------------
 ! R1    R(1,2)                  1.7285         calculate D2E/DX2 analytically  !
 ! R2    R(2,3)                  1.3992         calculate D2E/DX2 analytically  !
 ! R3    R(2,13)                 1.3556         calculate D2E/DX2 analytically  !
 ! R4    R(3,4)                  1.5219         calculate D2E/DX2 analytically  !
 ! R5    R(3,5)                  1.3583         calculate D2E/DX2 analytically  !
 ! R6    R(4,14)                 1.0916         calculate D2E/DX2 analytically  !
 ! R7    R(4,15)                 1.0906         calculate D2E/DX2 analytically  !
 ! R8    R(4,16)                 1.0905         calculate D2E/DX2 analytically  !
 ! R9    R(5,6)                  1.3634         calculate D2E/DX2 analytically  !
 ! R10   R(6,7)                  1.5046         calculate D2E/DX2 analytically  !
 ! R11   R(6,11)                 1.4126         calculate D2E/DX2 analytically  !
 ! R12   R(7,8)                  1.3561         calculate D2E/DX2 analytically  !
 ! R13   R(7,10)                 1.2343         calculate D2E/DX2 analytically  !
 ! R14   R(8,9)                  1.4223         calculate D2E/DX2 analytically  !
 ! R15   R(9,17)                 1.0898         calculate D2E/DX2 analytically  !
 ! R16   R(9,18)                 1.0914         calculate D2E/DX2 analytically  !
 ! R17   R(9,19)                 1.0913         calculate D2E/DX2 analytically  !
 ! R18   R(11,12)                1.3885         calculate D2E/DX2 analytically  !
 ! R19   R(11,13)                1.3548         calculate D2E/DX2 analytically  !
 ! R20   R(12,20)                1.0074         calculate D2E/DX2 analytically  !
 ! R21   R(12,21)                1.0109         calculate D2E/DX2 analytically  !
 ! A1    A(1,2,3)              121.1349         calculate D2E/DX2 analytically  !
 ! A2    A(1,2,13)             118.2359         calculate D2E/DX2 analytically  !
 ! A3    A(3,2,13)             120.6292         calculate D2E/DX2 analytically  !
 ! A4    A(2,3,4)              122.76           calculate D2E/DX2 analytically  !
 ! A5    A(2,3,5)              120.993          calculate D2E/DX2 analytically  !
 ! A6    A(4,3,5)              116.247          calculate D2E/DX2 analytically  !
 ! A7    A(3,4,14)             112.2956         calculate D2E/DX2 analytically  !
 ! A8    A(3,4,15)             110.3148         calculate D2E/DX2 analytically  !
 ! A9    A(3,4,16)             110.3135         calculate D2E/DX2 analytically  !
 ! A10   A(14,4,15)            107.8152         calculate D2E/DX2 analytically  !
 ! A11   A(14,4,16)            107.8111         calculate D2E/DX2 analytically  !
 ! A12   A(15,4,16)            108.1509         calculate D2E/DX2 analytically  !
 ! A13   A(3,5,6)              119.0998         calculate D2E/DX2 analytically  !
 ! A14   A(5,6,7)              114.1155         calculate D2E/DX2 analytically  !
 ! A15   A(5,6,11)             119.1777         calculate D2E/DX2 analytically  !
 ! A16   A(7,6,11)             126.7068         calculate D2E/DX2 analytically  !
 ! A17   A(6,7,8)              114.57           calculate D2E/DX2 analytically  !
 ! A18   A(6,7,10)             123.1947         calculate D2E/DX2 analytically  !
 ! A19   A(8,7,10)             122.2353         calculate D2E/DX2 analytically  !
 ! A20   A(7,8,9)              120.3375         calculate D2E/DX2 analytically  !
 ! A21   A(8,9,17)             110.171          calculate D2E/DX2 analytically  !
 ! A22   A(8,9,18)             110.9851         calculate D2E/DX2 analytically  !
 ! A23   A(8,9,19)             110.987          calculate D2E/DX2 analytically  !
 ! A24   A(17,9,18)            108.1787         calculate D2E/DX2 analytically  !
 ! A25   A(17,9,19)            108.1855         calculate D2E/DX2 analytically  !
 ! A26   A(18,9,19)            108.2338         calculate D2E/DX2 analytically  !
 ! A27   A(6,11,12)            124.2721         calculate D2E/DX2 analytically  !
 ! A28   A(6,11,13)            121.6901         calculate D2E/DX2 analytically  !
 ! A29   A(12,11,13)           114.0377         calculate D2E/DX2 analytically  !
 ! A30   A(11,12,20)           119.1983         calculate D2E/DX2 analytically  !
 ! A31   A(11,12,21)           117.7956         calculate D2E/DX2 analytically  !
 ! A32   A(20,12,21)           123.0061         calculate D2E/DX2 analytically  !
 ! A33   A(2,13,11)            118.4102         calculate D2E/DX2 analytically  !
 ! D1    D(1,2,3,4)              0.0043         calculate D2E/DX2 analytically  !
 ! D2    D(1,2,3,5)            179.9984         calculate D2E/DX2 analytically  !
 ! D3    D(13,2,3,4)          -179.9948         calculate D2E/DX2 analytically  !
 ! D4    D(13,2,3,5)            -0.0007         calculate D2E/DX2 analytically  !
 ! D5    D(1,2,13,11)          179.9975         calculate D2E/DX2 analytically  !
 ! D6    D(3,2,13,11)           -0.0034         calculate D2E/DX2 analytically  !
 ! D7    D(2,3,4,14)           179.9906         calculate D2E/DX2 analytically  !
 ! D8    D(2,3,4,15)            59.699          calculate D2E/DX2 analytically  !
 ! D9    D(2,3,4,16)           -59.724          calculate D2E/DX2 analytically  !
 ! D10   D(5,3,4,14)            -0.0037         calculate D2E/DX2 analytically  !
 ! D11   D(5,3,4,15)          -120.2953         calculate D2E/DX2 analytically  !
 ! D12   D(5,3,4,16)           120.2817         calculate D2E/DX2 analytically  !
 ! D13   D(2,3,5,6)              0.004          calculate D2E/DX2 analytically  !
 ! D14   D(4,3,5,6)            179.9984         calculate D2E/DX2 analytically  !
 ! D15   D(3,5,6,7)            179.9942         calculate D2E/DX2 analytically  !
 ! D16   D(3,5,6,11)            -0.0031         calculate D2E/DX2 analytically  !
 ! D17   D(5,6,7,8)           -179.772          calculate D2E/DX2 analytically  !
 ! D18   D(5,6,7,10)             0.2277         calculate D2E/DX2 analytically  !
 ! D19   D(11,6,7,8)             0.2251         calculate D2E/DX2 analytically  !
 ! D20   D(11,6,7,10)         -179.7752         calculate D2E/DX2 analytically  !
 ! D21   D(5,6,11,12)         -179.9866         calculate D2E/DX2 analytically  !
 ! D22   D(5,6,11,13)           -0.0011         calculate D2E/DX2 analytically  !
 ! D23   D(7,6,11,12)            0.0165         calculate D2E/DX2 analytically  !
 ! D24   D(7,6,11,13)         -179.998          calculate D2E/DX2 analytically  !
 ! D25   D(6,7,8,9)            179.9885         calculate D2E/DX2 analytically  !
 ! D26   D(10,7,8,9)            -0.0112         calculate D2E/DX2 analytically  !
 ! D27   D(7,8,9,17)          -179.9943         calculate D2E/DX2 analytically  !
 ! D28   D(7,8,9,18)            60.2118         calculate D2E/DX2 analytically  !
 ! D29   D(7,8,9,19)           -60.1907         calculate D2E/DX2 analytically  !
 ! D30   D(6,11,12,20)        -179.9858         calculate D2E/DX2 analytically  !
 ! D31   D(6,11,12,21)          -0.0618         calculate D2E/DX2 analytically  !
 ! D32   D(13,11,12,20)          0.0277         calculate D2E/DX2 analytically  !
 ! D33   D(13,11,12,21)        179.9517         calculate D2E/DX2 analytically  !
 ! D34   D(6,11,13,2)            0.0043         calculate D2E/DX2 analytically  !
 ! D35   D(12,11,13,2)         179.9912         calculate D2E/DX2 analytically  !
 --------------------------------------------------------------------------------
 Trust Radius=3.00D-01 FncErr=1.00D-07 GrdErr=1.00D-06 EigMax=2.50D+02 EigMin=1.00D-04
 Number of steps in this run=     99 maximum allowed number of steps=    126.
 GradGradGradGradGradGradGradGradGradGradGradGradGradGradGradGradGradGrad

                          Input orientation:                          
 ---------------------------------------------------------------------
 Center     Atomic      Atomic             Coordinates (Angstroms)
 Number     Number       Type             X           Y           Z
 ---------------------------------------------------------------------
      1         17           0       -4.151800    1.290100   -0.295400
      2          6           0       -2.482900    0.857500   -0.171400
      3          6           0       -2.076600   -0.480400   -0.222700
      4          6           0       -3.056600   -1.632900   -0.388600
      5          7           0       -0.764300   -0.817100   -0.125000
      6          6           0        0.164100    0.170000    0.025200
      7          6           0        1.580600   -0.327900    0.121900
      8          8           0        2.511400    0.646200    0.276400
      9          6           0        3.890000    0.312400    0.381300
     10          8           0        1.881900   -1.523600    0.066300
     11          6           0       -0.263200    1.515500    0.075100
     12          7           0        0.589000    2.601500    0.224600
     13          7           0       -1.572300    1.850600   -0.022500
     14          1           0       -2.556000   -2.602800   -0.407100
     15          1           0       -3.612100   -1.526300   -1.321000
     16          1           0       -3.772400   -1.642600    0.434100
     17          1           0        4.487500    1.216100    0.500000
     18          1           0        4.235100   -0.208900   -0.513300
     19          1           0        4.071700   -0.331700    1.243300
     20          1           0        0.200900    3.530800    0.250800
     21          1           0        1.579600    2.416000    0.303700
 ---------------------------------------------------------------------
                    Distance matrix (angstroms):
                    1          2          3          4          5
     1  Cl   0.000000
     2  C    1.728510   0.000000
     3  C    2.728811   1.399174   0.000000
     4  C    3.122832   2.564839   1.521900   0.000000
     5  N    3.993055   2.400005   1.358324   2.447377   0.000000
     6  C    4.470392   2.741882   2.346319   3.714107   1.363398
     7  C    5.970969   4.243021   3.676563   4.844302   2.408076
     8  O    6.718616   5.018785   4.750587   6.053028   3.610066
     9  C    8.129229   6.420005   6.049270   7.254805   4.816079
    10  O    6.667329   4.977712   4.103841   4.960611   2.745562
    11  C    3.912708   2.328260   2.713065   4.234445   2.394194
    12  N    4.946247   3.554563   4.099220   5.621081   3.693300
    13  N    2.653762   1.355585   2.393316   3.804201   2.789264
    14  H    4.208768   3.469088   2.183669   1.091627   2.545289
    15  H    3.045528   2.877356   2.158224   1.090557   3.169124
    16  H    3.045791   2.877489   2.158201   1.090550   3.169023
    17  H    8.676154   7.011836   6.818197   8.112944   5.666210
    18  H    8.522592   6.810700   6.324217   7.430492   5.051206
    19  H    8.521959   6.810165   6.322409   7.427576   5.049233
    20  H    4.925959   3.811505   4.636910   6.138724   4.469572
    21  H    5.871586   4.377048   4.694042   6.194128   4.016290
                    6          7          8          9         10
     6  C    0.000000
     7  C    1.504569   0.000000
     8  O    2.408254   1.356145   0.000000
     9  C    3.745586   2.410519   1.422310   0.000000
    10  O    2.412635   1.234330   2.269018   2.739085   0.000000
    11  C    1.412602   2.607664   2.914551   4.334775   3.719901
    12  N    2.476387   3.094382   2.742536   4.020091   4.325864
    13  N    2.416977   3.835035   4.268082   5.689098   4.829556
    14  H    3.908228   4.750418   6.058194   7.118348   4.591703
    15  H    4.353088   5.521074   6.690941   7.909497   5.666449
    16  H    4.353016   5.520916   6.689515   7.908046   5.667499
    17  H    4.473427   3.313150   2.068757   1.089848   3.805680
    18  H    4.123905   2.732034   2.079895   1.091401   2.757158
    19  H    4.123689   2.731873   2.079837   1.091295   2.757024
    20  H    3.368564   4.099970   3.695941   4.897406   5.329799
    21  H    2.669404   2.749916   2.000297   3.125556   3.958307
                   11         12         13         14         15
    11  C    0.000000
    12  N    1.388521   0.000000
    13  N    1.354829   2.301332   0.000000
    14  H    4.738127   6.113494   4.576937   0.000000
    15  H    4.734636   6.089077   4.153353   1.763353   0.000000
    16  H    4.734655   6.089178   4.153477   1.763301   1.766238
    17  H    4.779051   4.146502   6.115290   8.063357   8.743015
    18  H    4.853295   4.662284   6.181288   7.201463   7.997904
    19  H    4.854709   4.665899   6.182186   7.197786   8.188009
    20  H    2.075498   1.007426   2.458049   6.756802   6.525625
    21  H    2.063751   1.010918   3.218782   6.541925   6.718268
                   16         17         18         19         20
    16  H    0.000000
    17  H    8.740850   0.000000
    18  H    8.189818   1.766666   0.000000
    19  H    7.993946   1.766655   1.768452   0.000000
    20  H    6.525701   4.877999   5.553735   5.557612   0.000000
    21  H    6.718120   3.151853   3.822207   3.826652   1.773807
                   21
    21  H    0.000000
 Stoichiometry    C7H8ClN3O2
 Framework group  C1[X(C7H8ClN3O2)]
 Deg. of freedom    57
 Full point group                 C1      NOp   1
 Largest Abelian subgroup         C1      NOp   1
 Largest concise Abelian subgroup C1      NOp   1
                         Standard orientation:                         
 ---------------------------------------------------------------------
 Center     Atomic      Atomic             Coordinates (Angstroms)
 Number     Number       Type             X           Y           Z
 ---------------------------------------------------------------------
      1         17           0        3.663839   -0.655081    0.000669
      2          6           0        1.967760   -0.321823    0.000096
      3          6           0        1.488787    0.992815    0.000512
      4          6           0        2.409378    2.204711    0.001386
      5          7           0        0.155304    1.251399    0.000026
      6          6           0       -0.722423    0.208113   -0.000796
      7          6           0       -2.169006    0.621786   -0.001128
      8          8           0       -3.050267   -0.408986    0.002963
      9          6           0       -4.450137   -0.157331    0.003386
     10          8           0       -2.534748    1.800680   -0.004802
     11          6           0       -0.221994   -1.112878   -0.001188
     12          7           0       -1.018015   -2.250569   -0.002288
     13          7           0        1.108203   -1.370046   -0.000789
     14          1           0        1.855615    3.145452    0.001442
     15          1           0        3.049620    2.194470   -0.881394
     16          1           0        3.048662    2.193890    0.884844
     17          1           0       -5.001015   -1.097698    0.006997
     18          1           0       -4.746036    0.407232   -0.882543
     19          1           0       -4.744428    0.413184    0.885898
     20          1           0       -0.579206   -3.157406   -0.002281
     21          1           0       -2.020997   -2.124144   -0.001880
 ---------------------------------------------------------------------
 Rotational constants (GHZ):           1.5868058           0.3895966           0.3140217
 Standard basis: 6-31G(d,p) (6D, 7F)
 There are   239 symmetry adapted cartesian basis functions of A   symmetry.
 There are   239 symmetry adapted basis functions of A   symmetry.
   239 basis functions,   444 primitive gaussians,   239 cartesian basis functions
    52 alpha electrons       52 beta electrons
       nuclear repulsion energy       872.1423791829 Hartrees.
 NAtoms=   21 NActive=   21 NUniq=   21 SFac= 1.00D+00 NAtFMM=   60 NAOKFM=F Big=F
 Integral buffers will be    131072 words long.
 Raffenetti 2 integral format.
 Two-electron integral symmetry is turned on.
 Nuclear repulsion after empirical dispersion term =      872.1020795403 Hartrees.
 One-electron integrals computed using PRISM.
 NBasis=   239 RedAO= T EigKep=  9.42D-04  NBF=   239
 NBsUse=   239 1.00D-06 EigRej= -1.00D+00 NBFU=   239
 ExpMin= 1.43D-01 ExpMax= 2.52D+04 ExpMxC= 3.78D+03 IAcc=3 IRadAn=         5 AccDes= 0.00D+00
 Harris functional with IExCor=  402 and IRadAn=       5 diagonalized for initial guess.
 HarFok:  IExCor=  402 AccDes= 0.00D+00 IRadAn=         5 IDoV= 1 UseB2=F ITyADJ=14
 ICtDFT=  3500011 ScaDFX=  1.000000  1.000000  1.000000  1.000000
 FoFCou: FMM=F IPFlag=           0 FMFlag=      100000 FMFlg1=           0
         NFxFlg=           0 DoJE=T BraDBF=F KetDBF=T FulRan=T
         wScrn=  0.000000 ICntrl=       500 IOpCl=  0 I1Cent=   200000004 NGrid=           0
         NMat0=    1 NMatS0=      1 NMatT0=    0 NMatD0=    1 NMtDS0=    0 NMtDT0=    0
 Petite list used in FoFCou.
 Requested convergence on RMS density matrix=1.00D-08 within 128 cycles.
 Requested convergence on MAX density matrix=1.00D-06.
 Requested convergence on             energy=1.00D-06.
 No special actions if energy rises.
 Integral accuracy reduced to 1.0D-05 until final iterations.
 Initial convergence to 1.0D-05 achieved.  Increase integral accuracy.
 SCF Done:  E(RB3LYP) =  -1046.52124716     A.U. after   15 cycles
            NFock= 15  Conv=0.59D-08     -V/T= 2.0069
 DoSCS=F DFT=T ScalE2(SS,OS)=  1.000000  1.000000
 Range of M.O.s used for correlation:     1   239
 NBasis=   239 NAE=    52 NBE=    52 NFC=     0 NFV=     0
 NROrb=    239 NOA=    52 NOB=    52 NVA=   187 NVB=   187
 Symmetrizing basis deriv contribution to polar:
 IMax=3 JMax=2 DiffMx= 0.00D+00
 G2DrvN: will do    22 centers at a time, making    1 passes.
 Calling FoFCou, ICntrl=  3107 FMM=F I1Cent=   0 AccDes= 0.00D+00.
 End of G2Drv F.D. properties file   721 does not exist.
 End of G2Drv F.D. properties file   722 does not exist.
 End of G2Drv F.D. properties file   788 does not exist.
          IDoAtm=111111111111111111111
          Differentiating once with respect to nuclear coordinates.
 Keep R1 ints in memory in canonical form, NReq=428340623.
          There are    66 degrees of freedom in the 1st order CPHF.  IDoFFX=6 NUNeed=     0.
     60 vectors produced by pass  0 Test12= 1.47D-14 1.52D-09 XBig12= 2.28D-01 2.37D-01.
 AX will form    60 AO Fock derivatives at one time.
     60 vectors produced by pass  1 Test12= 1.47D-14 1.52D-09 XBig12= 1.57D-01 9.84D-02.
     60 vectors produced by pass  2 Test12= 1.47D-14 1.52D-09 XBig12= 1.09D-03 6.25D-03.
     60 vectors produced by pass  3 Test12= 1.47D-14 1.52D-09 XBig12= 4.58D-06 3.14D-04.
     60 vectors produced by pass  4 Test12= 1.47D-14 1.52D-09 XBig12= 1.57D-08 2.37D-05.
     52 vectors produced by pass  5 Test12= 1.47D-14 1.52D-09 XBig12= 2.07D-11 6.93D-07.
     19 vectors produced by pass  6 Test12= 1.47D-14 1.52D-09 XBig12= 1.83D-14 1.87D-08.
 InvSVY:  IOpt=1 It=  1 EMax= 6.11D-16
 Solved reduced A of dimension   371 with    66 vectors.
 End of Minotr F.D. properties file   721 does not exist.
 End of Minotr F.D. properties file   722 does not exist.
 End of Minotr F.D. properties file   788 does not exist.

 **********************************************************************

            Population analysis using the SCF Density.

 **********************************************************************

 Orbital symmetries:
       Occupied  (A) (A) (A) (A) (A) (A) (A) (A) (A) (A) (A) (A)
                 (A) (A) (A) (A) (A) (A) (A) (A) (A) (A) (A) (A)
                 (A) (A) (A) (A) (A) (A) (A) (A) (A) (A) (A) (A)
                 (A) (A) (A) (A) (A) (A) (A) (A) (A) (A) (A) (A)
                 (A) (A) (A) (A)
       Virtual   (A) (A) (A) (A) (A) (A) (A) (A) (A) (A) (A) (A)
                 (A) (A) (A) (A) (A) (A) (A) (A) (A) (A) (A) (A)
                 (A) (A) (A) (A) (A) (A) (A) (A) (A) (A) (A) (A)
                 (A) (A) (A) (A) (A) (A) (A) (A) (A) (A) (A) (A)
                 (A) (A) (A) (A) (A) (A) (A) (A) (A) (A) (A) (A)
                 (A) (A) (A) (A) (A) (A) (A) (A) (A) (A) (A) (A)
                 (A) (A) (A) (A) (A) (A) (A) (A) (A) (A) (A) (A)
                 (A) (A) (A) (A) (A) (A) (A) (A) (A) (A) (A) (A)
                 (A) (A) (A) (A) (A) (A) (A) (A) (A) (A) (A) (A)
                 (A) (A) (A) (A) (A) (A) (A) (A) (A) (A) (A) (A)
                 (A) (A) (A) (A) (A) (A) (A) (A) (A) (A) (A) (A)
                 (A) (A) (A) (A) (A) (A) (A) (A) (A) (A) (A) (A)
                 (A) (A) (A) (A) (A) (A) (A) (A) (A) (A) (A) (A)
                 (A) (A) (A) (A) (A) (A) (A) (A) (A) (A) (A) (A)
                 (A) (A) (A) (A) (A) (A) (A) (A) (A) (A) (A) (A)
                 (A) (A) (A) (A) (A) (A) (A)
 The electronic state is 1-A.
 Alpha  occ. eigenvalues -- -101.56437 -19.21244 -19.13688 -14.35936 -14.35856
 Alpha  occ. eigenvalues --  -14.35611 -10.32909 -10.29835 -10.29156 -10.25598
 Alpha  occ. eigenvalues --  -10.24842 -10.24441 -10.18583  -9.48109  -7.24503
 Alpha  occ. eigenvalues --   -7.23561  -7.23467  -1.11220  -1.01158  -0.99659
 Alpha  occ. eigenvalues --   -0.92815  -0.90869  -0.85723  -0.78909  -0.75085
 Alpha  occ. eigenvalues --   -0.70625  -0.66750  -0.63884  -0.59244  -0.56690
 Alpha  occ. eigenvalues --   -0.53626  -0.52209  -0.49616  -0.49380  -0.47427
 Alpha  occ. eigenvalues --   -0.45691  -0.45674  -0.43720  -0.41627  -0.40613
 Alpha  occ. eigenvalues --   -0.39972  -0.38749  -0.36599  -0.36417  -0.33983
 Alpha  occ. eigenvalues --   -0.33387  -0.30862  -0.30846  -0.29172  -0.27449
 Alpha  occ. eigenvalues --   -0.26725  -0.22857
 Alpha virt. eigenvalues --   -0.07533  -0.02176   0.03285   0.03416   0.08485
 Alpha virt. eigenvalues --    0.10227   0.11016   0.12557   0.13904   0.13919
 Alpha virt. eigenvalues --    0.15407   0.16657   0.17328   0.18474   0.19723
 Alpha virt. eigenvalues --    0.21833   0.23704   0.25764   0.28290   0.29938
 Alpha virt. eigenvalues --    0.32261   0.35479   0.37387   0.38773   0.41890
 Alpha virt. eigenvalues --    0.43878   0.44505   0.46508   0.47831   0.49096
 Alpha virt. eigenvalues --    0.49713   0.50375   0.51965   0.54399   0.54980
 Alpha virt. eigenvalues --    0.55912   0.57280   0.57378   0.59754   0.62422
 Alpha virt. eigenvalues --    0.62532   0.64355   0.64878   0.65154   0.66715
 Alpha virt. eigenvalues --    0.69616   0.71475   0.72811   0.75012   0.75361
 Alpha virt. eigenvalues --    0.77563   0.79632   0.80720   0.82013   0.82718
 Alpha virt. eigenvalues --    0.84693   0.85395   0.85518   0.85954   0.86154
 Alpha virt. eigenvalues --    0.87237   0.88323   0.89045   0.90783   0.92050
 Alpha virt. eigenvalues --    0.94536   0.95344   0.96516   0.96600   0.98608
 Alpha virt. eigenvalues --    0.99660   1.03417   1.05235   1.06451   1.07430
 Alpha virt. eigenvalues --    1.09328   1.17060   1.18798   1.21588   1.25335
 Alpha virt. eigenvalues --    1.26094   1.26891   1.30409   1.30531   1.31251
 Alpha virt. eigenvalues --    1.36711   1.37055   1.39114   1.41905   1.44386
 Alpha virt. eigenvalues --    1.44744   1.48564   1.49671   1.53616   1.53818
 Alpha virt. eigenvalues --    1.55909   1.61759   1.64971   1.66765   1.72319
 Alpha virt. eigenvalues --    1.72799   1.73831   1.75888   1.78207   1.80968
 Alpha virt. eigenvalues --    1.82754   1.84190   1.85062   1.85425   1.88485
 Alpha virt. eigenvalues --    1.89732   1.93130   1.94632   1.96108   1.99471
 Alpha virt. eigenvalues --    2.01678   2.01983   2.04486   2.04564   2.04637
 Alpha virt. eigenvalues --    2.06184   2.07620   2.10124   2.12420   2.14466
 Alpha virt. eigenvalues --    2.15052   2.16625   2.17534   2.19003   2.24171
 Alpha virt. eigenvalues --    2.25587   2.30800   2.31426   2.32244   2.35784
 Alpha virt. eigenvalues --    2.37525   2.39576   2.43268   2.47472   2.48749
 Alpha virt. eigenvalues --    2.50622   2.54517   2.57369   2.57456   2.60632
 Alpha virt. eigenvalues --    2.61961   2.64226   2.65114   2.66878   2.67363
 Alpha virt. eigenvalues --    2.70905   2.74846   2.76901   2.79774   2.82201
 Alpha virt. eigenvalues --    2.83333   2.84120   2.86926   2.87873   2.93064
 Alpha virt. eigenvalues --    2.94370   2.99247   3.05117   3.14217   3.16822
 Alpha virt. eigenvalues --    3.18893   3.24306   3.37465   3.40108   3.42355
 Alpha virt. eigenvalues --    3.43226   3.45887   3.50020   3.60053   3.92878
 Alpha virt. eigenvalues --    4.02080   4.04181   4.04419   4.14252   4.28766
 Alpha virt. eigenvalues --    4.35469   4.36344   4.41620   4.47362   4.53480
 Alpha virt. eigenvalues --    4.61108   4.76207
          Condensed to atoms (all electrons):
               1          2          3          4          5          6
     1  Cl  16.827301   0.266384  -0.076727   0.003698   0.003101   0.000597
     2  C    0.266384   5.073717   0.391943  -0.085021  -0.034293  -0.039663
     3  C   -0.076727   0.391943   4.776158   0.371862   0.445347  -0.048279
     4  C    0.003698  -0.085021   0.371862   5.031139  -0.080113   0.007665
     5  N    0.003101  -0.034293   0.445347  -0.080113   6.883164   0.415766
     6  C    0.000597  -0.039663  -0.048279   0.007665   0.415766   5.133173
     7  C    0.000023  -0.000174   0.007288  -0.000124  -0.072761   0.293878
     8  O   -0.000000  -0.000005  -0.000022   0.000000   0.001531  -0.083537
     9  C    0.000000   0.000000   0.000001  -0.000000  -0.000062   0.006818
    10  O   -0.000000  -0.000027   0.000467   0.000006  -0.001262  -0.069229
    11  C    0.003583  -0.053254  -0.024422   0.001076  -0.057740   0.338661
    12  N   -0.000100   0.005089   0.000787   0.000008   0.003755  -0.082019
    13  N   -0.073189   0.402433  -0.040513   0.004472  -0.041591  -0.049126
    14  H    0.000183   0.005558  -0.020105   0.366560   0.003626  -0.000047
    15  H    0.001601  -0.002554  -0.028165   0.374602   0.001616  -0.000162
    16  H    0.001601  -0.002556  -0.028168   0.374593   0.001618  -0.000161
    17  H   -0.000000   0.000000  -0.000000   0.000000   0.000001   0.000031
    18  H    0.000000   0.000000  -0.000000   0.000000   0.000002  -0.000058
    19  H    0.000000   0.000000  -0.000000   0.000000   0.000002  -0.000061
    20  H   -0.000040  -0.000056  -0.000031  -0.000001  -0.000074   0.006049
    21  H    0.000003  -0.000142  -0.000019  -0.000000  -0.000013  -0.007641
               7          8          9         10         11         12
     1  Cl   0.000023  -0.000000   0.000000  -0.000000   0.003583  -0.000100
     2  C   -0.000174  -0.000005   0.000000  -0.000027  -0.053254   0.005089
     3  C    0.007288  -0.000022   0.000001   0.000467  -0.024422   0.000787
     4  C   -0.000124   0.000000  -0.000000   0.000006   0.001076   0.000008
     5  N   -0.072761   0.001531  -0.000062  -0.001262  -0.057740   0.003755
     6  C    0.293878  -0.083537   0.006818  -0.069229   0.338661  -0.082019
     7  C    4.443173   0.231631  -0.017900   0.548569  -0.056769  -0.003455
     8  O    0.231631   8.295914   0.215754  -0.084138   0.004818  -0.020789
     9  C   -0.017900   0.215754   4.713949   0.006366  -0.000606   0.000503
    10  O    0.548569  -0.084138   0.006366   8.056340   0.003283  -0.000030
    11  C   -0.056769   0.004818  -0.000606   0.003283   4.624945   0.318910
    12  N   -0.003455  -0.020789   0.000503  -0.000030   0.318910   6.870223
    13  N    0.003639   0.000033   0.000001  -0.000023   0.455836  -0.100962
    14  H   -0.000035   0.000000  -0.000000   0.000005  -0.000011  -0.000000
    15  H    0.000003  -0.000000   0.000000  -0.000000   0.000010  -0.000000
    16  H    0.000003  -0.000000   0.000000  -0.000000   0.000010  -0.000000
    17  H    0.003559  -0.029626   0.387593   0.000425  -0.000033   0.000119
    18  H   -0.003823  -0.031470   0.386697   0.005056   0.000023  -0.000035
    19  H   -0.003829  -0.031450   0.386730   0.005057   0.000023  -0.000035
    20  H   -0.000271   0.000461  -0.000015   0.000001  -0.014832   0.331372
    21  H    0.001685   0.031310  -0.001130   0.000227  -0.017996   0.330081
              13         14         15         16         17         18
     1  Cl  -0.073189   0.000183   0.001601   0.001601  -0.000000   0.000000
     2  C    0.402433   0.005558  -0.002554  -0.002556   0.000000   0.000000
     3  C   -0.040513  -0.020105  -0.028165  -0.028168  -0.000000  -0.000000
     4  C    0.004472   0.366560   0.374602   0.374593   0.000000   0.000000
     5  N   -0.041591   0.003626   0.001616   0.001618   0.000001   0.000002
     6  C   -0.049126  -0.000047  -0.000162  -0.000161   0.000031  -0.000058
     7  C    0.003639  -0.000035   0.000003   0.000003   0.003559  -0.003823
     8  O    0.000033   0.000000  -0.000000  -0.000000  -0.029626  -0.031470
     9  C    0.000001  -0.000000   0.000000   0.000000   0.387593   0.386697
    10  O   -0.000023   0.000005  -0.000000  -0.000000   0.000425   0.005056
    11  C    0.455836  -0.000011   0.000010   0.000010  -0.000033   0.000023
    12  N   -0.100962  -0.000000  -0.000000  -0.000000   0.000119  -0.000035
    13  N    6.917285  -0.000086   0.000004   0.000004  -0.000000   0.000000
    14  H   -0.000086   0.555518  -0.025785  -0.025793   0.000000  -0.000000
    15  H    0.000004  -0.025785   0.580271  -0.031660  -0.000000   0.000000
    16  H    0.000004  -0.025793  -0.031660   0.580306  -0.000000  -0.000000
    17  H   -0.000000   0.000000  -0.000000  -0.000000   0.588623  -0.036025
    18  H    0.000000  -0.000000   0.000000  -0.000000  -0.036025   0.577558
    19  H    0.000000  -0.000000  -0.000000   0.000000  -0.036006  -0.036341
    20  H    0.004636   0.000000   0.000000   0.000000  -0.000004   0.000001
    21  H    0.004107   0.000000  -0.000000  -0.000000  -0.000474   0.000188
              19         20         21
     1  Cl   0.000000  -0.000040   0.000003
     2  C    0.000000  -0.000056  -0.000142
     3  C   -0.000000  -0.000031  -0.000019
     4  C    0.000000  -0.000001  -0.000000
     5  N    0.000002  -0.000074  -0.000013
     6  C   -0.000061   0.006049  -0.007641
     7  C   -0.003829  -0.000271   0.001685
     8  O   -0.031450   0.000461   0.031310
     9  C    0.386730  -0.000015  -0.001130
    10  O    0.005057   0.000001   0.000227
    11  C    0.000023  -0.014832  -0.017996
    12  N   -0.000035   0.331372   0.330081
    13  N    0.000000   0.004636   0.004107
    14  H   -0.000000   0.000000   0.000000
    15  H   -0.000000   0.000000  -0.000000
    16  H    0.000000   0.000000  -0.000000
    17  H   -0.036006  -0.000004  -0.000474
    18  H   -0.036341   0.000001   0.000188
    19  H    0.577428   0.000001   0.000189
    20  H    0.000001   0.410119  -0.020055
    21  H    0.000189  -0.020055   0.387696
 Mulliken charges:
               1
     1  Cl   0.041983
     2  C    0.072622
     3  C    0.272598
     4  C   -0.370422
     5  N   -0.471620
     6  C    0.177345
     7  C    0.625689
     8  O   -0.500414
     9  C   -0.084697
    10  O   -0.471093
    11  C    0.474486
    12  N   -0.653422
    13  N   -0.486960
    14  H    0.140413
    15  H    0.130219
    16  H    0.130205
    17  H    0.121819
    18  H    0.138229
    19  H    0.138293
    20  H    0.282742
    21  H    0.291985
 Sum of Mulliken charges =  -0.00000
 Mulliken charges with hydrogens summed into heavy atoms:
               1
     1  Cl   0.041983
     2  C    0.072622
     3  C    0.272598
     4  C    0.030416
     5  N   -0.471620
     6  C    0.177345
     7  C    0.625689
     8  O   -0.500414
     9  C    0.313644
    10  O   -0.471093
    11  C    0.474486
    12  N   -0.078696
    13  N   -0.486960
 APT charges:
               1
     1  Cl   0.225892
     2  C   -0.082715
     3  C    0.112410
     4  C   -1.235618
     5  N   -0.444196
     6  C   -0.123563
     7  C   -0.197837
     8  O   -0.249622
     9  C   -1.424056
    10  O    0.181451
    11  C   -0.100836
    12  N   -1.022471
    13  N   -0.227177
    14  H    0.438510
    15  H    0.500018
    16  H    0.499827
    17  H    0.765789
    18  H    0.525847
    19  H    0.525673
    20  H    0.758676
    21  H    0.574000
 Sum of APT charges =  -0.00000
 APT charges with hydrogens summed into heavy atoms:
               1
     1  Cl   0.225892
     2  C   -0.082715
     3  C    0.112410
     4  C    0.202737
     5  N   -0.444196
     6  C   -0.123563
     7  C   -0.197837
     8  O   -0.249622
     9  C    0.393253
    10  O    0.181451
    11  C   -0.100836
    12  N    0.310205
    13  N   -0.227177
 Electronic spatial extent (au):  <R**2>=           3267.3688
 Charge=             -0.0000 electrons
 Dipole moment (field-independent basis, Debye):
    X=             -2.1240    Y=             -2.8183    Z=              0.0073  Tot=              3.5291
 Quadrupole moment (field-independent basis, Debye-Ang):
   XX=            -67.3773   YY=            -82.0508   ZZ=            -80.6512
   XY=             13.4987   XZ=             -0.0224   YZ=              0.0228
 Traceless Quadrupole moment (field-independent basis, Debye-Ang):
   XX=              9.3158   YY=             -5.3577   ZZ=             -3.9581
   XY=             13.4987   XZ=             -0.0224   YZ=              0.0228
 Octapole moment (field-independent basis, Debye-Ang**2):
  XXX=            -86.1864  YYY=            -35.1334  ZZZ=             -0.0008  XYY=              3.6326
  XXY=            -12.9836  XXZ=              0.1009  XZZ=             -5.0166  YZZ=              2.5549
  YYZ=              0.0302  XYZ=             -0.0536
 Hexadecapole moment (field-independent basis, Debye-Ang**3):
 XXXX=          -2733.4811 YYYY=           -791.6250 ZZZZ=            -89.0230 XXXY=             64.1495
 XXXZ=             -0.4096 YYYX=             65.2750 YYYZ=              0.0982 ZZZX=              0.0244
 ZZZY=             -0.0298 XXYY=           -689.5850 XXZZ=           -535.0279 YYZZ=           -165.4641
 XXYZ=              0.1149 YYXZ=             -0.0934 ZZXY=             -7.7128
 N-N= 8.721020795403D+02 E-N=-4.204356692008D+03  KE= 1.039349684013D+03
  Exact polarizability:       0.000       0.000       0.000       0.000       0.000       0.000
 Approx polarizability:     259.856      -1.773     209.272       0.064      -0.030      81.273
 Calling FoFJK, ICntrl=    100127 FMM=F ISym2X=0 I1Cent= 0 IOpClX= 0 NMat=1 NMatS=1 NMatT=0.
 ***** Axes restored to original set *****
 -------------------------------------------------------------------
 Center     Atomic                   Forces (Hartrees/Bohr)
 Number     Number              X              Y              Z
 -------------------------------------------------------------------
      1       17          -0.003729341    0.003164377   -0.000129760
      2        6           0.047070376    0.022923299    0.005815306
      3        6           0.012450601   -0.033681036   -0.001106485
      4        6           0.004019906    0.006227401    0.000787276
      5        7          -0.005740169    0.027880163    0.001315200
      6        6          -0.010799355   -0.021132258   -0.002341773
      7        6           0.007500475   -0.044899471   -0.002466484
      8        8          -0.009371596    0.020977534    0.000590713
      9        6           0.008814553   -0.015167750   -0.000311750
     10        8          -0.006580896    0.036855357    0.001982739
     11        6           0.004301033    0.037337612    0.002868035
     12        7          -0.006974565   -0.026074399   -0.002372610
     13        7          -0.022144109   -0.021906375   -0.003472864
     14        1           0.005175862    0.004064766    0.000738081
     15        1          -0.003532510    0.000700682   -0.001341279
     16        1          -0.003733346    0.000562801    0.000765034
     17        1          -0.008126866    0.005540605   -0.000361145
     18        1          -0.001942700   -0.002043040   -0.001361834
     19        1          -0.002127390   -0.002217051    0.000740410
     20        1          -0.000976499   -0.002804998   -0.000271175
     21        1          -0.003553465    0.003691781   -0.000065636
 -------------------------------------------------------------------
 Cartesian Forces:  Max     0.047070376 RMS     0.014479459
 FormGI is forming the generalized inverse of G from B-inverse, IUseBI=4.

 GradGradGradGradGradGradGradGradGradGradGradGradGradGradGradGradGradGrad
 Berny optimization.
 Internal  Forces:  Max     0.037397320 RMS     0.008960523
 Search for a local minimum.
 Step number   1 out of a maximum of   99
 All quantities printed in internal units (Hartrees-Bohrs-Radians)
 Mixed Optimization -- RFO/linear search
 Second derivative matrix not updated -- analytic derivatives used.
 ITU=  0
     Eigenvalues ---   -0.00361   0.00031   0.00120   0.00305   0.01066
     Eigenvalues ---    0.01475   0.01820   0.01886   0.02104   0.02387
     Eigenvalues ---    0.02626   0.03578   0.04830   0.05795   0.05796
     Eigenvalues ---    0.06057   0.08578   0.08841   0.09918   0.12025
     Eigenvalues ---    0.12401   0.12929   0.13923   0.14736   0.16378
     Eigenvalues ---    0.17142   0.18247   0.18289   0.19330   0.19771
     Eigenvalues ---    0.20302   0.20357   0.21137   0.22264   0.23358
     Eigenvalues ---    0.25793   0.27961   0.30493   0.33519   0.34405
     Eigenvalues ---    0.34434   0.34557   0.34567   0.35087   0.35302
     Eigenvalues ---    0.35988   0.37991   0.40264   0.40812   0.44730
     Eigenvalues ---    0.46706   0.47279   0.48384   0.48757   0.54858
     Eigenvalues ---    0.66405   0.75750
 RFO step:  Lambda=-2.04179625D-02 EMin=-3.61115740D-03
 Linear search not attempted -- first point.
 Iteration  1 RMS(Cart)=  0.07136686 RMS(Int)=  0.03551433
 Iteration  2 RMS(Cart)=  0.03281965 RMS(Int)=  0.01476974
 Iteration  3 RMS(Cart)=  0.00316406 RMS(Int)=  0.01434824
 Iteration  4 RMS(Cart)=  0.00023080 RMS(Int)=  0.01434720
 Iteration  5 RMS(Cart)=  0.00002404 RMS(Int)=  0.01434719
 Iteration  6 RMS(Cart)=  0.00000253 RMS(Int)=  0.01434719
 Iteration  7 RMS(Cart)=  0.00000027 RMS(Int)=  0.01434719
 Variable       Old X    -DE/DX   Delta X   Delta X   Delta X     New X
                                 (Linear)    (Quad)   (Total)
    R1        3.26641   0.00440   0.00000   0.04866   0.04866   3.31507
    R2        2.64406   0.00614   0.00000   0.02711   0.02725   2.67131
    R3        2.56168  -0.03533   0.00000  -0.09865  -0.09865   2.46303
    R4        2.87597  -0.01010   0.00000  -0.03872  -0.03872   2.83725
    R5        2.56686  -0.02656   0.00000  -0.06343  -0.06327   2.50359
    R6        2.06288  -0.00125   0.00000  -0.00264  -0.00264   2.06024
    R7        2.06085   0.00301   0.00000   0.00769   0.00769   2.06854
    R8        2.06084   0.00302   0.00000   0.00776   0.00776   2.06860
    R9        2.57645  -0.02371   0.00000  -0.04694  -0.04693   2.52952
   R10        2.84322  -0.01090   0.00000  -0.02619  -0.02619   2.81704
   R11        2.66943   0.00542   0.00000   0.02146   0.02131   2.69074
   R12        2.56274  -0.00374   0.00000   0.02210   0.02210   2.58485
   R13        2.33255  -0.03740   0.00000  -0.05186  -0.05186   2.28068
   R14        2.68778  -0.00011   0.00000   0.02396   0.02396   2.71174
   R15        2.05952   0.00010   0.00000  -0.00078  -0.00078   2.05874
   R16        2.06245   0.00148   0.00000   0.00096   0.00096   2.06341
   R17        2.06225   0.00154   0.00000   0.00147   0.00147   2.06371
   R18        2.62392  -0.02705   0.00000  -0.07485  -0.07485   2.54907
   R19        2.56026  -0.01240   0.00000  -0.00396  -0.00411   2.55614
   R20        1.90376  -0.00222   0.00000  -0.00188  -0.00188   1.90188
   R21        1.91036  -0.00416   0.00000  -0.00862  -0.00862   1.90174
    A1        2.11420  -0.00443   0.00000  -0.03167  -0.03173   2.08247
    A2        2.06361  -0.01141   0.00000  -0.02983  -0.02989   2.03372
    A3        2.10538   0.01585   0.00000   0.06150   0.06161   2.16698
    A4        2.14257   0.00230   0.00000   0.01548   0.01533   2.15789
    A5        2.11173  -0.00937   0.00000  -0.06169  -0.06142   2.05031
    A6        2.02889   0.00706   0.00000   0.04621   0.04605   2.07495
    A7        1.95993  -0.00969   0.00000  -0.05787  -0.05772   1.90221
    A8        1.92536   0.00259   0.00000   0.01682   0.01682   1.94217
    A9        1.92533   0.00259   0.00000   0.01746   0.01747   1.94280
   A10        1.88173   0.00354   0.00000   0.02076   0.02089   1.90263
   A11        1.88166   0.00354   0.00000   0.02076   0.02091   1.90257
   A12        1.88759  -0.00233   0.00000  -0.01680  -0.01694   1.87065
   A13        2.07868   0.00010   0.00000   0.02917   0.02940   2.10808
   A14        1.99169  -0.00146   0.00000  -0.00004   0.00001   1.99171
   A15        2.08004   0.00650   0.00000   0.01810   0.01794   2.09798
   A16        2.21145  -0.00505   0.00000  -0.01806  -0.01800   2.19345
   A17        1.99962  -0.00954   0.00000  -0.03412  -0.03413   1.96549
   A18        2.15015   0.00785   0.00000   0.03698   0.03697   2.18712
   A19        2.13341   0.00169   0.00000  -0.00286  -0.00286   2.13054
   A20        2.10029  -0.02495   0.00000  -0.10670  -0.10670   1.99359
   A21        1.92285  -0.01342   0.00000  -0.07031  -0.07083   1.85202
   A22        1.93706  -0.00030   0.00000  -0.00962  -0.00996   1.92710
   A23        1.93709  -0.00031   0.00000  -0.00810  -0.00841   1.92867
   A24        1.88807   0.00656   0.00000   0.03990   0.03936   1.92743
   A25        1.88819   0.00655   0.00000   0.04068   0.04019   1.92838
   A26        1.88904   0.00154   0.00000   0.01135   0.01117   1.90020
   A27        2.16896  -0.00083   0.00000   0.01788   0.01773   2.18669
   A28        2.12389  -0.00591   0.00000  -0.04213  -0.04271   2.08119
   A29        1.99033   0.00674   0.00000   0.02424   0.02409   2.01442
   A30        2.08040  -0.00443   0.00000  -0.02498  -0.09095   1.98946
   A31        2.05592   0.00507   0.00000   0.03404  -0.03117   2.02475
   A32        2.14686  -0.00064   0.00000  -0.00995  -0.09522   2.05164
   A33        2.06665  -0.00718   0.00000  -0.00495  -0.00521   2.06144
    D1        0.00008  -0.00000   0.00000   0.01166   0.01195   0.01202
    D2        3.14156   0.00000   0.00000   0.02151   0.02157  -3.12005
    D3       -3.14150  -0.00001   0.00000   0.00601   0.00628  -3.13522
    D4       -0.00001  -0.00000   0.00000   0.01586   0.01591   0.01589
    D5        3.14155  -0.00000   0.00000  -0.00283  -0.00247   3.13908
    D6       -0.00006   0.00000   0.00000   0.00266   0.00305   0.00299
    D7        3.14143  -0.00000   0.00000   0.00302   0.00320  -3.13856
    D8        1.04194   0.00020   0.00000   0.00369   0.00397   1.04591
    D9       -1.04238  -0.00019   0.00000   0.00281   0.00286  -1.03952
   D10       -0.00006  -0.00000   0.00000  -0.00638  -0.00655  -0.00661
   D11       -2.09955   0.00020   0.00000  -0.00572  -0.00578  -2.10533
   D12        2.09931  -0.00019   0.00000  -0.00660  -0.00688   2.09243
   D13        0.00007  -0.00000   0.00000  -0.01212  -0.01199  -0.01192
   D14        3.14157   0.00000   0.00000  -0.00289  -0.00284   3.13872
   D15        3.14149   0.00001   0.00000  -0.01932  -0.01951   3.12199
   D16       -0.00005   0.00000   0.00000  -0.00899  -0.00903  -0.00909
   D17       -3.13761  -0.00002   0.00000   0.06865   0.06863  -3.06898
   D18        0.00397  -0.00002   0.00000   0.06087   0.06079   0.06476
   D19        0.00393  -0.00001   0.00000   0.05741   0.05749   0.06142
   D20       -3.13767  -0.00001   0.00000   0.04963   0.04965  -3.08802
   D21       -3.14136  -0.00001   0.00000   0.07560   0.07528  -3.06608
   D22       -0.00002  -0.00000   0.00000   0.02795   0.02819   0.02818
   D23        0.00029  -0.00002   0.00000   0.08736   0.08704   0.08733
   D24       -3.14156  -0.00001   0.00000   0.03971   0.03996  -3.10160
   D25        3.14139   0.00001   0.00000   0.00286   0.00293  -3.13886
   D26       -0.00020   0.00000   0.00000   0.01055   0.01048   0.01029
   D27       -3.14149   0.00001   0.00000  -0.00849  -0.00845   3.13324
   D28        1.05089   0.00076   0.00000  -0.00628  -0.00659   1.04430
   D29       -1.05053  -0.00077   0.00000  -0.00875  -0.00848  -1.05901
   D30       -3.14135   0.00000   0.00000   0.33457   0.30933  -2.83202
   D31       -0.00108  -0.00002   0.00000  -0.38896  -0.36481  -0.36589
   D32        0.00048   0.00000   0.00000   0.37897   0.35482   0.35531
   D33        3.14075  -0.00002   0.00000  -0.34455  -0.31932   2.82143
   D34        0.00008   0.00000   0.00000  -0.02429  -0.02440  -0.02432
   D35        3.14144   0.00000   0.00000  -0.06740  -0.06694   3.07449
         Item               Value     Threshold  Converged?
 Maximum Force            0.037397     0.000450     NO 
 RMS     Force            0.008961     0.000300     NO 
 Maximum Displacement     0.346773     0.001800     NO 
 RMS     Displacement     0.079542     0.001200     NO 
 Predicted change in Energy=-1.187503D-02
 GradGradGradGradGradGradGradGradGradGradGradGradGradGradGradGradGradGrad

                          Input orientation:                          
 ---------------------------------------------------------------------
 Center     Atomic      Atomic             Coordinates (Angstroms)
 Number     Number       Type             X           Y           Z
 ---------------------------------------------------------------------
      1         17           0       -4.100368    1.293761   -0.241015
      2          6           0       -2.401828    0.861291   -0.167846
      3          6           0       -2.031514   -0.501709   -0.225742
      4          6           0       -3.016873   -1.626150   -0.363323
      5          7           0       -0.740773   -0.788472   -0.142298
      6          6           0        0.170767    0.184350   -0.022044
      7          6           0        1.574328   -0.306089    0.086164
      8          8           0        2.470094    0.705588    0.298541
      9          6           0        3.833847    0.271876    0.404698
     10          8           0        1.917896   -1.460434    0.008579
     11          6           0       -0.236796    1.548346    0.006820
     12          7           0        0.595081    2.609648    0.041096
     13          7           0       -1.554913    1.845615   -0.055403
     14          1           0       -2.475366   -2.572235   -0.380577
     15          1           0       -3.600452   -1.532438   -1.284659
     16          1           0       -3.727093   -1.636968    0.469589
     17          1           0        4.426220    1.172594    0.561782
     18          1           0        4.145025   -0.234070   -0.511521
     19          1           0        3.952465   -0.415065    1.245329
     20          1           0        0.155162    3.464925    0.337529
     21          1           0        1.528693    2.428136    0.370002
 ---------------------------------------------------------------------
                    Distance matrix (angstroms):
                    1          2          3          4          5
     1  Cl   0.000000
     2  C    1.754259   0.000000
     3  C    2.739362   1.413596   0.000000
     4  C    3.116858   2.569797   1.501409   0.000000
     5  N    3.953772   2.341254   1.324842   2.435403   0.000000
     6  C    4.418296   2.664161   2.315645   3.681771   1.338563
     7  C    5.904975   4.151760   3.624589   4.798305   2.375833
     8  O    6.618764   4.896670   4.690087   5.998489   3.568784
     9  C    8.025768   6.289583   5.949651   7.150156   4.727652
    10  O    6.623246   4.907295   4.070860   4.951537   2.746419
    11  C    3.879874   2.278138   2.734561   4.235948   2.395192
    12  N    4.884505   3.475899   4.080533   5.581376   3.655866
    13  N    2.611194   1.303381   2.401269   3.779589   2.758403
    14  H    4.195955   3.440896   2.123218   1.090231   2.499480
    15  H    3.053934   2.900674   2.155289   1.094626   3.168002
    16  H    3.038662   2.898957   2.155757   1.094656   3.164247
    17  H    8.565154   6.873972   6.717575   8.005524   5.571294
    18  H    8.390110   6.646744   6.188936   7.297440   4.930995
    19  H    8.365251   6.633489   6.162756   7.254389   4.908302
    20  H    4.812297   3.684089   4.564319   6.039209   4.373136
    21  H    5.774641   4.265358   4.649083   6.134914   3.969823
                    6          7          8          9         10
     6  C    0.000000
     7  C    1.490711   0.000000
     8  O    2.379362   1.367842   0.000000
     9  C    3.688892   2.353919   1.434991   0.000000
    10  O    2.399731   1.206885   2.254030   2.613174   0.000000
    11  C    1.423877   2.593336   2.850017   4.284603   3.700738
    12  N    2.462945   3.076114   2.684659   4.010859   4.279774
    13  N    2.395597   3.800265   4.198287   5.632680   4.795253
    14  H    3.837881   4.664041   5.971842   6.965040   4.548438
    15  H    4.331703   5.491942   6.660841   7.834429   5.668316
    16  H    4.330383   5.479354   6.627364   7.798443   5.666533
    17  H    4.407533   3.247461   2.028255   1.089437   3.678391
    18  H    4.026088   2.640246   2.084359   1.091911   2.595106
    19  H    4.033208   2.647844   2.085592   1.092070   2.600350
    20  H    3.300259   4.037048   3.601995   4.871632   5.241622
    21  H    2.651837   2.749297   1.964310   3.156643   3.924676
                   11         12         13         14         15
    11  C    0.000000
    12  N    1.348910   0.000000
    13  N    1.352654   2.283754   0.000000
    14  H    4.705364   6.037993   4.524419   0.000000
    15  H    4.740604   6.042930   4.136006   1.778865   0.000000
    16  H    4.747900   6.074417   4.137918   1.778856   1.761917
    17  H    4.710933   4.124786   6.050440   7.908455   8.669141
    18  H    4.758786   4.581945   6.084606   7.022374   7.891509
    19  H    4.789447   4.676654   6.093750   6.972371   8.043377
    20  H    1.984005   1.006429   2.387659   6.624398   6.458310
    21  H    2.005713   1.006358   3.166848   6.449772   6.688212
                   16         17         18         19         20
    16  H    0.000000
    17  H    8.624305   0.000000
    18  H    8.056112   1.791578   0.000000
    19  H    7.814757   1.792300   1.776615   0.000000
    20  H    6.412383   4.852526   5.506583   5.504356   0.000000
    21  H    6.645169   3.163673   3.835312   3.837273   1.721213
                   21
    21  H    0.000000
 Stoichiometry    C7H8ClN3O2
 Framework group  C1[X(C7H8ClN3O2)]
 Deg. of freedom    57
 Full point group                 C1      NOp   1
 Largest Abelian subgroup         C1      NOp   1
 Largest concise Abelian subgroup C1      NOp   1
                         Standard orientation:                         
 ---------------------------------------------------------------------
 Center     Atomic      Atomic             Coordinates (Angstroms)
 Number     Number       Type             X           Y           Z
 ---------------------------------------------------------------------
      1         17           0        3.624691   -0.646674    0.046491
      2          6           0        1.902643   -0.315164    0.000955
      3          6           0        1.456044    1.025976   -0.011058
      4          6           0        2.379115    2.210073   -0.001903
      5          7           0        0.147741    1.234461   -0.020319
      6          6           0       -0.709708    0.206651   -0.031981
      7          6           0       -2.144628    0.610289   -0.014620
      8          8           0       -2.991443   -0.460988    0.064507
      9          6           0       -4.383146   -0.111529    0.079979
     10          8           0       -2.550351    1.746191   -0.055715
     11          6           0       -0.223650   -1.131625   -0.045779
     12          7           0       -0.989539   -2.237905   -0.141266
     13          7           0        1.110818   -1.350345   -0.013697
     14          1           0        1.784261    3.123673   -0.011319
     15          1           0        3.039631    2.205603   -0.874775
     16          1           0        3.017955    2.209701    0.887004
     17          1           0       -4.930406   -1.051882    0.135823
     18          1           0       -4.649678    0.431239   -0.829215
     19          1           0       -4.610628    0.515067    0.944991
     20          1           0       -0.523764   -3.083744    0.142475
     21          1           0       -1.955913   -2.129327    0.117752
 ---------------------------------------------------------------------
 Rotational constants (GHZ):           1.6039435           0.3996755           0.3214977
 Standard basis: 6-31G(d,p) (6D, 7F)
 There are   239 symmetry adapted cartesian basis functions of A   symmetry.
 There are   239 symmetry adapted basis functions of A   symmetry.
   239 basis functions,   444 primitive gaussians,   239 cartesian basis functions
    52 alpha electrons       52 beta electrons
       nuclear repulsion energy       880.7335183785 Hartrees.
 NAtoms=   21 NActive=   21 NUniq=   21 SFac= 1.00D+00 NAtFMM=   60 NAOKFM=F Big=F
 Integral buffers will be    131072 words long.
 Raffenetti 2 integral format.
 Two-electron integral symmetry is turned on.
 Nuclear repulsion after empirical dispersion term =      880.6927673597 Hartrees.
 One-electron integrals computed using PRISM.
 NBasis=   239 RedAO= T EigKep=  8.86D-04  NBF=   239
 NBsUse=   239 1.00D-06 EigRej= -1.00D+00 NBFU=   239
 Initial guess from the checkpoint file:  "pyrz2_conf-2.chk"
 B after Tr=     0.000000    0.000000   -0.000000
         Rot=    0.999998    0.000537   -0.000059   -0.001805 Ang=   0.22 deg.
 ExpMin= 1.43D-01 ExpMax= 2.52D+04 ExpMxC= 3.78D+03 IAcc=3 IRadAn=         5 AccDes= 0.00D+00
 Harris functional with IExCor=  402 and IRadAn=       5 diagonalized for initial guess.
 HarFok:  IExCor=  402 AccDes= 0.00D+00 IRadAn=         5 IDoV= 1 UseB2=F ITyADJ=14
 ICtDFT=  3500011 ScaDFX=  1.000000  1.000000  1.000000  1.000000
 FoFCou: FMM=F IPFlag=           0 FMFlag=      100000 FMFlg1=           0
         NFxFlg=           0 DoJE=T BraDBF=F KetDBF=T FulRan=T
         wScrn=  0.000000 ICntrl=       500 IOpCl=  0 I1Cent=   200000004 NGrid=           0
         NMat0=    1 NMatS0=      1 NMatT0=    0 NMatD0=    1 NMtDS0=    0 NMtDT0=    0
 Petite list used in FoFCou.
 Requested convergence on RMS density matrix=1.00D-08 within 128 cycles.
 Requested convergence on MAX density matrix=1.00D-06.
 Requested convergence on             energy=1.00D-06.
 No special actions if energy rises.
 Integral accuracy reduced to 1.0D-05 until final iterations.
 Initial convergence to 1.0D-05 achieved.  Increase integral accuracy.
 SCF Done:  E(RB3LYP) =  -1046.53073329     A.U. after   14 cycles
            NFock= 14  Conv=0.92D-08     -V/T= 2.0064
 Calling FoFJK, ICntrl=      2127 FMM=F ISym2X=0 I1Cent= 0 IOpClX= 0 NMat=1 NMatS=1 NMatT=0.
 ***** Axes restored to original set *****
 -------------------------------------------------------------------
 Center     Atomic                   Forces (Hartrees/Bohr)
 Number     Number              X              Y              Z
 -------------------------------------------------------------------
      1       17          -0.002304944    0.000368791   -0.000001675
      2        6          -0.001490659   -0.003874390   -0.000239377
      3        6          -0.002313607   -0.001916908   -0.000322293
      4        6          -0.000139329    0.000049933   -0.000087104
      5        7           0.001277823   -0.000770772    0.000218555
      6        6          -0.000456914    0.000960877   -0.000043012
      7        6          -0.000622150    0.001650141    0.000107198
      8        8          -0.000726221    0.000201431    0.000114269
      9        6           0.002743326   -0.000120573    0.000312791
     10        8           0.000084089   -0.002456403   -0.000383064
     11        6          -0.007121270   -0.009245390   -0.002576199
     12        7           0.005979115    0.006262176    0.004902588
     13        7           0.003680198    0.003471515    0.000585074
     14        1           0.000590832    0.000270736    0.000050871
     15        1          -0.000417248    0.000115274    0.000068473
     16        1          -0.000381255    0.000132728   -0.000107267
     17        1          -0.000625315    0.000635314    0.000008449
     18        1          -0.000203727   -0.000213313    0.000090172
     19        1          -0.000162618   -0.000156720   -0.000157857
     20        1          -0.001245706    0.004098620   -0.001407447
     21        1           0.003855579    0.000536933   -0.001133144
 -------------------------------------------------------------------
 Cartesian Forces:  Max     0.009245390 RMS     0.002387559

 GradGradGradGradGradGradGradGradGradGradGradGradGradGradGradGradGradGrad
 Berny optimization.
 Using GEDIIS/GDIIS optimizer.
 FormGI is forming the generalized inverse of G from B-inverse, IUseBI=4.
 Internal  Forces:  Max     0.013931409 RMS     0.001910221
 Search for a local minimum.
 Step number   2 out of a maximum of   99
 All quantities printed in internal units (Hartrees-Bohrs-Radians)
 Mixed Optimization -- RFO/linear search
 Update second derivatives using D2CorX and points    1    2
 DE= -9.49D-03 DEPred=-1.19D-02 R= 7.99D-01
 TightC=F SS=  1.41D+00  RLast= 7.66D-01 DXNew= 5.0454D-01 2.2978D+00
 Trust test= 7.99D-01 RLast= 7.66D-01 DXMaxT set to 5.05D-01
 ITU=  1  0
 Use linear search instead of GDIIS.
     Eigenvalues ---   -0.00511   0.00031   0.00120   0.00304   0.01060
     Eigenvalues ---    0.01475   0.01819   0.01884   0.02104   0.02385
     Eigenvalues ---    0.02622   0.03571   0.04828   0.05794   0.05794
     Eigenvalues ---    0.06055   0.08574   0.08836   0.09710   0.11964
     Eigenvalues ---    0.12201   0.12790   0.13819   0.14727   0.16195
     Eigenvalues ---    0.16998   0.18098   0.18264   0.19013   0.19825
     Eigenvalues ---    0.19878   0.20476   0.21126   0.22150   0.23376
     Eigenvalues ---    0.25773   0.27966   0.30662   0.33561   0.34413
     Eigenvalues ---    0.34434   0.34557   0.34659   0.35091   0.35315
     Eigenvalues ---    0.36740   0.37978   0.40072   0.41088   0.44509
     Eigenvalues ---    0.46467   0.47381   0.48102   0.48882   0.56313
     Eigenvalues ---    0.66199   0.74733
 RFO step:  Lambda=-6.72410849D-03 EMin=-5.10751429D-03
 Quartic linear search produced a step of -0.13826.
 Iteration  1 RMS(Cart)=  0.05067450 RMS(Int)=  0.06358969
 Iteration  2 RMS(Cart)=  0.03979200 RMS(Int)=  0.03135509
 Iteration  3 RMS(Cart)=  0.01026492 RMS(Int)=  0.02971946
 Iteration  4 RMS(Cart)=  0.00133908 RMS(Int)=  0.02969250
 Iteration  5 RMS(Cart)=  0.00021209 RMS(Int)=  0.02969186
 Iteration  6 RMS(Cart)=  0.00003261 RMS(Int)=  0.02969185
 Iteration  7 RMS(Cart)=  0.00000506 RMS(Int)=  0.02969185
 Iteration  8 RMS(Cart)=  0.00000079 RMS(Int)=  0.02969185
 Variable       Old X    -DE/DX   Delta X   Delta X   Delta X     New X
                                 (Linear)    (Quad)   (Total)
    R1        3.31507   0.00232  -0.00673   0.03514   0.02841   3.34348
    R2        2.67131   0.00047  -0.00377   0.01376   0.00995   2.68126
    R3        2.46303   0.00586   0.01364  -0.04109  -0.02746   2.43557
    R4        2.83725  -0.00019   0.00535  -0.02407  -0.01872   2.81854
    R5        2.50359   0.00204   0.00875  -0.02923  -0.02051   2.48308
    R6        2.06024   0.00006   0.00036  -0.00145  -0.00109   2.05915
    R7        2.06854   0.00017  -0.00106   0.00496   0.00389   2.07244
    R8        2.06860   0.00016  -0.00107   0.00490   0.00382   2.07242
    R9        2.52952   0.00177   0.00649  -0.02685  -0.02035   2.50916
   R10        2.81704   0.00062   0.00362  -0.01006  -0.00644   2.81060
   R11        2.69074   0.00071  -0.00295   0.01199   0.00909   2.69982
   R12        2.58485   0.00098  -0.00306   0.01027   0.00721   2.59206
   R13        2.28068   0.00240   0.00717  -0.02738  -0.02021   2.26047
   R14        2.71174   0.00164  -0.00331   0.01884   0.01553   2.72727
   R15        2.05874   0.00019   0.00011  -0.00027  -0.00016   2.05858
   R16        2.06341  -0.00003  -0.00013   0.00070   0.00057   2.06398
   R17        2.06371  -0.00004  -0.00020   0.00035   0.00015   2.06386
   R18        2.54907   0.01393   0.01035  -0.00698   0.00337   2.55244
   R19        2.55614   0.00037   0.00057  -0.00829  -0.00769   2.54845
   R20        1.90188   0.00361   0.00026   0.00652   0.00678   1.90866
   R21        1.90174   0.00311   0.00119   0.00075   0.00195   1.90369
    A1        2.08247  -0.00024   0.00439  -0.01780  -0.01341   2.06906
    A2        2.03372   0.00044   0.00413  -0.01821  -0.01408   2.01964
    A3        2.16698  -0.00020  -0.00852   0.03604   0.02750   2.19448
    A4        2.15789   0.00025  -0.00212   0.01057   0.00846   2.16636
    A5        2.05031  -0.00122   0.00849  -0.03823  -0.02980   2.02051
    A6        2.07495   0.00097  -0.00637   0.02773   0.02138   2.09632
    A7        1.90221  -0.00092   0.00798  -0.03844  -0.03044   1.87177
    A8        1.94217   0.00027  -0.00233   0.01097   0.00865   1.95083
    A9        1.94280   0.00024  -0.00241   0.01035   0.00794   1.95074
   A10        1.90263   0.00040  -0.00289   0.01561   0.01274   1.91537
   A11        1.90257   0.00041  -0.00289   0.01553   0.01265   1.91522
   A12        1.87065  -0.00036   0.00234  -0.01276  -0.01043   1.86022
   A13        2.10808   0.00089  -0.00406   0.01822   0.01416   2.12224
   A14        1.99171  -0.00078  -0.00000  -0.00317  -0.00324   1.98847
   A15        2.09798   0.00097  -0.00248   0.01204   0.00961   2.10759
   A16        2.19345  -0.00019   0.00249  -0.00876  -0.00633   2.18712
   A17        1.96549  -0.00062   0.00472  -0.02124  -0.01652   1.94897
   A18        2.18712  -0.00043  -0.00511   0.01794   0.01282   2.19994
   A19        2.13054   0.00104   0.00040   0.00334   0.00373   2.13428
   A20        1.99359   0.00307   0.01475  -0.04822  -0.03347   1.96012
   A21        1.85202  -0.00121   0.00979  -0.04932  -0.03963   1.81239
   A22        1.92710   0.00002   0.00138  -0.00500  -0.00368   1.92341
   A23        1.92867   0.00002   0.00116  -0.00798  -0.00690   1.92177
   A24        1.92743   0.00061  -0.00544   0.02832   0.02280   1.95023
   A25        1.92838   0.00058  -0.00556   0.02618   0.02049   1.94887
   A26        1.90020  -0.00002  -0.00154   0.00712   0.00553   1.90574
   A27        2.18669   0.00093  -0.00245   0.01155   0.00863   2.19532
   A28        2.08119  -0.00108   0.00590  -0.02310  -0.01750   2.06369
   A29        2.01442   0.00015  -0.00333   0.01350   0.00970   2.02413
   A30        1.98946   0.00151   0.01257   0.20201   0.05665   2.04611
   A31        2.02475   0.00251   0.00431   0.24195   0.08885   2.11360
   A32        2.05164  -0.00061   0.01317   0.18663   0.03529   2.08692
   A33        2.06144   0.00064   0.00072  -0.00440  -0.00359   2.05784
    D1        0.01202   0.00011  -0.00165  -0.00390  -0.00572   0.00630
    D2       -3.12005   0.00013  -0.00298  -0.01233  -0.01534  -3.13539
    D3       -3.13522   0.00009  -0.00087   0.00045  -0.00055  -3.13577
    D4        0.01589   0.00011  -0.00220  -0.00798  -0.01017   0.00573
    D5        3.13908  -0.00009   0.00034  -0.00266  -0.00253   3.13655
    D6        0.00299  -0.00007  -0.00042  -0.00690  -0.00757  -0.00458
    D7       -3.13856   0.00001  -0.00044  -0.00496  -0.00551   3.13912
    D8        1.04591  -0.00005  -0.00055  -0.00616  -0.00680   1.03911
    D9       -1.03952   0.00007  -0.00040  -0.00427  -0.00477  -1.04429
   D10       -0.00661  -0.00002   0.00091   0.00324   0.00424  -0.00237
   D11       -2.10533  -0.00008   0.00080   0.00204   0.00295  -2.10238
   D12        2.09243   0.00003   0.00095   0.00393   0.00498   2.09741
   D13       -0.01192  -0.00004   0.00166   0.00845   0.01006  -0.00186
   D14        3.13872  -0.00002   0.00039   0.00051   0.00092   3.13964
   D15        3.12199  -0.00012   0.00270   0.01648   0.01927   3.14125
   D16       -0.00909  -0.00009   0.00125   0.00537   0.00664  -0.00245
   D17       -3.06898   0.00025  -0.00949  -0.03762  -0.04707  -3.11605
   D18        0.06476   0.00014  -0.00840  -0.03079  -0.03913   0.02563
   D19        0.06142   0.00022  -0.00795  -0.02565  -0.03366   0.02776
   D20       -3.08802   0.00012  -0.00686  -0.01882  -0.02572  -3.11374
   D21       -3.06608   0.00002  -0.01041  -0.07292  -0.08315   3.13396
   D22        0.02818   0.00012  -0.00390  -0.02046  -0.02455   0.00363
   D23        0.08733   0.00006  -0.01204  -0.08546  -0.09733  -0.00999
   D24       -3.10160   0.00016  -0.00553  -0.03301  -0.03872  -3.14032
   D25       -3.13886  -0.00011  -0.00041  -0.00601  -0.00645   3.13787
   D26        0.01029  -0.00000  -0.00145  -0.01267  -0.01410  -0.00381
   D27        3.13324  -0.00000   0.00117   0.00383   0.00495   3.13818
   D28        1.04430  -0.00002   0.00091   0.00188   0.00276   1.04706
   D29       -1.05901  -0.00002   0.00117   0.00146   0.00272  -1.05629
   D30       -2.83202  -0.00230  -0.04277  -0.44421  -0.46615   2.98502
   D31       -0.36589   0.00199   0.05044   0.46746   0.49776   0.13187
   D32        0.35531  -0.00237  -0.04906  -0.49400  -0.52292  -0.16761
   D33        2.82143   0.00191   0.04415   0.41767   0.44099  -3.02076
   D34       -0.02432  -0.00004   0.00337   0.02076   0.02418  -0.00014
   D35        3.07449   0.00008   0.00926   0.06823   0.07712  -3.13157
         Item               Value     Threshold  Converged?
 Maximum Force            0.013931     0.000450     NO 
 RMS     Force            0.001910     0.000300     NO 
 Maximum Displacement     0.411182     0.001800     NO 
 RMS     Displacement     0.076855     0.001200     NO 
 Predicted change in Energy=-6.857861D-03
 GradGradGradGradGradGradGradGradGradGradGradGradGradGradGradGradGradGrad

                          Input orientation:                          
 ---------------------------------------------------------------------
 Center     Atomic      Atomic             Coordinates (Angstroms)
 Number     Number       Type             X           Y           Z
 ---------------------------------------------------------------------
      1         17           0       -4.087707    1.288201   -0.243313
      2          6           0       -2.376926    0.849359   -0.138238
      3          6           0       -2.022732   -0.522364   -0.216285
      4          6           0       -3.004664   -1.631444   -0.390465
      5          7           0       -0.738887   -0.786883   -0.124997
      6          6           0        0.160888    0.177456    0.028255
      7          6           0        1.562453   -0.313013    0.112718
      8          8           0        2.448715    0.716512    0.302610
      9          6           0        3.813325    0.255227    0.391514
     10          8           0        1.915462   -1.452955    0.030351
     11          6           0       -0.240347    1.546937    0.096620
     12          7           0        0.584261    2.604350    0.258684
     13          7           0       -1.555338    1.831909    0.005702
     14          1           0       -2.439025   -2.562393   -0.417541
     15          1           0       -3.582192   -1.521816   -1.316296
     16          1           0       -3.731668   -1.663600    0.429985
     17          1           0        4.388497    1.169075    0.535540
     18          1           0        4.097645   -0.261041   -0.528029
     19          1           0        3.924365   -0.428323    1.236035
     20          1           0        0.182394    3.524675    0.150779
     21          1           0        1.585081    2.492632    0.232073
 ---------------------------------------------------------------------
                    Distance matrix (angstroms):
                    1          2          3          4          5
     1  Cl   0.000000
     2  C    1.769292   0.000000
     3  C    2.746452   1.418862   0.000000
     4  C    3.117525   2.571393   1.491505   0.000000
     5  N    3.941392   2.315305   1.313987   2.432592   0.000000
     6  C    4.399780   2.630528   2.306024   3.669901   1.327792
     7  C    5.883447   4.114948   3.606331   4.780169   2.361615
     8  O    6.584047   4.847557   4.668823   5.977675   3.550191
     9  C    7.993519   6.241221   5.918921   7.117303   4.698448
    10  O    6.605064   4.873774   4.054158   4.941314   2.741050
    11  C    3.871005   2.259811   2.748966   4.240378   2.396742
    12  N    4.879707   3.464992   4.098579   5.589610   3.660382
    13  N    2.602022   1.288848   2.410464   3.775223   2.746223
    14  H    4.192324   3.423729   2.091774   1.089654   2.475578
    15  H    3.050088   2.909117   2.154262   1.096686   3.169180
    16  H    3.048479   2.910870   2.154192   1.096679   3.167550
    17  H    8.512746   6.806405   6.673086   7.959852   5.527400
    18  H    8.335539   6.580654   6.133881   7.234620   4.881700
    19  H    8.326357   6.574752   6.122584   7.218341   4.871026
    20  H    4.836413   3.713619   4.623402   6.085709   4.417504
    21  H    5.818692   4.305227   4.723086   6.201719   4.035288
                    6          7          8          9         10
     6  C    0.000000
     7  C    1.487305   0.000000
     8  O    2.366432   1.371657   0.000000
     9  C    3.671280   2.338172   1.443208   0.000000
    10  O    2.395156   1.196189   2.250572   2.578800   0.000000
    11  C    1.428685   2.590320   2.821895   4.264708   3.694760
    12  N    2.474299   3.080450   2.653686   3.995357   4.276208
    13  N    2.383937   3.785863   4.167098   5.608683   4.778848
    14  H    3.803295   4.620899   5.929573   6.905463   4.515862
    15  H    4.325043   5.474546   6.633462   7.795394   5.660601
    16  H    4.324681   5.472884   6.624069   7.785261   5.665170
    17  H    4.371879   3.218989   2.005449   1.089351   3.639528
    18  H    3.999973   2.615427   2.089149   1.092214   2.548406
    19  H    3.998682   2.617970   2.087935   1.092147   2.557193
    20  H    3.349529   4.078462   3.611791   4.891922   5.272079
    21  H    2.725785   2.808273   1.976218   3.161720   3.964530
                   11         12         13         14         15
    11  C    0.000000
    12  N    1.350691   0.000000
    13  N    1.348584   2.288788   0.000000
    14  H    4.688831   6.024348   4.502213   0.000000
    15  H    4.752001   6.071668   4.135612   1.788126   0.000000
    16  H    4.754787   6.072231   4.139445   1.788030   1.758392
    17  H    4.664936   4.075399   6.004103   7.838831   8.614063
    18  H    4.741007   4.601440   6.051572   6.930836   7.822456
    19  H    4.748130   4.616126   6.053884   6.912401   8.003657
    20  H    2.023139   1.010018   2.430271   6.651858   6.464634
    21  H    2.060309   1.007388   3.217147   6.493743   6.724133
                   16         17         18         19         20
    16  H    0.000000
    17  H    8.600714   0.000000
    18  H    8.011436   1.805826   0.000000
    19  H    7.796824   1.804937   1.780430   0.000000
    20  H    6.505078   4.836134   5.488316   5.550344   0.000000
    21  H    6.751389   3.114970   3.804398   3.874554   1.743345
                   21
    21  H    0.000000
 Stoichiometry    C7H8ClN3O2
 Framework group  C1[X(C7H8ClN3O2)]
 Deg. of freedom    57
 Full point group                 C1      NOp   1
 Largest Abelian subgroup         C1      NOp   1
 Largest concise Abelian subgroup C1      NOp   1
                         Standard orientation:                         
 ---------------------------------------------------------------------
 Center     Atomic      Atomic             Coordinates (Angstroms)
 Number     Number       Type             X           Y           Z
 ---------------------------------------------------------------------
      1         17           0        3.613168   -0.649467    0.013225
      2          6           0        1.876495   -0.311512    0.001096
      3          6           0        1.448975    1.041407   -0.001324
      4          6           0        2.374207    2.211251   -0.002040
      5          7           0        0.148522    1.229503   -0.003096
      6          6           0       -0.701861    0.209758   -0.004727
      7          6           0       -2.132302    0.617082   -0.006131
      8          8           0       -2.968418   -0.469839    0.024764
      9          6           0       -4.360732   -0.089978    0.028761
     10          8           0       -2.544477    1.739747   -0.030690
     11          6           0       -0.226873   -1.137653   -0.007611
     12          7           0       -0.997676   -2.246791   -0.001089
     13          7           0        1.105750   -1.344494   -0.004317
     14          1           0        1.758356    3.110169   -0.006575
     15          1           0        3.032483    2.208757   -0.879186
     16          1           0        3.026996    2.214051    0.879189
     17          1           0       -4.890459   -1.041611    0.050427
     18          1           0       -4.597567    0.484501   -0.869467
     19          1           0       -4.582378    0.514962    0.910638
     20          1           0       -0.534104   -3.132659   -0.144185
     21          1           0       -1.997656   -2.186152   -0.106890
 ---------------------------------------------------------------------
 Rotational constants (GHZ):           1.6005618           0.4034851           0.3235831
 Standard basis: 6-31G(d,p) (6D, 7F)
 There are   239 symmetry adapted cartesian basis functions of A   symmetry.
 There are   239 symmetry adapted basis functions of A   symmetry.
   239 basis functions,   444 primitive gaussians,   239 cartesian basis functions
    52 alpha electrons       52 beta electrons
       nuclear repulsion energy       882.7109052441 Hartrees.
[...]
                 (A) (A) (A) (A) (A) (A) (A) (A) (A) (A) (A) (A)
                 (A) (A) (A) (A) (A) (A) (A) (A) (A) (A) (A) (A)
                 (A) (A) (A) (A) (A) (A) (A) (A) (A) (A) (A) (A)
                 (A) (A) (A) (A) (A) (A) (A) (A) (A) (A) (A) (A)
                 (A) (A) (A) (A) (A) (A) (A) (A) (A) (A) (A) (A)
                 (A) (A) (A) (A) (A) (A) (A) (A) (A) (A) (A) (A)
                 (A) (A) (A) (A) (A) (A) (A) (A) (A) (A) (A) (A)
                 (A) (A) (A) (A) (A) (A) (A) (A) (A) (A) (A) (A)
                 (A) (A) (A) (A) (A) (A) (A) (A) (A) (A) (A) (A)
                 (A) (A) (A) (A) (A) (A) (A) (A) (A) (A) (A) (A)
                 (A) (A) (A) (A) (A) (A) (A) (A) (A) (A) (A) (A)
                 (A) (A) (A) (A) (A) (A) (A) (A) (A) (A) (A) (A)
                 (A) (A) (A) (A) (A) (A) (A) (A) (A) (A) (A) (A)
                 (A) (A) (A) (A) (A) (A) (A) (A) (A) (A) (A) (A)
                 (A) (A) (A) (A) (A) (A) (A) (A) (A) (A) (A) (A)
                 (A) (A) (A) (A) (A) (A) (A) (A) (A) (A) (A) (A)
                 (A) (A) (A) (A) (A) (A) (A) (A) (A) (A) (A) (A)
                 (A) (A) (A) (A) (A) (A) (A) (A) (A) (A) (A) (A)
                 (A) (A) (A) (A) (A) (A) (A) (A) (A) (A) (A) (A)
                 (A) (A) (A) (A) (A) (A) (A) (A) (A) (A) (A) (A)
                 (A) (A) (A) (A) (A) (A) (A) (A) (A) (A) (A) (A)
                 (A) (A) (A) (A) (A) (A) (A) (A) (A) (A) (A) (A)
                 (A) (A) (A) (A) (A) (A) (A) (A) (A) (A) (A) (A)
                 (A) (A) (A) (A) (A) (A) (A) (A) (A) (A) (A) (A)
                 (A) (A) (A) (A) (A) (A) (A) (A) (A) (A) (A) (A)
                 (A) (A) (A) (A) (A) (A) (A) (A) (A) (A) (A) (A)
                 (A) (A) (A) (A) (A) (A) (A) (A) (A) (A) (A) (A)
                 (A) (A) (A) (A) (A) (A) (A) (A) (A) (A) (A) (A)
                 (A) (A) (A) (A) (A) (A) (A) (A) (A) (A) (A) (A)
                 (A) (A) (A) (A) (A) (A) (A) (A) (A) (A) (A) (A)
                 (A) (A) (A) (A) (A) (A) (A) (A) (A) (A) (A) (A)
                 (A) (A) (A) (A) (A) (A) (A) (A) (A)
 The electronic state is 1-A.
 Alpha  occ. eigenvalues -- -102.65579 -19.68873 -19.62250 -14.77799 -14.77768
 Alpha  occ. eigenvalues --  -14.77741 -10.68472 -10.65644 -10.65268 -10.60397
 Alpha  occ. eigenvalues --  -10.60147 -10.59833 -10.53877  -9.81837  -7.54024
 Alpha  occ. eigenvalues --   -7.53535  -7.53490  -1.24296  -1.14859  -1.12783
 Alpha  occ. eigenvalues --   -1.05631  -1.02604  -0.95444  -0.89196  -0.84256
 Alpha  occ. eigenvalues --   -0.80234  -0.75615  -0.73436  -0.67977  -0.65420
 Alpha  occ. eigenvalues --   -0.62599  -0.60725  -0.58157  -0.57182  -0.56112
 Alpha  occ. eigenvalues --   -0.54440  -0.52649  -0.51114  -0.49035  -0.47895
 Alpha  occ. eigenvalues --   -0.47406  -0.46231  -0.44803  -0.43731  -0.41888
 Alpha  occ. eigenvalues --   -0.40894  -0.39023  -0.38749  -0.36556  -0.36287
 Alpha  occ. eigenvalues --   -0.33560  -0.28333
 Alpha virt. eigenvalues --   -0.04349   0.00594   0.05813   0.06871   0.07310
 Alpha virt. eigenvalues --    0.08030   0.08322   0.10452   0.10989   0.12570
 Alpha virt. eigenvalues --    0.14712   0.15042   0.15543   0.16276   0.17122
 Alpha virt. eigenvalues --    0.18729   0.20048   0.20459   0.21203   0.21525
 Alpha virt. eigenvalues --    0.23470   0.23560   0.25064   0.25875   0.26208
 Alpha virt. eigenvalues --    0.26344   0.27994   0.28147   0.28886   0.30365
 Alpha virt. eigenvalues --    0.31615   0.32306   0.33419   0.33526   0.34278
 Alpha virt. eigenvalues --    0.35054   0.35630   0.36208   0.37718   0.39198
 Alpha virt. eigenvalues --    0.40265   0.40463   0.40560   0.40836   0.42002
 Alpha virt. eigenvalues --    0.42839   0.44413   0.44574   0.45955   0.46083
 Alpha virt. eigenvalues --    0.47336   0.47615   0.48989   0.49782   0.50571
 Alpha virt. eigenvalues --    0.50822   0.51160   0.52084   0.52599   0.53483
 Alpha virt. eigenvalues --    0.53811   0.54289   0.55435   0.56603   0.58654
 Alpha virt. eigenvalues --    0.59287   0.60399   0.60731   0.60914   0.62638
 Alpha virt. eigenvalues --    0.63068   0.63331   0.65765   0.66003   0.66980
 Alpha virt. eigenvalues --    0.68427   0.69375   0.69608   0.71607   0.72072
 Alpha virt. eigenvalues --    0.72794   0.73498   0.74424   0.76921   0.77488
 Alpha virt. eigenvalues --    0.77737   0.80654   0.80964   0.82376   0.83836
 Alpha virt. eigenvalues --    0.84668   0.85566   0.87507   0.89921   0.91773
 Alpha virt. eigenvalues --    0.91927   0.92406   0.94471   0.95846   0.96264
 Alpha virt. eigenvalues --    0.97805   0.99807   1.02962   1.03366   1.04991
 Alpha virt. eigenvalues --    1.05950   1.09913   1.10855   1.11970   1.13579
 Alpha virt. eigenvalues --    1.14066   1.14593   1.21461   1.23650   1.25053
 Alpha virt. eigenvalues --    1.26329   1.27383   1.29401   1.32595   1.34253
 Alpha virt. eigenvalues --    1.36352   1.37392   1.38340   1.42674   1.46438
 Alpha virt. eigenvalues --    1.46606   1.48572   1.48788   1.49794   1.50290
 Alpha virt. eigenvalues --    1.51263   1.51598   1.53584   1.54061   1.55838
 Alpha virt. eigenvalues --    1.56400   1.56442   1.57138   1.57634   1.58928
 Alpha virt. eigenvalues --    1.60851   1.61016   1.61568   1.62636   1.64300
 Alpha virt. eigenvalues --    1.64825   1.66631   1.70384   1.71921   1.72243
 Alpha virt. eigenvalues --    1.72487   1.74726   1.75008   1.77575   1.78639
 Alpha virt. eigenvalues --    1.80079   1.80778   1.83262   1.83386   1.84038
 Alpha virt. eigenvalues --    1.84438   1.87311   1.87631   1.88361   1.88861
 Alpha virt. eigenvalues --    1.90748   1.92007   1.94801   1.95394   1.97038
 Alpha virt. eigenvalues --    1.98554   2.01066   2.01909   2.04759   2.05012
 Alpha virt. eigenvalues --    2.05125   2.07247   2.07548   2.08971   2.09831
 Alpha virt. eigenvalues --    2.11914   2.12776   2.13285   2.14065   2.16064
 Alpha virt. eigenvalues --    2.16254   2.17830   2.19848   2.21267   2.21962
 Alpha virt. eigenvalues --    2.23371   2.25349   2.25549   2.27773   2.28445
 Alpha virt. eigenvalues --    2.30389   2.31618   2.33334   2.34274   2.34672
 Alpha virt. eigenvalues --    2.34962   2.36214   2.37649   2.38016   2.40107
 Alpha virt. eigenvalues --    2.40157   2.40719   2.41478   2.42045   2.46585
 Alpha virt. eigenvalues --    2.51547   2.52662   2.54534   2.55335   2.55884
 Alpha virt. eigenvalues --    2.56418   2.59241   2.61688   2.63739   2.63965
 Alpha virt. eigenvalues --    2.66939   2.67044   2.69197   2.72442   2.73664
 Alpha virt. eigenvalues --    2.77782   2.78018   2.79326   2.81075   2.83427
 Alpha virt. eigenvalues --    2.84344   2.85917   2.87073   2.87863   2.89397
 Alpha virt. eigenvalues --    2.92324   2.95102   2.96238   2.99358   3.00086
 Alpha virt. eigenvalues --    3.01448   3.03765   3.03940   3.04662   3.05045
 Alpha virt. eigenvalues --    3.06729   3.08126   3.09279   3.11578   3.12108
 Alpha virt. eigenvalues --    3.12512   3.14692   3.16107   3.16889   3.17691
 Alpha virt. eigenvalues --    3.18085   3.18672   3.20868   3.21568   3.22799
 Alpha virt. eigenvalues --    3.24029   3.24253   3.27030   3.28221   3.28485
 Alpha virt. eigenvalues --    3.31287   3.31684   3.32308   3.33315   3.34329
 Alpha virt. eigenvalues --    3.35482   3.36089   3.36956   3.37766   3.38619
 Alpha virt. eigenvalues --    3.39077   3.40939   3.42998   3.43428   3.44641
 Alpha virt. eigenvalues --    3.49398   3.51268   3.52520   3.53290   3.55224
 Alpha virt. eigenvalues --    3.56549   3.56885   3.62744   3.63957   3.66439
 Alpha virt. eigenvalues --    3.69437   3.70143   3.73141   3.74850   3.74956
 Alpha virt. eigenvalues --    3.75802   3.79798   3.83374   3.84850   3.88473
 Alpha virt. eigenvalues --    3.92614   3.95986   4.00114   4.00455   4.02760
 Alpha virt. eigenvalues --    4.03758   4.06909   4.10022   4.11283   4.14878
 Alpha virt. eigenvalues --    4.15463   4.16708   4.19689   4.22036   4.23224
 Alpha virt. eigenvalues --    4.23500   4.24356   4.26643   4.30465   4.32264
 Alpha virt. eigenvalues --    4.38523   4.44307   4.47064   4.48488   4.50296
 Alpha virt. eigenvalues --    4.53303   4.56211   4.60600   4.62250   4.65717
 Alpha virt. eigenvalues --    4.69691   4.71573   4.72356   4.74979   4.78224
 Alpha virt. eigenvalues --    4.79742   4.84927   4.93160   4.95113   5.00504
 Alpha virt. eigenvalues --    5.00707   5.02883   5.06212   5.10160   5.11300
 Alpha virt. eigenvalues --    5.12712   5.14409   5.16023   5.18423   5.18490
 Alpha virt. eigenvalues --    5.23911   5.25377   5.27710   5.28497   5.30739
 Alpha virt. eigenvalues --    5.33538   5.37798   5.41677   5.47928   5.49371
 Alpha virt. eigenvalues --    5.52219   5.52962   5.55294   5.64335   5.65123
 Alpha virt. eigenvalues --    5.66685   5.69520   5.72558   5.83249   5.87324
 Alpha virt. eigenvalues --    5.91211   5.92359   6.05524   6.07765   6.14491
 Alpha virt. eigenvalues --    6.15491   6.35021   6.37449   6.41945   6.56211
 Alpha virt. eigenvalues --    6.62306   6.73108   6.74020   6.84741   6.90097
 Alpha virt. eigenvalues --    7.03309   7.11417   7.27486   7.37740  10.80813
 Alpha virt. eigenvalues --   10.88008  11.40322  22.42807  22.51693  22.72015
 Alpha virt. eigenvalues --   23.05987  23.14743  23.27894  23.48222  25.87832
 Alpha virt. eigenvalues --   32.18304  32.57974  32.88475  44.07889  44.27965
          Condensed to atoms (all electrons):
               1          2          3          4          5          6
     1  Cl  16.833762   0.371567  -0.088583   0.013988   0.006384  -0.001277
     2  C    0.371567   4.777351   0.432888  -0.095765  -0.048302  -0.043411
     3  C   -0.088583   0.432888   5.148013   0.232686   0.528568  -0.095181
     4  C    0.013988  -0.095765   0.232686   5.159784  -0.071822   0.001319
     5  N    0.006384  -0.048302   0.528568  -0.071822   6.389158   0.486164
     6  C   -0.001277  -0.043411  -0.095181   0.001319   0.486164   5.370054
     7  C   -0.000102   0.001935  -0.005210  -0.002530  -0.049336   0.252431
     8  O   -0.000001   0.000618  -0.001085  -0.000034   0.002231  -0.148940
     9  C   -0.000000  -0.000011   0.000057  -0.000001  -0.000190   0.008866
    10  O   -0.000000   0.000274  -0.001211  -0.000535  -0.010974  -0.106253
    11  C    0.003411  -0.051824  -0.042317   0.003966  -0.065353   0.427142
    12  N   -0.000290   0.001266   0.002033   0.000189   0.004743  -0.073259
    13  N   -0.082882   0.559197  -0.066622   0.006844  -0.008366  -0.044616
    14  H    0.000721   0.005195  -0.065299   0.429399   0.010030  -0.000176
    15  H    0.000489  -0.000849  -0.041498   0.407329   0.001122  -0.000231
    16  H    0.000557  -0.000998  -0.041112   0.407141   0.000978  -0.000044
    17  H   -0.000000  -0.000004   0.000009   0.000000   0.000026   0.003395
    18  H    0.000000   0.000003  -0.000013   0.000000  -0.000057  -0.001325
    19  H    0.000000   0.000001  -0.000009  -0.000000  -0.000032  -0.001620
    20  H   -0.000256   0.000724   0.000498  -0.000014  -0.000487   0.005955
    21  H    0.000014  -0.000563   0.000196   0.000004   0.000141   0.000867
               7          8          9         10         11         12
     1  Cl  -0.000102  -0.000001  -0.000000  -0.000000   0.003411  -0.000290
     2  C    0.001935   0.000618  -0.000011   0.000274  -0.051824   0.001266
     3  C   -0.005210  -0.001085   0.000057  -0.001211  -0.042317   0.002033
     4  C   -0.002530  -0.000034  -0.000001  -0.000535   0.003966   0.000189
     5  N   -0.049336   0.002231  -0.000190  -0.010974  -0.065353   0.004743
     6  C    0.252431  -0.148940   0.008866  -0.106253   0.427142  -0.073259
     7  C    4.477289   0.353149  -0.050331   0.717482  -0.040770  -0.005531
     8  O    0.353149   8.122941   0.200287  -0.088810   0.015079  -0.031027
     9  C   -0.050331   0.200287   4.844798   0.004599  -0.000852   0.001133
    10  O    0.717482  -0.088810   0.004599   7.782367   0.001463  -0.000068
    11  C   -0.040770   0.015079  -0.000852   0.001463   4.615055   0.364411
    12  N   -0.005531  -0.031027   0.001133  -0.000068   0.364411   6.619575
    13  N    0.001478  -0.000500  -0.000006  -0.000140   0.487856  -0.113630
    14  H   -0.000133   0.000006  -0.000000   0.000185   0.000236  -0.000007
    15  H    0.000003  -0.000000   0.000000  -0.000000   0.000193  -0.000004
    16  H    0.000025  -0.000000   0.000000  -0.000000   0.000026  -0.000007
    17  H    0.005361  -0.032711   0.393762   0.001917  -0.000772   0.000497
    18  H   -0.008133  -0.032906   0.422409   0.002792   0.000433  -0.000172
    19  H   -0.008354  -0.032170   0.422402   0.002788  -0.000027  -0.000064
    20  H   -0.000168   0.001245  -0.000036   0.000016  -0.032816   0.366068
    21  H   -0.009700   0.013905  -0.000488   0.000374  -0.030556   0.380011
              13         14         15         16         17         18
     1  Cl  -0.082882   0.000721   0.000489   0.000557  -0.000000   0.000000
     2  C    0.559197   0.005195  -0.000849  -0.000998  -0.000004   0.000003
     3  C   -0.066622  -0.065299  -0.041498  -0.041112   0.000009  -0.000013
     4  C    0.006844   0.429399   0.407329   0.407141   0.000000   0.000000
     5  N   -0.008366   0.010030   0.001122   0.000978   0.000026  -0.000057
     6  C   -0.044616  -0.000176  -0.000231  -0.000044   0.003395  -0.001325
     7  C    0.001478  -0.000133   0.000003   0.000025   0.005361  -0.008133
     8  O   -0.000500   0.000006  -0.000000  -0.000000  -0.032711  -0.032906
     9  C   -0.000006  -0.000000   0.000000   0.000000   0.393762   0.422409
    10  O   -0.000140   0.000185  -0.000000  -0.000000   0.001917   0.002792
    11  C    0.487856   0.000236   0.000193   0.000026  -0.000772   0.000433
    12  N   -0.113630  -0.000007  -0.000004  -0.000007   0.000497  -0.000172
    13  N    6.478900  -0.000406   0.000051   0.000037  -0.000001   0.000001
    14  H   -0.000406   0.490468  -0.018303  -0.018331  -0.000000  -0.000000
    15  H    0.000051  -0.018303   0.528806  -0.037884  -0.000000   0.000000
    16  H    0.000037  -0.018331  -0.037884   0.528985  -0.000000  -0.000000
    17  H   -0.000001  -0.000000  -0.000000  -0.000000   0.542187  -0.026294
    18  H    0.000001  -0.000000   0.000000  -0.000000  -0.026294   0.520420
    19  H    0.000001  -0.000000  -0.000000   0.000000  -0.026198  -0.037710
    20  H    0.010201   0.000001   0.000001   0.000000  -0.000022   0.000000
    21  H    0.003899  -0.000000   0.000000  -0.000000  -0.001158   0.000286
              19         20         21
     1  Cl   0.000000  -0.000256   0.000014
     2  C    0.000001   0.000724  -0.000563
     3  C   -0.000009   0.000498   0.000196
     4  C   -0.000000  -0.000014   0.000004
     5  N   -0.000032  -0.000487   0.000141
     6  C   -0.001620   0.005955   0.000867
     7  C   -0.008354  -0.000168  -0.009700
     8  O   -0.032170   0.001245   0.013905
     9  C    0.422402  -0.000036  -0.000488
    10  O    0.002788   0.000016   0.000374
    11  C   -0.000027  -0.032816  -0.030556
    12  N   -0.000064   0.366068   0.380011
    13  N    0.000001   0.010201   0.003899
    14  H   -0.000000   0.000001  -0.000000
    15  H   -0.000000   0.000001   0.000000
    16  H    0.000000   0.000000  -0.000000
    17  H   -0.026198  -0.000022  -0.001158
    18  H   -0.037710   0.000000   0.000286
    19  H    0.520718   0.000002   0.000151
    20  H    0.000002   0.407750  -0.020256
    21  H    0.000151  -0.020256   0.378702
 Mulliken charges:
               1
     1  Cl  -0.057501
     2  C    0.090711
     3  C    0.103191
     4  C   -0.491948
     5  N   -0.174628
     6  C   -0.039860
     7  C    0.371145
     8  O   -0.341276
     9  C   -0.246396
    10  O   -0.306265
    11  C    0.346018
    12  N   -0.515865
    13  N   -0.231298
    14  H    0.166414
    15  H    0.160775
    16  H    0.160626
    17  H    0.140005
    18  H    0.160265
    19  H    0.160123
    20  H    0.261593
    21  H    0.284172
 Sum of Mulliken charges =  -0.00000
 Mulliken charges with hydrogens summed into heavy atoms:
               1
     1  Cl  -0.057501
     2  C    0.090711
     3  C    0.103191
     4  C   -0.004132
     5  N   -0.174628
     6  C   -0.039860
     7  C    0.371145
     8  O   -0.341276
     9  C    0.213997
    10  O   -0.306265
    11  C    0.346018
    12  N    0.029900
    13  N   -0.231298
 Electronic spatial extent (au):  <R**2>=           3207.8775
 Charge=              0.0000 electrons
 Dipole moment (field-independent basis, Debye):
    X=             -2.0130    Y=             -2.7936    Z=              0.1449  Tot=              3.4464
 Quadrupole moment (field-independent basis, Debye-Ang):
   XX=            -71.0247   YY=            -82.3663   ZZ=            -82.1186
   XY=             13.3925   XZ=             -0.2855   YZ=             -0.2808
 Traceless Quadrupole moment (field-independent basis, Debye-Ang):
   XX=              7.4785   YY=             -3.8631   ZZ=             -3.6154
   XY=             13.3925   XZ=             -0.2855   YZ=             -0.2808
 Octapole moment (field-independent basis, Debye-Ang**2):
  XXX=            -77.9439  YYY=            -36.7609  ZZZ=              0.1682  XYY=              3.8252
  XXY=            -10.7105  XXZ=              0.6845  XZZ=             -4.1395  YZZ=              2.5184
  YYZ=              1.2095  XYZ=              0.2365
 Hexadecapole moment (field-independent basis, Debye-Ang**3):
 XXXX=          -2783.3205 YYYY=           -807.3883 ZZZZ=            -96.3187 XXXY=             59.7331
 XXXZ=             -2.2039 YYYX=             66.3709 YYYZ=             -2.8179 ZZZX=             -0.0509
 ZZZY=             -0.4221 XXYY=           -685.7965 XXZZ=           -532.3260 YYZZ=           -170.3810
 XXYZ=             -0.3526 YYXZ=             -1.6336 ZZXY=             -8.0277
 N-N= 8.794753498072D+02 E-N=-4.222313519910D+03  KE= 1.043093974263D+03
 Unable to Open any file for archive entry.
 1\1\GINC-COMPUTE-0-15\SP\RM062X\def2TZVP\C7H8Cl1N3O2\ZTAN64\16-Aug-202
 4\0\\# M062X/def2tzvp int=(grid=ultrafine) nmr=giao guess=read geom=ch
 eck\\pyrz2.xyz\\0,1\Cl,0,-4.1060881956,1.2930871808,-0.2763240392\C,0,
 -2.4055567224,0.854892656,-0.1634613039\C,0,-2.0390462539,-0.508769187
 6,-0.2220881197\C,0,-3.022828097,-1.6309044357,-0.3817034971\N,0,-0.74
 61271452,-0.7946314743,-0.126666409\C,0,0.1648795736,0.1757761089,0.01
 58200496\C,0,1.5687941641,-0.3159816712,0.1129696672\O,0,2.470510805,0
 .6998774857,0.2837378728\C,0,3.8404933303,0.2744884928,0.3826811911\O,
 0,1.9093160749,-1.4738875958,0.0537235627\C,0,-0.2424848169,1.54152883
 04,0.0647112248\N,0,0.5875819397,2.6006674901,0.1883146372\N,0,-1.5580
 702623,1.8421764577,-0.0266621826\H,0,-2.4763579007,-2.5743031061,-0.3
 975525818\H,0,-3.5952900131,-1.5310164877,-1.3096552928\H,0,-3.7460942
 232,-1.6478730624,0.4401386454\H,0,4.4236236048,1.1858618564,0.5111969
 826\H,0,4.1415999254,-0.2524849064,-0.5249495926\H,0,3.971121941,-0.39
 19466441,1.2376775511\H,0,0.1691442552,3.5136590954,0.2577589294\H,0,1
 .5744780163,2.452282917,0.3160327048\\Version=ES64L-G16RevC.01\State=1
 -A\HF=-1046.4765606\RMSD=1.477e-09\Dipole=0.8420499,1.0434637,0.201612
 4\Quadrupole=6.5018113,-4.0582927,-2.4435185,9.2961655,1.6609164,0.943
 5103\PG=C01 [X(C7H8Cl1N3O2)]\\@
 The archive entry for this job was punched.


 THE RARE EARTHS PERPLEX US IN OUR RESEARCHES,
 BAFFLE US IN OUR SPECULATIONS, AND HAUNT US IN OUR
 VERY DREAMS.  THEY STRETCH LIKE AN UNKNOWN BEFORE US,
 MOCKING, MYSTIFYING, AND MURMURING STRANGE REVELATIONS
 AND POSSIBILITIES.  -- SIR WILLIAM CROOKE, 1832-1919
 Job cpu time:       0 days  0 hours 36 minutes 10.7 seconds.
 Elapsed time:       0 days  0 hours  2 minutes 24.3 seconds.
 File lengths (MBytes):  RWF=    120 Int=      0 D2E=      0 Chk=     20 Scr=      1
 Normal termination of Gaussian 16 at Fri Aug 16 14:08:31 2024.
 
 
-----Kestrel cluster job statistics-----
Time info:

real	15m48.465s
user	245m23.797s
sys	0m28.000s
 
Disk space usage:
20M	/scratch/363664.kestrel.chem.wisc.edu
