 Entering Gaussian System, Link 0=/share/apps/gaussian/g16/g16
 Initial command:
 /share/apps/gaussian/g16/l1.exe "/scratch/362990.kestrel.chem.wisc.edu/Gau-19360.inp" -scrdir="/scratch/362990.kestrel.chem.wisc.edu/"
 Entering Link 1 = /share/apps/gaussian/g16/l1.exe PID=     19361.
  
 Copyright (c) 1988-2019, Gaussian, Inc.  All Rights Reserved.
  
 This is part of the Gaussian(R) 16 program.  It is based on
 the Gaussian(R) 09 system (copyright 2009, Gaussian, Inc.),
 the Gaussian(R) 03 system (copyright 2003, Gaussian, Inc.),
 the Gaussian(R) 98 system (copyright 1998, Gaussian, Inc.),
 the Gaussian(R) 94 system (copyright 1995, Gaussian, Inc.),
 the Gaussian 92(TM) system (copyright 1992, Gaussian, Inc.),
 the Gaussian 90(TM) system (copyright 1990, Gaussian, Inc.),
 the Gaussian 88(TM) system (copyright 1988, Gaussian, Inc.),
 the Gaussian 86(TM) system (copyright 1986, Carnegie Mellon
 University), and the Gaussian 82(TM) system (copyright 1983,
 Carnegie Mellon University). Gaussian is a federally registered
 trademark of Gaussian, Inc.
  
 This software contains proprietary and confidential information,
 including trade secrets, belonging to Gaussian, Inc.
  
 This software is provided under written license and may be
 used, copied, transmitted, or stored only in accord with that
 written license.
  
 The following legend is applicable only to US Government
 contracts under FAR:
  
                    RESTRICTED RIGHTS LEGEND
  
 Use, reproduction and disclosure by the US Government is
 subject to restrictions as set forth in subparagraphs (a)
 and (c) of the Commercial Computer Software - Restricted
 Rights clause in FAR 52.227-19.
  
 Gaussian, Inc.
 340 Quinnipiac St., Bldg. 40, Wallingford CT 06492
  
  
 ---------------------------------------------------------------
 Warning -- This program may not be used in any manner that
 competes with the business of Gaussian, Inc. or will provide
 assistance to any competitor of Gaussian, Inc.  The licensee
 of this program is prohibited from giving any competitor of
 Gaussian, Inc. access to this program.  By using this program,
 the user acknowledges that Gaussian, Inc. is engaged in the
 business of creating and licensing software in the field of
 computational chemistry and represents and warrants to the
 licensee that it is not a competitor of Gaussian, Inc. and that
 it will not use this program in any manner prohibited above.
 ---------------------------------------------------------------
  

 Cite this work as:
 Gaussian 16, Revision C.01,
 M. J. Frisch, G. W. Trucks, H. B. Schlegel, G. E. Scuseria, 
 M. A. Robb, J. R. Cheeseman, G. Scalmani, V. Barone, 
 G. A. Petersson, H. Nakatsuji, X. Li, M. Caricato, A. V. Marenich, 
 J. Bloino, B. G. Janesko, R. Gomperts, B. Mennucci, H. P. Hratchian, 
 J. V. Ortiz, A. F. Izmaylov, J. L. Sonnenberg, D. Williams-Young, 
 F. Ding, F. Lipparini, F. Egidi, J. Goings, B. Peng, A. Petrone, 
 T. Henderson, D. Ranasinghe, V. G. Zakrzewski, J. Gao, N. Rega, 
 G. Zheng, W. Liang, M. Hada, M. Ehara, K. Toyota, R. Fukuda, 
 J. Hasegawa, M. Ishida, T. Nakajima, Y. Honda, O. Kitao, H. Nakai, 
 T. Vreven, K. Throssell, J. A. Montgomery, Jr., J. E. Peralta, 
 F. Ogliaro, M. J. Bearpark, J. J. Heyd, E. N. Brothers, K. N. Kudin, 
 V. N. Staroverov, T. A. Keith, R. Kobayashi, J. Normand, 
 K. Raghavachari, A. P. Rendell, J. C. Burant, S. S. Iyengar, 
 J. Tomasi, M. Cossi, J. M. Millam, M. Klene, C. Adamo, R. Cammi, 
 J. W. Ochterski, R. L. Martin, K. Morokuma, O. Farkas, 
 J. B. Foresman, and D. J. Fox, Gaussian, Inc., Wallingford CT, 2019.
 
 ******************************************
 Gaussian 16:  ES64L-G16RevC.01  3-Jul-2019
                14-Aug-2024 
 ******************************************
 %nprocs=16
 Will use up to   16 processors via shared memory.
 %mem=16GB
 %chk=pyrmd2_conf-2.chk
 ----------------------------------------------------------------------
 # B3LYP/6-31G(d,p) symmetry=loose empiricaldispersion=GD3BJ int=(grid=
 ultrafine) opt freq=noraman
 ----------------------------------------------------------------------
 1/18=20,19=15,26=4,38=1/1,3;
 2/9=110,12=2,17=4,18=3,40=1/2;
 3/5=1,6=6,7=101,11=2,25=1,30=1,71=1,74=-5,75=-5,124=41/1,2,3;
 4//1;
 5/5=2,38=5/2;
 6/7=2,8=2,9=2,10=2,28=1/1;
 7//1,2,3,16;
 1/18=20,19=15,26=4/3(2);
 2/9=110/2;
 99//99;
 2/9=110/2;
 3/5=1,6=6,7=101,11=2,25=1,30=1,71=1,74=-5,75=-5,124=41/1,2,3;
 4/5=5,16=3,69=1/1;
 5/5=2,38=5/2;
 7//1,2,3,16;
 1/18=20,19=15,26=4/3(-5);
 2/9=110/2;
 6/7=2,8=2,9=2,10=2,19=2,28=1/1;
 99/9=1/99;
 ----------
 pyrmd2.xyz
 ----------
 Symbolic Z-matrix:
 Charge =  0 Multiplicity = 1
 Cl                    3.5518    0.8378   -3.1456 
 C                     2.9951    0.3997   -1.5733 
 C                     3.263     1.2463   -0.4957 
 C                     2.7949    0.855     0.7602 
 Cl                    3.0995    1.8656    2.1238 
 N                     2.105    -0.3004    0.9422 
 C                     1.8908   -1.0621   -0.1647 
 C                     1.1205   -2.3736   -0.022 
 C                     0.6315   -2.7457    1.3764 
 C                    -0.6369   -2.3418    1.8022 
 C                    -1.092    -2.7007    3.0684 
 C                    -0.2798   -3.4671    3.9021 
 C                     0.9834   -3.878     3.481 
 C                     1.4389   -3.5192    2.2148 
 N                     2.3075   -0.7624   -1.4225 
 H                     3.8099    2.1665   -0.6277 
 H                     1.7515   -3.1791   -0.3997 
 H                     0.2635   -2.3375   -0.6959 
 H                    -1.2659   -1.7432    1.1589 
 H                    -2.0692   -2.3842    3.4036 
 H                    -0.6321   -3.7434    4.8856 
 H                     1.6078   -4.47      4.1346 
 H                     2.4207   -3.8344    1.8918 
 

 GradGradGradGradGradGradGradGradGradGradGradGradGradGradGradGradGradGrad
 Berny optimization.
 Initialization pass.
                           ----------------------------
                           !    Initial Parameters    !
                           ! (Angstroms and Degrees)  !
 --------------------------                            --------------------------
 ! Name  Definition              Value          Derivative Info.                !
 --------------------------------------------------------------------------------
 ! R1    R(1,2)                  1.7245         estimate D2E/DX2                !
 ! R2    R(2,3)                  1.3963         estimate D2E/DX2                !
 ! R3    R(2,15)                 1.3587         estimate D2E/DX2                !
 ! R4    R(3,4)                  1.3963         estimate D2E/DX2                !
 ! R5    R(3,16)                 1.0786         estimate D2E/DX2                !
 ! R6    R(4,5)                  1.7244         estimate D2E/DX2                !
 ! R7    R(4,6)                  1.358          estimate D2E/DX2                !
 ! R8    R(6,7)                  1.3606         estimate D2E/DX2                !
 ! R9    R(7,8)                  1.5277         estimate D2E/DX2                !
 ! R10   R(7,15)                 1.3585         estimate D2E/DX2                !
 ! R11   R(8,9)                  1.5274         estimate D2E/DX2                !
 ! R12   R(8,17)                 1.0907         estimate D2E/DX2                !
 ! R13   R(8,18)                 1.0908         estimate D2E/DX2                !
 ! R14   R(9,10)                 1.3976         estimate D2E/DX2                !
 ! R15   R(9,14)                 1.3975         estimate D2E/DX2                !
 ! R16   R(10,11)                1.3925         estimate D2E/DX2                !
 ! R17   R(10,19)                1.0806         estimate D2E/DX2                !
 ! R18   R(11,12)                1.3936         estimate D2E/DX2                !
 ! R19   R(11,20)                1.0805         estimate D2E/DX2                !
 ! R20   R(12,13)                1.3935         estimate D2E/DX2                !
 ! R21   R(12,21)                1.0806         estimate D2E/DX2                !
 ! R22   R(13,14)                1.3927         estimate D2E/DX2                !
 ! R23   R(13,22)                1.0805         estimate D2E/DX2                !
 ! R24   R(14,23)                1.0806         estimate D2E/DX2                !
 ! A1    A(1,2,3)              119.1867         estimate D2E/DX2                !
 ! A2    A(1,2,15)             118.8062         estimate D2E/DX2                !
 ! A3    A(3,2,15)             122.0071         estimate D2E/DX2                !
 ! A4    A(2,3,4)              117.3823         estimate D2E/DX2                !
 ! A5    A(2,3,16)             121.3404         estimate D2E/DX2                !
 ! A6    A(4,3,16)             121.2774         estimate D2E/DX2                !
 ! A7    A(3,4,5)              119.1975         estimate D2E/DX2                !
 ! A8    A(3,4,6)              121.9599         estimate D2E/DX2                !
 ! A9    A(5,4,6)              118.8426         estimate D2E/DX2                !
 ! A10   A(4,6,7)              116.5681         estimate D2E/DX2                !
 ! A11   A(6,7,8)              118.9464         estimate D2E/DX2                !
 ! A12   A(6,7,15)             125.5512         estimate D2E/DX2                !
 ! A13   A(8,7,15)             115.5023         estimate D2E/DX2                !
 ! A14   A(7,8,9)              117.1346         estimate D2E/DX2                !
 ! A15   A(7,8,17)             108.0564         estimate D2E/DX2                !
 ! A16   A(7,8,18)             108.061          estimate D2E/DX2                !
 ! A17   A(9,8,17)             108.8041         estimate D2E/DX2                !
 ! A18   A(9,8,18)             108.7924         estimate D2E/DX2                !
 ! A19   A(17,8,18)            105.3682         estimate D2E/DX2                !
 ! A20   A(8,9,10)             119.9385         estimate D2E/DX2                !
 ! A21   A(8,9,14)             119.9407         estimate D2E/DX2                !
 ! A22   A(10,9,14)            120.0994         estimate D2E/DX2                !
 ! A23   A(9,10,11)            119.9431         estimate D2E/DX2                !
 ! A24   A(9,10,19)            120.4622         estimate D2E/DX2                !
 ! A25   A(11,10,19)           119.592          estimate D2E/DX2                !
 ! A26   A(10,11,12)           119.6848         estimate D2E/DX2                !
 ! A27   A(10,11,20)           120.1429         estimate D2E/DX2                !
 ! A28   A(12,11,20)           120.1721         estimate D2E/DX2                !
 ! A29   A(11,12,13)           120.6436         estimate D2E/DX2                !
 ! A30   A(11,12,21)           119.6752         estimate D2E/DX2                !
 ! A31   A(13,12,21)           119.681          estimate D2E/DX2                !
 ! A32   A(12,13,14)           119.6877         estimate D2E/DX2                !
 ! A33   A(12,13,22)           120.1719         estimate D2E/DX2                !
 ! A34   A(14,13,22)           120.1402         estimate D2E/DX2                !
 ! A35   A(9,14,13)            119.9389         estimate D2E/DX2                !
 ! A36   A(9,14,23)            120.4676         estimate D2E/DX2                !
 ! A37   A(13,14,23)           119.5909         estimate D2E/DX2                !
 ! A38   A(2,15,7)             116.5314         estimate D2E/DX2                !
 ! D1    D(1,2,3,4)            179.9998         estimate D2E/DX2                !
 ! D2    D(1,2,3,16)             0.0053         estimate D2E/DX2                !
 ! D3    D(15,2,3,4)            -0.0033         estimate D2E/DX2                !
 ! D4    D(15,2,3,16)         -179.9978         estimate D2E/DX2                !
 ! D5    D(1,2,15,7)          -179.9959         estimate D2E/DX2                !
 ! D6    D(3,2,15,7)             0.0072         estimate D2E/DX2                !
 ! D7    D(2,3,4,5)           -179.9989         estimate D2E/DX2                !
 ! D8    D(2,3,4,6)              0.0046         estimate D2E/DX2                !
 ! D9    D(16,3,4,5)            -0.0044         estimate D2E/DX2                !
 ! D10   D(16,3,4,6)           179.9991         estimate D2E/DX2                !
 ! D11   D(3,4,6,7)             -0.0096         estimate D2E/DX2                !
 ! D12   D(5,4,6,7)            179.9939         estimate D2E/DX2                !
 ! D13   D(4,6,7,8)            179.9898         estimate D2E/DX2                !
 ! D14   D(4,6,7,15)             0.0144         estimate D2E/DX2                !
 ! D15   D(6,7,8,9)              0.1562         estimate D2E/DX2                !
 ! D16   D(6,7,8,17)          -123.0761         estimate D2E/DX2                !
 ! D17   D(6,7,8,18)           123.3766         estimate D2E/DX2                !
 ! D18   D(15,7,8,9)          -179.866          estimate D2E/DX2                !
 ! D19   D(15,7,8,17)           56.9017         estimate D2E/DX2                !
 ! D20   D(15,7,8,18)          -56.6456         estimate D2E/DX2                !
 ! D21   D(6,7,15,2)            -0.0132         estimate D2E/DX2                !
 ! D22   D(8,7,15,2)          -179.9893         estimate D2E/DX2                !
 ! D23   D(7,8,9,10)            90.7697         estimate D2E/DX2                !
 ! D24   D(7,8,9,14)           -90.9103         estimate D2E/DX2                !
 ! D25   D(17,8,9,10)         -146.3811         estimate D2E/DX2                !
 ! D26   D(17,8,9,14)           31.9389         estimate D2E/DX2                !
 ! D27   D(18,8,9,10)          -32.076          estimate D2E/DX2                !
 ! D28   D(18,8,9,14)          146.244          estimate D2E/DX2                !
 ! D29   D(8,9,10,11)          178.888          estimate D2E/DX2                !
 ! D30   D(8,9,10,19)           -1.7131         estimate D2E/DX2                !
 ! D31   D(14,9,10,11)           0.5707         estimate D2E/DX2                !
 ! D32   D(14,9,10,19)         179.9695         estimate D2E/DX2                !
 ! D33   D(8,9,14,13)         -178.8843         estimate D2E/DX2                !
 ! D34   D(8,9,14,23)            1.7086         estimate D2E/DX2                !
 ! D35   D(10,9,14,13)          -0.567          estimate D2E/DX2                !
 ! D36   D(10,9,14,23)        -179.9742         estimate D2E/DX2                !
 ! D37   D(9,10,11,12)          -0.2833         estimate D2E/DX2                !
 ! D38   D(9,10,11,20)         179.5602         estimate D2E/DX2                !
 ! D39   D(19,10,11,12)       -179.6875         estimate D2E/DX2                !
 ! D40   D(19,10,11,20)          0.156          estimate D2E/DX2                !
 ! D41   D(10,11,12,13)         -0.0068         estimate D2E/DX2                !
 ! D42   D(10,11,12,21)        179.8452         estimate D2E/DX2                !
 ! D43   D(20,11,12,13)       -179.8502         estimate D2E/DX2                !
 ! D44   D(20,11,12,21)          0.0018         estimate D2E/DX2                !
 ! D45   D(11,12,13,14)          0.0104         estimate D2E/DX2                !
 ! D46   D(11,12,13,22)        179.8488         estimate D2E/DX2                !
 ! D47   D(21,12,13,14)       -179.8416         estimate D2E/DX2                !
 ! D48   D(21,12,13,22)         -0.0032         estimate D2E/DX2                !
 ! D49   D(12,13,14,9)           0.2762         estimate D2E/DX2                !
 ! D50   D(12,13,14,23)        179.6885         estimate D2E/DX2                !
 ! D51   D(22,13,14,9)        -179.5623         estimate D2E/DX2                !
 ! D52   D(22,13,14,23)         -0.15           estimate D2E/DX2                !
 --------------------------------------------------------------------------------
 Trust Radius=3.00D-01 FncErr=1.00D-07 GrdErr=1.00D-06 EigMax=2.50D+02 EigMin=1.00D-04
 Number of steps in this run=    124 maximum allowed number of steps=    138.
 GradGradGradGradGradGradGradGradGradGradGradGradGradGradGradGradGradGrad

                          Input orientation:                          
 ---------------------------------------------------------------------
 Center     Atomic      Atomic             Coordinates (Angstroms)
 Number     Number       Type             X           Y           Z
 ---------------------------------------------------------------------
      1         17           0        3.551800    0.837800   -3.145600
      2          6           0        2.995100    0.399700   -1.573300
      3          6           0        3.263000    1.246300   -0.495700
      4          6           0        2.794900    0.855000    0.760200
      5         17           0        3.099500    1.865600    2.123800
      6          7           0        2.105000   -0.300400    0.942200
      7          6           0        1.890800   -1.062100   -0.164700
      8          6           0        1.120500   -2.373600   -0.022000
      9          6           0        0.631500   -2.745700    1.376400
     10          6           0       -0.636900   -2.341800    1.802200
     11          6           0       -1.092000   -2.700700    3.068400
     12          6           0       -0.279800   -3.467100    3.902100
     13          6           0        0.983400   -3.878000    3.481000
     14          6           0        1.438900   -3.519200    2.214800
     15          7           0        2.307500   -0.762400   -1.422500
     16          1           0        3.809900    2.166500   -0.627700
     17          1           0        1.751500   -3.179100   -0.399700
     18          1           0        0.263500   -2.337500   -0.695900
     19          1           0       -1.265900   -1.743200    1.158900
     20          1           0       -2.069200   -2.384200    3.403600
     21          1           0       -0.632100   -3.743400    4.885600
     22          1           0        1.607800   -4.470000    4.134600
     23          1           0        2.420700   -3.834400    1.891800
 ---------------------------------------------------------------------
                    Distance matrix (angstroms):
                    1          2          3          4          5
     1  Cl   0.000000
     2  C    1.724521   0.000000
     3  C    2.696711   1.396325   0.000000
     4  C    3.978501   2.385917   1.396251   0.000000
     5  Cl   5.387720   3.978481   2.696673   1.724384   0.000000
     6  N    4.483173   2.758652   2.408485   1.357953   2.660219
     7  C    3.905676   2.310950   2.705772   2.312598   3.907636
     8  C    5.097174   3.689424   4.233010   3.720122   5.147010
     9  C    6.466692   4.917405   5.134746   4.245591   5.283343
    10  C    7.220512   5.665796   5.776160   4.804430   5.636162
    11  C    8.526409   6.918255   6.873692   5.751416   6.269931
    12  C    9.104032   7.460370   7.355829   6.164890   6.558941
    13  C    8.529201   6.920376   6.875258   5.752006   6.269674
    14  C    7.223689   5.668266   5.777901   4.805021   5.635774
    15  N    2.660450   1.358680   2.409733   2.760022   4.484405
    16  H    2.858650   2.163248   1.078560   2.162527   2.857615
    17  H    5.188115   3.966319   4.677394   4.325276   5.799496
    18  H    5.186181   3.965316   4.677681   4.326693   5.801694
    19  H    6.957048   5.496641   5.673248   4.837324   5.745536
    20  H    9.212434   7.626714   7.537734   6.414004   6.812793
    21  H   10.148526   8.487594   8.308267   7.064597   7.281020
    22  H    9.217005   7.630118   7.540255   6.414936   6.812365
    23  H    6.963062   5.501314   5.676543   4.838493   5.744962
                    6          7          8          9         10
     6  N    0.000000
     7  C    1.360623   0.000000
     8  C    2.489394   1.527664   0.000000
     9  C    2.887771   2.606786   1.527449   0.000000
    10  C    3.524901   3.448999   2.533214   1.397598   0.000000
    11  C    4.528021   4.694150   3.814803   2.415645   1.392547
    12  C    4.947350   5.199461   4.307568   2.780296   2.409025
    13  C    4.527992   4.695082   3.814843   2.415632   2.793502
    14  C    3.524752   3.450156   2.533190   1.397538   2.421870
    15  N    2.417903   1.358499   2.442608   3.817892   4.643564
    16  H    3.384799   3.784332   5.311521   6.184525   6.782567
    17  H    3.195711   2.134553   1.090710   2.144007   3.354682
    18  H    3.197541   2.134695   1.090822   2.143940   2.655418
    19  H    3.673091   3.490067   2.736208   2.156951   1.080647
    20  H    5.274908   5.492023   4.680709   3.396175   2.148898
    21  H    5.907315   6.249794   5.388181   3.860903   3.387014
    22  H    5.274864   5.493437   4.680777   3.396180   3.874016
    23  H    3.672950   3.492225   2.736254   2.156882   3.403645
                   11         12         13         14         15
    11  C    0.000000
    12  C    1.393590   0.000000
    13  C    2.421479   1.393499   0.000000
    14  C    2.793569   2.409071   1.392652   0.000000
    15  N    5.956659   6.508524   5.958567   4.645897   0.000000
    16  H    7.834502   8.305551   7.836230   6.784440   3.386350
    17  H    4.510219   4.765984   4.017247   2.654995   2.682479
    18  H    4.017368   4.765792   4.509755   3.354125   2.680825
    19  H    2.143184   3.386646   3.874128   3.403681   4.516058
    20  H    1.080487   2.150146   3.399382   3.874046   6.713939
    21  H    2.144982   1.080615   2.144961   3.387105   7.570980
    22  H    3.399430   2.150093   1.080524   2.148995   6.716937
    23  H    3.874110   3.386579   2.143196   1.080561   4.520463
                   16         17         18         19         20
    16  H    0.000000
    17  H    5.732751   0.000000
    18  H    5.733029   1.734984   0.000000
    19  H    6.651424   3.687241   2.476397   0.000000
    20  H    8.457190   5.449285   4.716945   2.468775   0.000000
    21  H    9.222514   5.825322   5.825101   4.276774   2.471640
    22  H    8.460016   4.716667   5.448709   4.954632   4.290134
    23  H    6.654965   2.475524   3.686518   4.301311   4.954576
                   21         22         23
    21  H    0.000000
    22  H    2.471659   0.000000
    23  H    4.276764   2.468794   0.000000
 Stoichiometry    C11H8Cl2N2
 Framework group  C1[X(C11H8Cl2N2)]
 Deg. of freedom    63
 Full point group                 C1      NOp   1
 Largest Abelian subgroup         C1      NOp   1
 Largest concise Abelian subgroup C1      NOp   1
                         Standard orientation:                         
 ---------------------------------------------------------------------
 Center     Atomic      Atomic             Coordinates (Angstroms)
 Number     Number       Type             X           Y           Z
 ---------------------------------------------------------------------
      1         17           0       -4.229650   -1.425139    0.001311
      2          6           0       -2.688827   -0.650649    0.000193
      3          6           0       -2.627908    0.744347    0.000657
      4          6           0       -1.361259    1.331816   -0.000275
      5         17           0       -1.231496    3.051310    0.000276
      6          7           0       -0.224433    0.589078   -0.001678
      7          6           0       -0.380588   -0.762555   -0.001929
      8          6           0        0.862539   -1.650468   -0.003725
      9          6           0        2.219506   -0.949228   -0.001436
     10          6           0        2.846174   -0.646546    1.210566
     11          6           0        4.093872   -0.028134    1.212515
     12          6           0        4.713256    0.280095    0.002783
     13          6           0        4.096278   -0.024627   -1.208960
     14          6           0        2.848453   -0.643017   -1.211300
     15          7           0       -1.569205   -1.420361   -0.001178
     16          1           0       -3.523746    1.344984    0.001785
     17          1           0        0.807648   -2.307211   -0.872819
     18          1           0        0.807177   -2.311583    0.862159
     19          1           0        2.364964   -0.880292    2.149501
     20          1           0        4.578085    0.213757    2.147650
     21          1           0        5.680339    0.762253    0.004477
     22          1           0        4.582326    0.219986   -2.142477
     23          1           0        2.369184   -0.874025   -2.151804
 ---------------------------------------------------------------------
 Rotational constants (GHZ):           0.8031424           0.2492794           0.2041412
 Standard basis: 6-31G(d,p) (6D, 7F)
 There are   273 symmetry adapted cartesian basis functions of A   symmetry.
 There are   273 symmetry adapted basis functions of A   symmetry.
   273 basis functions,   524 primitive gaussians,   273 cartesian basis functions
    61 alpha electrons       61 beta electrons
       nuclear repulsion energy      1072.1456935218 Hartrees.
 NAtoms=   23 NActive=   23 NUniq=   23 SFac= 1.00D+00 NAtFMM=   60 NAOKFM=F Big=F
 Integral buffers will be    131072 words long.
 Raffenetti 2 integral format.
 Two-electron integral symmetry is turned on.
 Nuclear repulsion after empirical dispersion term =     1072.0931327785 Hartrees.
 One-electron integrals computed using PRISM.
 NBasis=   273 RedAO= T EigKep=  4.63D-04  NBF=   273
 NBsUse=   273 1.00D-06 EigRej= -1.00D+00 NBFU=   273
 ExpMin= 1.43D-01 ExpMax= 2.52D+04 ExpMxC= 3.78D+03 IAcc=3 IRadAn=         5 AccDes= 0.00D+00
 Harris functional with IExCor=  402 and IRadAn=       5 diagonalized for initial guess.
 HarFok:  IExCor=  402 AccDes= 0.00D+00 IRadAn=         5 IDoV= 1 UseB2=F ITyADJ=14
 ICtDFT=  3500011 ScaDFX=  1.000000  1.000000  1.000000  1.000000
 FoFCou: FMM=F IPFlag=           0 FMFlag=      100000 FMFlg1=           0
         NFxFlg=           0 DoJE=T BraDBF=F KetDBF=T FulRan=T
         wScrn=  0.000000 ICntrl=       500 IOpCl=  0 I1Cent=   200000004 NGrid=           0
         NMat0=    1 NMatS0=      1 NMatT0=    0 NMatD0=    1 NMtDS0=    0 NMtDT0=    0
 Petite list used in FoFCou.
 Requested convergence on RMS density matrix=1.00D-08 within 128 cycles.
 Requested convergence on MAX density matrix=1.00D-06.
 Requested convergence on             energy=1.00D-06.
 No special actions if energy rises.
 Integral accuracy reduced to 1.0D-05 until final iterations.
 Initial convergence to 1.0D-05 achieved.  Increase integral accuracy.
 SCF Done:  E(RB3LYP) =  -1453.94767173     A.U. after   14 cycles
            NFock= 14  Conv=0.61D-08     -V/T= 2.0056

 **********************************************************************

            Population analysis using the SCF Density.

 **********************************************************************

 Orbital symmetries:
       Occupied  (A) (A) (A) (A) (A) (A) (A) (A) (A) (A) (A) (A)
                 (A) (A) (A) (A) (A) (A) (A) (A) (A) (A) (A) (A)
                 (A) (A) (A) (A) (A) (A) (A) (A) (A) (A) (A) (A)
                 (A) (A) (A) (A) (A) (A) (A) (A) (A) (A) (A) (A)
                 (A) (A) (A) (A) (A) (A) (A) (A) (A) (A) (A) (A)
                 (A)
       Virtual   (A) (A) (A) (A) (A) (A) (A) (A) (A) (A) (A) (A)
                 (A) (A) (A) (A) (A) (A) (A) (A) (A) (A) (A) (A)
                 (A) (A) (A) (A) (A) (A) (A) (A) (A) (A) (A) (A)
                 (A) (A) (A) (A) (A) (A) (A) (A) (A) (A) (A) (A)
                 (A) (A) (A) (A) (A) (A) (A) (A) (A) (A) (A) (A)
                 (A) (A) (A) (A) (A) (A) (A) (A) (A) (A) (A) (A)
                 (A) (A) (A) (A) (A) (A) (A) (A) (A) (A) (A) (A)
                 (A) (A) (A) (A) (A) (A) (A) (A) (A) (A) (A) (A)
                 (A) (A) (A) (A) (A) (A) (A) (A) (A) (A) (A) (A)
                 (A) (A) (A) (A) (A) (A) (A) (A) (A) (A) (A) (A)
                 (A) (A) (A) (A) (A) (A) (A) (A) (A) (A) (A) (A)
                 (A) (A) (A) (A) (A) (A) (A) (A) (A) (A) (A) (A)
                 (A) (A) (A) (A) (A) (A) (A) (A) (A) (A) (A) (A)
                 (A) (A) (A) (A) (A) (A) (A) (A) (A) (A) (A) (A)
                 (A) (A) (A) (A) (A) (A) (A) (A) (A) (A) (A) (A)
                 (A) (A) (A) (A) (A) (A) (A) (A) (A) (A) (A) (A)
                 (A) (A) (A) (A) (A) (A) (A) (A) (A) (A) (A) (A)
                 (A) (A) (A) (A) (A) (A) (A) (A)
 The electronic state is 1-A.
 Alpha  occ. eigenvalues -- -101.57297-101.57179 -14.36269 -14.36226 -10.31666
 Alpha  occ. eigenvalues --  -10.31591 -10.29325 -10.23444 -10.20605 -10.19817
 Alpha  occ. eigenvalues --  -10.18748 -10.18741 -10.18677 -10.18674 -10.18579
 Alpha  occ. eigenvalues --   -9.48995  -9.48877  -7.25396  -7.25278  -7.24437
 Alpha  occ. eigenvalues --   -7.24348  -7.24320  -7.24228  -1.00767  -0.93335
 Alpha  occ. eigenvalues --   -0.89348  -0.85569  -0.85307  -0.80127  -0.77084
 Alpha  occ. eigenvalues --   -0.74397  -0.71291  -0.64573  -0.64154  -0.60487
 Alpha  occ. eigenvalues --   -0.58321  -0.55194  -0.52405  -0.50857  -0.48138
 Alpha  occ. eigenvalues --   -0.47463  -0.45796  -0.45080  -0.44997  -0.43084
 Alpha  occ. eigenvalues --   -0.42172  -0.40383  -0.40317  -0.39482  -0.35718
 Alpha  occ. eigenvalues --   -0.34978  -0.34167  -0.34059  -0.33936  -0.33220
 Alpha  occ. eigenvalues --   -0.32203  -0.30058  -0.28411  -0.27835  -0.24875
 Alpha  occ. eigenvalues --   -0.24217
 Alpha virt. eigenvalues --   -0.06380  -0.04833  -0.00235   0.00143   0.00960
 Alpha virt. eigenvalues --    0.04406   0.09134   0.09224   0.12017   0.13476
 Alpha virt. eigenvalues --    0.13695   0.15529   0.16618   0.17742   0.19056
 Alpha virt. eigenvalues --    0.19378   0.20485   0.21796   0.23170   0.25548
 Alpha virt. eigenvalues --    0.27718   0.28320   0.30711   0.31645   0.32399
 Alpha virt. eigenvalues --    0.34200   0.34458   0.37485   0.37764   0.39588
 Alpha virt. eigenvalues --    0.40784   0.42325   0.42941   0.43619   0.45117
 Alpha virt. eigenvalues --    0.45972   0.48280   0.49946   0.51685   0.52610
 Alpha virt. eigenvalues --    0.53600   0.55049   0.55159   0.55283   0.56490
 Alpha virt. eigenvalues --    0.57977   0.58592   0.58947   0.59632   0.60441
 Alpha virt. eigenvalues --    0.60523   0.61231   0.61714   0.62613   0.62837
 Alpha virt. eigenvalues --    0.64207   0.66360   0.67554   0.69898   0.72207
 Alpha virt. eigenvalues --    0.75374   0.76068   0.76741   0.76800   0.79196
 Alpha virt. eigenvalues --    0.80831   0.81621   0.81950   0.82320   0.82508
 Alpha virt. eigenvalues --    0.83463   0.83533   0.84667   0.84964   0.85906
 Alpha virt. eigenvalues --    0.86257   0.88210   0.89463   0.89586   0.90264
 Alpha virt. eigenvalues --    0.93132   0.93592   0.94773   0.95057   0.95518
 Alpha virt. eigenvalues --    0.96865   1.01065   1.01076   1.01853   1.05196
 Alpha virt. eigenvalues --    1.07006   1.10668   1.10728   1.13532   1.14716
 Alpha virt. eigenvalues --    1.15218   1.16787   1.17112   1.22604   1.26048
 Alpha virt. eigenvalues --    1.28934   1.31533   1.33658   1.37653   1.38726
 Alpha virt. eigenvalues --    1.40406   1.41008   1.42326   1.42760   1.43305
 Alpha virt. eigenvalues --    1.45301   1.46768   1.47670   1.49112   1.54360
 Alpha virt. eigenvalues --    1.55407   1.57658   1.61256   1.65990   1.71672
 Alpha virt. eigenvalues --    1.75903   1.76244   1.77109   1.81683   1.81701
 Alpha virt. eigenvalues --    1.84389   1.85598   1.87731   1.88985   1.90643
 Alpha virt. eigenvalues --    1.92754   1.95848   1.97365   1.97501   1.97793
 Alpha virt. eigenvalues --    1.99914   2.00380   2.04687   2.06614   2.09247
 Alpha virt. eigenvalues --    2.09707   2.11876   2.14560   2.14975   2.16948
 Alpha virt. eigenvalues --    2.21907   2.24349   2.26745   2.27417   2.29363
 Alpha virt. eigenvalues --    2.30560   2.30612   2.31702   2.33054   2.38094
 Alpha virt. eigenvalues --    2.38876   2.39103   2.41883   2.42682   2.44735
 Alpha virt. eigenvalues --    2.47250   2.49106   2.49965   2.50972   2.52438
 Alpha virt. eigenvalues --    2.53564   2.56024   2.58805   2.60652   2.60945
 Alpha virt. eigenvalues --    2.64239   2.65343   2.66168   2.69066   2.70831
 Alpha virt. eigenvalues --    2.73661   2.77509   2.78888   2.81157   2.81328
 Alpha virt. eigenvalues --    2.88104   2.88558   2.94895   3.05115   3.06779
 Alpha virt. eigenvalues --    3.15233   3.17515   3.21335   3.25225   3.25930
 Alpha virt. eigenvalues --    3.32170   3.36208   3.44899   3.47961   3.50633
 Alpha virt. eigenvalues --    3.52127   3.91233   4.02160   4.03892   4.10645
 Alpha virt. eigenvalues --    4.10827   4.14112   4.16264   4.21173   4.22805
 Alpha virt. eigenvalues --    4.29229   4.32493   4.44058   4.45705   4.51679
 Alpha virt. eigenvalues --    4.62149   4.84560
          Condensed to atoms (all electrons):
               1          2          3          4          5          6
     1  Cl  16.817476   0.277956  -0.083866   0.004471  -0.000174  -0.000139
     2  C    0.277956   4.887502   0.454292  -0.034511   0.004451  -0.031731
     3  C   -0.083866   0.454292   5.061967   0.453289  -0.085275  -0.038316
     4  C    0.004471  -0.034511   0.453289   4.899764   0.279600   0.394535
     5  Cl  -0.000174   0.004451  -0.085275   0.279600  16.815362  -0.069889
     6  N   -0.000139  -0.031731  -0.038316   0.394535  -0.069889   6.868140
     7  C    0.004173  -0.039470  -0.034989  -0.041130   0.004672   0.450945
     8  C   -0.000195   0.004107   0.000477   0.006554  -0.000150  -0.094455
     9  C    0.000000  -0.000150  -0.000007  -0.000107   0.000007   0.003041
    10  C    0.000000  -0.000001  -0.000005  -0.000050   0.000013   0.001901
    11  C    0.000000  -0.000000  -0.000000   0.000002  -0.000000  -0.000124
    12  C   -0.000000   0.000000   0.000000   0.000001  -0.000000   0.000047
    13  C    0.000000  -0.000000  -0.000000   0.000002  -0.000000  -0.000124
    14  C    0.000000  -0.000001  -0.000005  -0.000049   0.000013   0.001917
    15  N   -0.069288   0.403727  -0.038659  -0.033436  -0.000142  -0.066772
    16  H   -0.000478  -0.034525   0.369942  -0.035095  -0.000392   0.003749
    17  H   -0.000001   0.000117   0.000006  -0.000127   0.000005   0.001509
    18  H   -0.000001   0.000120   0.000006  -0.000128   0.000005   0.001537
    19  H   -0.000000   0.000001  -0.000000  -0.000002  -0.000000   0.000279
    20  H   -0.000000   0.000000  -0.000000  -0.000000   0.000000  -0.000001
    21  H    0.000000  -0.000000   0.000000  -0.000000   0.000000  -0.000000
    22  H   -0.000000   0.000000  -0.000000  -0.000000   0.000000  -0.000001
    23  H   -0.000000   0.000001  -0.000000  -0.000002   0.000000   0.000278
               7          8          9         10         11         12
     1  Cl   0.004173  -0.000195   0.000000   0.000000   0.000000  -0.000000
     2  C   -0.039470   0.004107  -0.000150  -0.000001  -0.000000   0.000000
     3  C   -0.034989   0.000477  -0.000007  -0.000005  -0.000000   0.000000
     4  C   -0.041130   0.006554  -0.000107  -0.000050   0.000002   0.000001
     5  Cl   0.004672  -0.000150   0.000007   0.000013  -0.000000  -0.000000
     6  N    0.450945  -0.094455   0.003041   0.001901  -0.000124   0.000047
     7  C    4.649888   0.328090  -0.034909  -0.002171  -0.000042   0.000016
     8  C    0.328090   5.214292   0.314485  -0.051124   0.006158   0.000396
     9  C   -0.034909   0.314485   4.703814   0.549627  -0.024567  -0.035887
    10  C   -0.002171  -0.051124   0.549627   4.866249   0.526631  -0.040072
    11  C   -0.000042   0.006158  -0.024567   0.526631   4.812502   0.551407
    12  C    0.000016   0.000396  -0.035887  -0.040072   0.551407   4.801467
    13  C   -0.000042   0.006157  -0.024580  -0.045858  -0.028860   0.551488
    14  C   -0.002192  -0.050991   0.549676  -0.036035  -0.045851  -0.040071
    15  N    0.364531  -0.084604   0.003770   0.000009   0.000001  -0.000000
    16  H    0.000572   0.000022  -0.000001  -0.000000   0.000000  -0.000000
    17  H   -0.030171   0.364888  -0.028499   0.003344  -0.000212   0.000017
    18  H   -0.030177   0.364921  -0.028549  -0.004541   0.000079   0.000017
    19  H    0.000229  -0.009279  -0.045360   0.366512  -0.042470   0.005013
    20  H   -0.000001  -0.000186   0.004080  -0.038347   0.366040  -0.041794
    21  H    0.000000   0.000005   0.000732   0.005094  -0.042739   0.368552
    22  H   -0.000001  -0.000186   0.004081   0.000922   0.004574  -0.041797
    23  H    0.000226  -0.009289  -0.045349   0.005544   0.000421   0.005013
              13         14         15         16         17         18
     1  Cl   0.000000   0.000000  -0.069288  -0.000478  -0.000001  -0.000001
     2  C   -0.000000  -0.000001   0.403727  -0.034525   0.000117   0.000120
     3  C   -0.000000  -0.000005  -0.038659   0.369942   0.000006   0.000006
     4  C    0.000002  -0.000049  -0.033436  -0.035095  -0.000127  -0.000128
     5  Cl  -0.000000   0.000013  -0.000142  -0.000392   0.000005   0.000005
     6  N   -0.000124   0.001917  -0.066772   0.003749   0.001509   0.001537
     7  C   -0.000042  -0.002192   0.364531   0.000572  -0.030171  -0.030177
     8  C    0.006157  -0.050991  -0.084604   0.000022   0.364888   0.364921
     9  C   -0.024580   0.549676   0.003770  -0.000001  -0.028499  -0.028549
    10  C   -0.045858  -0.036035   0.000009  -0.000000   0.003344  -0.004541
    11  C   -0.028860  -0.045851   0.000001   0.000000  -0.000212   0.000079
    12  C    0.551488  -0.040071  -0.000000  -0.000000   0.000017   0.000017
    13  C    4.812550   0.526533   0.000001   0.000000   0.000079  -0.000212
    14  C    0.526533   4.866195   0.000008  -0.000000  -0.004546   0.003335
    15  N    0.000001   0.000008   6.953503   0.003740  -0.000584  -0.000577
    16  H    0.000000  -0.000000   0.003740   0.556896  -0.000001  -0.000001
    17  H    0.000079  -0.004546  -0.000584  -0.000001   0.575845  -0.027432
    18  H   -0.000212   0.003335  -0.000577  -0.000001  -0.027432   0.575870
    19  H    0.000421   0.005542  -0.000038  -0.000000   0.000089   0.004710
    20  H    0.004574   0.000922  -0.000000   0.000000   0.000003  -0.000006
    21  H   -0.042737   0.005093   0.000000  -0.000000  -0.000000  -0.000000
    22  H    0.366035  -0.038343  -0.000000   0.000000  -0.000006   0.000003
    23  H   -0.042478   0.366521  -0.000037  -0.000000   0.004725   0.000089
              19         20         21         22         23
     1  Cl  -0.000000  -0.000000   0.000000  -0.000000  -0.000000
     2  C    0.000001   0.000000  -0.000000   0.000000   0.000001
     3  C   -0.000000  -0.000000   0.000000  -0.000000  -0.000000
     4  C   -0.000002  -0.000000  -0.000000  -0.000000  -0.000002
     5  Cl  -0.000000   0.000000   0.000000   0.000000   0.000000
     6  N    0.000279  -0.000001  -0.000000  -0.000001   0.000278
     7  C    0.000229  -0.000001   0.000000  -0.000001   0.000226
     8  C   -0.009279  -0.000186   0.000005  -0.000186  -0.009289
     9  C   -0.045360   0.004080   0.000732   0.004081  -0.045349
    10  C    0.366512  -0.038347   0.005094   0.000922   0.005544
    11  C   -0.042470   0.366040  -0.042739   0.004574   0.000421
    12  C    0.005013  -0.041794   0.368552  -0.041797   0.005013
    13  C    0.000421   0.004574  -0.042737   0.366035  -0.042478
    14  C    0.005542   0.000922   0.005093  -0.038343   0.366521
    15  N   -0.000038  -0.000000   0.000000  -0.000000  -0.000037
    16  H   -0.000000   0.000000  -0.000000   0.000000  -0.000000
    17  H    0.000089   0.000003  -0.000000  -0.000006   0.004725
    18  H    0.004710  -0.000006  -0.000000   0.000003   0.000089
    19  H    0.640270  -0.006171  -0.000204   0.000018  -0.000176
    20  H   -0.006171   0.632052  -0.006452  -0.000196   0.000018
    21  H   -0.000204  -0.006452   0.636571  -0.006453  -0.000204
    22  H    0.000018  -0.000196  -0.006453   0.632060  -0.006170
    23  H   -0.000176   0.000018  -0.000204  -0.006170   0.640250
 Mulliken charges:
               1
     1  Cl   0.050067
     2  C    0.108115
     3  C   -0.058857
     4  C    0.106419
     5  Cl   0.051894
     6  N   -0.426326
     7  C    0.411952
     8  C   -0.310095
     9  C    0.134651
    10  C   -0.107641
    11  C   -0.082950
    12  C   -0.083812
    13  C   -0.082950
    14  C   -0.107670
    15  N   -0.435153
    16  H    0.135570
    17  H    0.140951
    18  H    0.140932
    19  H    0.080617
    20  H    0.085464
    21  H    0.082741
    22  H    0.085460
    23  H    0.080620
 Sum of Mulliken charges =  -0.00000
 Mulliken charges with hydrogens summed into heavy atoms:
               1
     1  Cl   0.050067
     2  C    0.108115
     3  C    0.076714
     4  C    0.106419
     5  Cl   0.051894
     6  N   -0.426326
     7  C    0.411952
     8  C   -0.028212
     9  C    0.134651
    10  C   -0.027024
    11  C    0.002515
    12  C   -0.001071
    13  C    0.002509
    14  C   -0.027050
    15  N   -0.435153
 Electronic spatial extent (au):  <R**2>=           4984.6050
 Charge=             -0.0000 electrons
 Dipole moment (field-independent basis, Debye):
    X=             -0.0709    Y=              0.2720    Z=              0.0002  Tot=              0.2811
 Quadrupole moment (field-independent basis, Debye-Ang):
   XX=            -92.6462   YY=           -102.1604   ZZ=            -94.0696
   XY=             -3.2893   XZ=             -0.0023   YZ=             -0.0003
 Traceless Quadrupole moment (field-independent basis, Debye-Ang):
   XX=              3.6459   YY=             -5.8684   ZZ=              2.2224
   XY=             -3.2893   XZ=             -0.0023   YZ=             -0.0003
 Octapole moment (field-independent basis, Debye-Ang**2):
  XXX=            -15.4595  YYY=             16.1719  ZZZ=             -0.0007  XYY=            -10.9524
  XXY=             30.5547  XXZ=              0.0362  XZZ=              5.9591  YZZ=             -0.8127
  YYZ=              0.0080  XYZ=             -0.0121
 Hexadecapole moment (field-independent basis, Debye-Ang**3):
 XXXX=          -4683.5279 YYYY=          -1304.3996 ZZZZ=           -340.2727 XXXY=            106.7318
 XXXZ=              0.0225 YYYX=             -1.3109 YYYZ=              0.0017 ZZZX=              0.0153
 ZZZY=             -0.0120 XXYY=          -1073.3425 XXZZ=           -839.5072 YYZZ=           -284.0974
 XXYZ=             -0.0627 YYXZ=             -0.0459 ZZXY=              5.7148
 N-N= 1.072093132778D+03 E-N=-5.567973641496D+03  KE= 1.445807790563D+03
 Calling FoFJK, ICntrl=      2127 FMM=F ISym2X=0 I1Cent= 0 IOpClX= 0 NMat=1 NMatS=1 NMatT=0.
 ***** Axes restored to original set *****
 -------------------------------------------------------------------
 Center     Atomic                   Forces (Hartrees/Bohr)
 Number     Number              X              Y              Z
 -------------------------------------------------------------------
      1       17           0.000708907   -0.001010965   -0.006527848
      2        6          -0.020416804   -0.027087748    0.025948262
      3        6           0.002389384    0.004285222    0.000122905
      4        6          -0.015868190   -0.034446629   -0.018464945
      5       17          -0.000511368    0.001325537    0.006434749
      6        7           0.008870023    0.011693580   -0.011573936
      7        6           0.007361066    0.014045386    0.003162251
      8        6          -0.001264562    0.001664921    0.010552593
      9        6           0.005915127    0.005764287   -0.013286010
     10        6           0.003555187   -0.002518589    0.004992500
     11        6           0.003790916   -0.001017671   -0.001098901
     12        6          -0.000668515   -0.000347756    0.002112050
     13        6          -0.002223303    0.002425629   -0.002347941
     14        6          -0.005307803    0.002445646    0.003333622
     15        7           0.010129210    0.019211272    0.003689061
     16        1           0.001344952    0.002214724   -0.000461307
     17        1           0.003641745   -0.000102825   -0.002920256
     18        1          -0.000862929    0.002498580   -0.003802839
     19        1          -0.001049781    0.001924576   -0.003661297
     20        1          -0.003324990    0.000820657    0.001076238
     21        1          -0.001341993   -0.001163234    0.003456875
     22        1           0.001915622   -0.002147025    0.002104458
     23        1           0.003218097   -0.000477576   -0.002840287
 -------------------------------------------------------------------
 Cartesian Forces:  Max     0.034446629 RMS     0.008868075

 GradGradGradGradGradGradGradGradGradGradGradGradGradGradGradGradGradGrad
 Berny optimization.
 FormGI is forming the generalized inverse of G from B-inverse, IUseBI=4.
 Internal  Forces:  Max     0.032657266 RMS     0.005904077
 Search for a local minimum.
 Step number   1 out of a maximum of  124
 All quantities printed in internal units (Hartrees-Bohrs-Radians)
 Mixed Optimization -- RFO/linear search
 Second derivative matrix not updated -- first step.
 ITU=  0
     Eigenvalues ---    0.00400   0.00403   0.01266   0.01440   0.02128
     Eigenvalues ---    0.02138   0.02150   0.02153   0.02156   0.02168
     Eigenvalues ---    0.02170   0.02174   0.02178   0.02179   0.02181
     Eigenvalues ---    0.02182   0.02214   0.02231   0.04174   0.06151
     Eigenvalues ---    0.10630   0.13676   0.15999   0.15999   0.16000
     Eigenvalues ---    0.16000   0.16000   0.16000   0.22000   0.22000
     Eigenvalues ---    0.22017   0.23479   0.23535   0.24989   0.25000
     Eigenvalues ---    0.25000   0.25000   0.25000   0.25000   0.29640
     Eigenvalues ---    0.29660   0.33094   0.33109   0.34718   0.34731
     Eigenvalues ---    0.35916   0.35920   0.35927   0.35931   0.35936
     Eigenvalues ---    0.36169   0.42178   0.42326   0.43591   0.45254
     Eigenvalues ---    0.46179   0.46388   0.46741   0.46869   0.50266
     Eigenvalues ---    0.51099   0.53093   0.53297
 RFO step:  Lambda=-9.66307903D-03 EMin= 4.00004399D-03
 Linear search not attempted -- first point.
 Iteration  1 RMS(Cart)=  0.06704648 RMS(Int)=  0.00063576
 Iteration  2 RMS(Cart)=  0.00084656 RMS(Int)=  0.00014888
 Iteration  3 RMS(Cart)=  0.00000040 RMS(Int)=  0.00014888
 Variable       Old X    -DE/DX   Delta X   Delta X   Delta X     New X
                                 (Linear)    (Quad)   (Total)
    R1        3.25887   0.00592   0.00000   0.01739   0.01739   3.27626
    R2        2.63867  -0.00598   0.00000  -0.01079  -0.01074   2.62793
    R3        2.56753  -0.03266   0.00000  -0.06019  -0.06019   2.50734
    R4        2.63853  -0.00637   0.00000  -0.01167  -0.01162   2.62691
    R5        2.03818   0.00263   0.00000   0.00708   0.00708   2.04526
    R6        3.25861   0.00578   0.00000   0.01695   0.01695   3.27556
    R7        2.56616  -0.03114   0.00000  -0.05735  -0.05735   2.50881
    R8        2.57121  -0.02190   0.00000  -0.04243  -0.04248   2.52872
    R9        2.88687  -0.01163   0.00000  -0.03798  -0.03798   2.84888
   R10        2.56719  -0.01646   0.00000  -0.03200  -0.03206   2.53514
   R11        2.88646  -0.00846   0.00000  -0.02764  -0.02764   2.85882
   R12        2.06114   0.00319   0.00000   0.00895   0.00895   2.07009
   R13        2.06136   0.00311   0.00000   0.00872   0.00872   2.07007
   R14        2.64108  -0.00056   0.00000  -0.00155  -0.00154   2.63954
   R15        2.64096  -0.00054   0.00000  -0.00150  -0.00150   2.63947
   R16        2.63153   0.00293   0.00000   0.00612   0.00612   2.63765
   R17        2.04213   0.00386   0.00000   0.01046   0.01046   2.05258
   R18        2.63350   0.00107   0.00000   0.00258   0.00258   2.63608
   R19        2.04182   0.00358   0.00000   0.00971   0.00971   2.05153
   R20        2.63333   0.00111   0.00000   0.00267   0.00266   2.63599
   R21        2.04207   0.00388   0.00000   0.01052   0.01052   2.05259
   R22        2.63173   0.00287   0.00000   0.00600   0.00600   2.63773
   R23        2.04189   0.00356   0.00000   0.00964   0.00964   2.05153
   R24        2.04196   0.00391   0.00000   0.01060   0.01060   2.05257
    A1        2.08020   0.00211   0.00000   0.00581   0.00578   2.08598
    A2        2.07356  -0.00769   0.00000  -0.03193  -0.03196   2.04160
    A3        2.12943   0.00557   0.00000   0.02613   0.02618   2.15560
    A4        2.04871  -0.01164   0.00000  -0.04155  -0.04144   2.00726
    A5        2.11779   0.00567   0.00000   0.01992   0.01987   2.13765
    A6        2.11669   0.00597   0.00000   0.02163   0.02158   2.13827
    A7        2.08039   0.00193   0.00000   0.00530   0.00528   2.08567
    A8        2.12860   0.00648   0.00000   0.02923   0.02928   2.15788
    A9        2.07420  -0.00841   0.00000  -0.03453  -0.03456   2.03964
   A10        2.03450  -0.00375   0.00000  -0.01815  -0.01822   2.01628
   A11        2.07601  -0.00488   0.00000  -0.01610  -0.01606   2.05995
   A12        2.19128   0.00672   0.00000   0.02049   0.02041   2.21169
   A13        2.01590  -0.00184   0.00000  -0.00439  -0.00435   2.01155
   A14        2.04439  -0.00764   0.00000  -0.03603  -0.03595   2.00843
   A15        1.88594  -0.00032   0.00000  -0.01400  -0.01377   1.87217
   A16        1.88602  -0.00034   0.00000  -0.01407  -0.01384   1.87218
   A17        1.89899   0.00473   0.00000   0.03007   0.02954   1.92853
   A18        1.89879   0.00476   0.00000   0.03035   0.02982   1.92861
   A19        1.83902  -0.00062   0.00000   0.00743   0.00666   1.84569
   A20        2.09332   0.00194   0.00000   0.00844   0.00836   2.10168
   A21        2.09336   0.00196   0.00000   0.00851   0.00842   2.10178
   A22        2.09613  -0.00388   0.00000  -0.01637  -0.01643   2.07970
   A23        2.09340   0.00252   0.00000   0.00989   0.00989   2.10329
   A24        2.10246  -0.00311   0.00000  -0.01582  -0.01583   2.08663
   A25        2.08727   0.00059   0.00000   0.00599   0.00598   2.09325
   A26        2.08889   0.00129   0.00000   0.00598   0.00598   2.09487
   A27        2.09689  -0.00058   0.00000  -0.00260  -0.00260   2.09429
   A28        2.09740  -0.00071   0.00000  -0.00337  -0.00337   2.09403
   A29        2.10563  -0.00375   0.00000  -0.01528  -0.01529   2.09034
   A30        2.08873   0.00188   0.00000   0.00767   0.00767   2.09640
   A31        2.08883   0.00187   0.00000   0.00762   0.00762   2.09645
   A32        2.08894   0.00129   0.00000   0.00594   0.00594   2.09489
   A33        2.09740  -0.00071   0.00000  -0.00334  -0.00335   2.09405
   A34        2.09684  -0.00058   0.00000  -0.00259  -0.00259   2.09425
   A35        2.09333   0.00253   0.00000   0.00994   0.00995   2.10328
   A36        2.10256  -0.00312   0.00000  -0.01586  -0.01587   2.08668
   A37        2.08726   0.00059   0.00000   0.00598   0.00597   2.09322
   A38        2.03386  -0.00338   0.00000  -0.01614  -0.01621   2.01765
    D1        3.14159   0.00000   0.00000  -0.00000  -0.00000   3.14159
    D2        0.00009  -0.00000   0.00000  -0.00006  -0.00006   0.00004
    D3       -0.00006   0.00000   0.00000   0.00009   0.00009   0.00003
    D4       -3.14155   0.00000   0.00000   0.00004   0.00004  -3.14151
    D5       -3.14152  -0.00000   0.00000  -0.00006  -0.00006  -3.14158
    D6        0.00012  -0.00000   0.00000  -0.00015  -0.00015  -0.00003
    D7       -3.14157  -0.00000   0.00000  -0.00002  -0.00002   3.14159
    D8        0.00008  -0.00000   0.00000  -0.00009  -0.00009  -0.00001
    D9       -0.00008   0.00000   0.00000   0.00003   0.00003  -0.00005
   D10        3.14158  -0.00000   0.00000  -0.00003  -0.00003   3.14154
   D11       -0.00017   0.00000   0.00000   0.00014   0.00014  -0.00002
   D12        3.14149   0.00000   0.00000   0.00008   0.00008   3.14156
   D13        3.14141   0.00000   0.00000   0.00007   0.00007   3.14149
   D14        0.00025  -0.00001   0.00000  -0.00022  -0.00022   0.00003
   D15        0.00273  -0.00001   0.00000  -0.00018  -0.00018   0.00255
   D16       -2.14808  -0.00052   0.00000  -0.00269  -0.00286  -2.15094
   D17        2.15333   0.00053   0.00000   0.00264   0.00281   2.15614
   D18       -3.13925  -0.00000   0.00000   0.00009   0.00009  -3.13917
   D19        0.99312  -0.00052   0.00000  -0.00242  -0.00259   0.99053
   D20       -0.98865   0.00053   0.00000   0.00291   0.00308  -0.98557
   D21       -0.00023   0.00001   0.00000   0.00022   0.00023  -0.00001
   D22       -3.14141   0.00000   0.00000  -0.00006  -0.00006  -3.14147
   D23        1.58423  -0.00025   0.00000  -0.01125  -0.01134   1.57289
   D24       -1.58668   0.00025   0.00000   0.01136   0.01145  -1.57523
   D25       -2.55483  -0.00238   0.00000  -0.03163  -0.03222  -2.58705
   D26        0.55744  -0.00189   0.00000  -0.00902  -0.00942   0.54802
   D27       -0.55983   0.00189   0.00000   0.00899   0.00940  -0.55043
   D28        2.55244   0.00238   0.00000   0.03160   0.03219   2.58463
   D29        3.12218   0.00027   0.00000   0.01095   0.01090   3.13309
   D30       -0.02990   0.00050   0.00000   0.01819   0.01810  -0.01180
   D31        0.00996  -0.00033   0.00000  -0.01212  -0.01202  -0.00206
   D32        3.14106  -0.00010   0.00000  -0.00488  -0.00483   3.13623
   D33       -3.12212  -0.00027   0.00000  -0.01099  -0.01095  -3.13307
   D34        0.02982  -0.00049   0.00000  -0.01810  -0.01801   0.01181
   D35       -0.00990   0.00033   0.00000   0.01207   0.01198   0.00208
   D36       -3.14114   0.00010   0.00000   0.00497   0.00492  -3.13623
   D37       -0.00494   0.00012   0.00000   0.00498   0.00501   0.00006
   D38        3.13392   0.00027   0.00000   0.00937   0.00939  -3.13988
   D39       -3.13614  -0.00008   0.00000  -0.00206  -0.00208  -3.13822
   D40        0.00272   0.00007   0.00000   0.00233   0.00231   0.00503
   D41       -0.00012   0.00005   0.00000   0.00205   0.00205   0.00193
   D42        3.13889   0.00016   0.00000   0.00502   0.00502  -3.13928
   D43       -3.13898  -0.00010   0.00000  -0.00234  -0.00233  -3.14131
   D44        0.00003   0.00001   0.00000   0.00063   0.00063   0.00066
   D45        0.00018  -0.00005   0.00000  -0.00209  -0.00209  -0.00191
   D46        3.13895   0.00010   0.00000   0.00234   0.00234   3.14129
   D47       -3.13883  -0.00016   0.00000  -0.00506  -0.00506   3.13930
   D48       -0.00006  -0.00001   0.00000  -0.00063  -0.00063  -0.00068
   D49        0.00482  -0.00012   0.00000  -0.00490  -0.00493  -0.00011
   D50        3.13616   0.00008   0.00000   0.00202   0.00204   3.13819
   D51       -3.13395  -0.00027   0.00000  -0.00933  -0.00936   3.13988
   D52       -0.00262  -0.00007   0.00000  -0.00241  -0.00239  -0.00501
         Item               Value     Threshold  Converged?
 Maximum Force            0.032657     0.000450     NO 
 RMS     Force            0.005904     0.000300     NO 
 Maximum Displacement     0.281098     0.001800     NO 
 RMS     Displacement     0.067140     0.001200     NO 
 Predicted change in Energy=-4.984865D-03
 GradGradGradGradGradGradGradGradGradGradGradGradGradGradGradGradGradGrad

                          Input orientation:                          
 ---------------------------------------------------------------------
 Center     Atomic      Atomic             Coordinates (Angstroms)
 Number     Number       Type             X           Y           Z
 ---------------------------------------------------------------------
      1         17           0        3.524046    0.806416   -3.096000
      2          6           0        2.964593    0.366185   -1.515175
      3          6           0        3.227607    1.204463   -0.437215
      4          6           0        2.736686    0.761144    0.785427
      5         17           0        2.998631    1.716849    2.207581
      6          7           0        2.064210   -0.373016    0.940312
      7          6           0        1.877366   -1.089402   -0.174367
      8          6           0        1.120316   -2.388338   -0.063048
      9          6           0        0.645835   -2.736470    1.330620
     10          6           0       -0.609965   -2.316919    1.775528
     11          6           0       -1.053827   -2.645649    3.057376
     12          6           0       -0.241759   -3.398667    3.905552
     13          6           0        1.014513   -3.818953    3.468625
     14          6           0        1.454701   -3.488095    2.186011
     15          7           0        2.297300   -0.775733   -1.409270
     16          1           0        3.773836    2.132845   -0.542686
     17          1           0        1.770153   -3.178102   -0.455455
     18          1           0        0.272116   -2.330590   -0.753844
     19          1           0       -1.242219   -1.727844    1.117474
     20          1           0       -2.032062   -2.316530    3.393994
     21          1           0       -0.586628   -3.657120    4.902578
     22          1           0        1.649456   -4.404901    4.125962
     23          1           0        2.434496   -3.813472    1.848518
 ---------------------------------------------------------------------
                    Distance matrix (angstroms):
                    1          2          3          4          5
     1  Cl   0.000000
     2  C    1.733724   0.000000
     3  C    2.704711   1.390641   0.000000
     4  C    3.960741   2.345358   1.390103   0.000000
     5  Cl   5.406749   3.960349   2.703686   1.733352   0.000000
     6  N    4.451292   2.717816   2.395727   1.327604   2.616611
     7  C    3.852483   2.258000   2.674707   2.254808   3.847852
     8  C    5.018284   3.619037   4.181972   3.640302   5.053354
     9  C    6.358546   4.806418   5.032070   4.111228   5.112412
    10  C    7.111755   5.550247   5.658915   4.653477   5.429542
    11  C    8.410572   6.791691   6.735444   5.579963   6.014646
    12  C    8.993650   7.337512   7.216988   5.992524   6.289017
    13  C    8.413448   6.793854   6.737067   5.580566   6.014322
    14  C    7.115100   5.552839   5.660795   4.654154   5.429146
    15  N    2.617854   1.326829   2.394063   2.715097   4.448196
    16  H    2.888118   2.172946   1.082305   2.172815   2.887553
    17  H    5.091660   3.887373   4.618591   4.241655   5.706266
    18  H    5.089357   3.886085   4.618633   4.242909   5.708387
    19  H    6.847855   5.386378   5.567299   4.704997   5.571270
    20  H    9.096327   7.500898   7.398626   6.246412   6.556188
    21  H   10.039823   8.365746   8.166809   6.893215   6.999760
    22  H    9.101025   7.504350   7.401223   6.247341   6.555630
    23  H    6.854104   5.391193   5.570751   4.706229   5.570604
                    6          7          8          9         10
     6  N    0.000000
     7  C    1.338144   0.000000
     8  C    2.441145   1.507564   0.000000
     9  C    2.783890   2.548428   1.512825   0.000000
    10  C    3.409921   3.390531   2.525734   1.396782   0.000000
    11  C    4.401020   4.632274   3.811844   2.424621   1.395783
    12  C    4.823350   5.144816   4.315762   2.802963   2.417180
    13  C    4.400990   4.633179   3.811898   2.424615   2.785967
    14  C    3.409836   3.391718   2.525776   1.396745   2.408941
    15  N    2.395213   1.341536   2.407924   3.752176   4.579343
    16  H    3.376602   3.757012   5.264249   6.083082   6.662749
    17  H    3.146926   2.110254   1.095445   2.156199   3.374001
    18  H    3.148628   2.110253   1.095434   2.156246   2.678801
    19  H    3.577627   3.436316   2.722398   2.151163   1.086180
    20  H    5.155313   5.433477   4.679079   3.406611   2.154482
    21  H    5.788941   6.199985   5.401935   3.889144   3.402224
    22  H    5.155239   5.434823   4.679136   3.406589   3.871588
    23  H    3.577525   3.438460   2.722528   2.151153   3.393191
                   11         12         13         14         15
    11  C    0.000000
    12  C    1.394953   0.000000
    13  C    2.413254   1.394907   0.000000
    14  C    2.785984   2.417188   1.395826   0.000000
    15  N    5.888766   6.447785   5.890721   4.581804   0.000000
    16  H    7.687703   8.155332   7.689498   6.664768   3.375049
    17  H    4.538541   4.807788   4.047231   2.678236   2.637996
    18  H    4.047565   4.807788   4.538239   3.373584   2.636007
    19  H    2.154316   3.400874   3.872142   3.393174   4.451870
    20  H    1.085622   2.153578   3.397715   3.871603   6.647464
    21  H    2.155486   1.086183   2.155473   3.402254   7.513911
    22  H    3.397732   2.153551   1.085624   2.154501   6.650515
    23  H    3.872150   3.400852   2.154328   1.086172   4.456440
                   16         17         18         19         20
    16  H    0.000000
    17  H    5.677016   0.000000
    18  H    5.677048   1.746833   0.000000
    19  H    6.543841   3.694826   2.481601   0.000000
    20  H    8.306795   5.478814   4.744892   2.480514   0.000000
    21  H    9.065773   5.873022   5.873009   4.298711   2.482396
    22  H    8.309716   4.744363   5.478351   4.957763   4.295422
    23  H    6.547547   2.480592   3.694200   4.289813   4.957769
                   21         22         23
    21  H    0.000000
    22  H    2.482415   0.000000
    23  H    4.298712   2.480489   0.000000
 Stoichiometry    C11H8Cl2N2
 Framework group  C1[X(C11H8Cl2N2)]
 Deg. of freedom    63
 Full point group                 C1      NOp   1
 Largest Abelian subgroup         C1      NOp   1
 Largest concise Abelian subgroup C1      NOp   1
                         Standard orientation:                         
 ---------------------------------------------------------------------
 Center     Atomic      Atomic             Coordinates (Angstroms)
 Number     Number       Type             X           Y           Z
 ---------------------------------------------------------------------
      1         17           0       -4.227855   -1.322987    0.001420
      2          6           0       -2.663919   -0.574720    0.000196
      3          6           0       -2.568142    0.812619    0.000719
      4          6           0       -1.270880    1.312114   -0.000341
      5         17           0       -1.016430    3.026689    0.000170
      6          7           0       -0.187425    0.544875   -0.001746
      7          6           0       -0.414715   -0.773824   -0.002073
      8          6           0        0.776399   -1.697942   -0.003791
      9          6           0        2.122900   -1.008328   -0.001484
     10          6           0        2.752931   -0.691155    1.204113
     11          6           0        3.999888   -0.064026    1.208472
     12          6           0        4.626970    0.251123    0.002925
     13          6           0        4.002426   -0.060584   -1.204778
     14          6           0        2.755415   -0.687716   -1.204824
     15          7           0       -1.610659   -1.381638   -0.001166
     16          1           0       -3.438971    1.455301    0.001906
     17          1           0        0.680859   -2.349922   -0.878888
     18          1           0        0.680010   -2.354273    0.867940
     19          1           0        2.264582   -0.933026    2.143688
     20          1           0        4.482734    0.177248    2.150398
     21          1           0        5.598317    0.737204    0.004655
     22          1           0        4.487208    0.183376   -2.145018
     23          1           0        2.269060   -0.926870   -2.146119
 ---------------------------------------------------------------------
 Rotational constants (GHZ):           0.8197075           0.2589699           0.2116067
 Standard basis: 6-31G(d,p) (6D, 7F)
 There are   273 symmetry adapted cartesian basis functions of A   symmetry.
 There are   273 symmetry adapted basis functions of A   symmetry.
   273 basis functions,   524 primitive gaussians,   273 cartesian basis functions
    61 alpha electrons       61 beta electrons
       nuclear repulsion energy      1083.6377842669 Hartrees.
 NAtoms=   23 NActive=   23 NUniq=   23 SFac= 1.00D+00 NAtFMM=   60 NAOKFM=F Big=F
 Integral buffers will be    131072 words long.
 Raffenetti 2 integral format.
 Two-electron integral symmetry is turned on.
 Nuclear repulsion after empirical dispersion term =     1083.5847015588 Hartrees.
 One-electron integrals computed using PRISM.
 NBasis=   273 RedAO= T EigKep=  4.63D-04  NBF=   273
 NBsUse=   273 1.00D-06 EigRej= -1.00D+00 NBFU=   273
 Initial guess from the checkpoint file:  "pyrmd2_conf-2.chk"
 B after Tr=    -0.000000   -0.000000   -0.000000
         Rot=    0.999923    0.000017    0.000002    0.012380 Ang=   1.42 deg.
 ExpMin= 1.43D-01 ExpMax= 2.52D+04 ExpMxC= 3.78D+03 IAcc=3 IRadAn=         5 AccDes= 0.00D+00
 Harris functional with IExCor=  402 and IRadAn=       5 diagonalized for initial guess.
 HarFok:  IExCor=  402 AccDes= 0.00D+00 IRadAn=         5 IDoV= 1 UseB2=F ITyADJ=14
 ICtDFT=  3500011 ScaDFX=  1.000000  1.000000  1.000000  1.000000
 FoFCou: FMM=F IPFlag=           0 FMFlag=      100000 FMFlg1=           0
         NFxFlg=           0 DoJE=T BraDBF=F KetDBF=T FulRan=T
         wScrn=  0.000000 ICntrl=       500 IOpCl=  0 I1Cent=   200000004 NGrid=           0
         NMat0=    1 NMatS0=      1 NMatT0=    0 NMatD0=    1 NMtDS0=    0 NMtDT0=    0
 Petite list used in FoFCou.
 Requested convergence on RMS density matrix=1.00D-08 within 128 cycles.
 Requested convergence on MAX density matrix=1.00D-06.
 Requested convergence on             energy=1.00D-06.
 No special actions if energy rises.
 Integral accuracy reduced to 1.0D-05 until final iterations.
 Initial convergence to 1.0D-05 achieved.  Increase integral accuracy.
 SCF Done:  E(RB3LYP) =  -1453.95253341     A.U. after   12 cycles
            NFock= 12  Conv=0.73D-08     -V/T= 2.0054
 Calling FoFJK, ICntrl=      2127 FMM=F ISym2X=0 I1Cent= 0 IOpClX= 0 NMat=1 NMatS=1 NMatT=0.
 ***** Axes restored to original set *****
 -------------------------------------------------------------------
 Center     Atomic                   Forces (Hartrees/Bohr)
 Number     Number              X              Y              Z
 -------------------------------------------------------------------
      1       17           0.002361324    0.002244942   -0.005553822
      2        6          -0.004789239   -0.007023676    0.004144155
      3        6           0.003672077    0.006573306    0.000239556
      4        6          -0.002831721   -0.006185237   -0.003402718
      5       17           0.001291630    0.003985837    0.004918850
      6        7           0.003287426    0.004570846   -0.003547201
      7        6          -0.003603522   -0.005507407    0.002436735
      8        6          -0.002779629   -0.003480520    0.004002395
      9        6           0.000716647   -0.000234724   -0.004285413
     10        6          -0.000718684   -0.000627812    0.002625959
     11        6           0.000511403    0.000549400   -0.001125525
     12        6          -0.000122251   -0.000007408    0.000474110
     13        6           0.000575447    0.000526120   -0.001138673
     14        6          -0.000961563   -0.000505202    0.002606537
     15        7           0.003619090    0.006460231    0.000196572
     16        1          -0.000464119   -0.000790583    0.000087086
     17        1           0.000024434   -0.000144678   -0.000713444
     18        1           0.000088838   -0.000175584   -0.000701400
     19        1          -0.000235542   -0.000037099   -0.000305835
     20        1          -0.000163005    0.000154376   -0.000246711
     21        1           0.000074520    0.000014436   -0.000323193
     22        1           0.000275236   -0.000095030   -0.000159065
     23        1           0.000171205   -0.000264532   -0.000228952
 -------------------------------------------------------------------
 Cartesian Forces:  Max     0.007023676 RMS     0.002726032

 GradGradGradGradGradGradGradGradGradGradGradGradGradGradGradGradGradGrad
 Berny optimization.
 Using GEDIIS/GDIIS optimizer.
 FormGI is forming the generalized inverse of G from B-inverse, IUseBI=4.
 Internal  Forces:  Max     0.006720360 RMS     0.001526053
 Search for a local minimum.
 Step number   2 out of a maximum of  124
 All quantities printed in internal units (Hartrees-Bohrs-Radians)
 Mixed Optimization -- RFO/linear search
 Update second derivatives using D2CorX and points    1    2
 DE= -4.86D-03 DEPred=-4.98D-03 R= 9.75D-01
 TightC=F SS=  1.41D+00  RLast= 1.75D-01 DXNew= 5.0454D-01 5.2391D-01
 Trust test= 9.75D-01 RLast= 1.75D-01 DXMaxT set to 5.05D-01
 ITU=  1  0
 Use linear search instead of GDIIS.
     Eigenvalues ---    0.00400   0.00403   0.01282   0.01426   0.02127
     Eigenvalues ---    0.02138   0.02150   0.02154   0.02157   0.02168
     Eigenvalues ---    0.02170   0.02174   0.02177   0.02178   0.02181
     Eigenvalues ---    0.02182   0.02213   0.02231   0.04410   0.06212
     Eigenvalues ---    0.10267   0.13486   0.15954   0.16000   0.16000
     Eigenvalues ---    0.16000   0.16000   0.16013   0.20803   0.22000
     Eigenvalues ---    0.22001   0.22250   0.23497   0.24931   0.24999
     Eigenvalues ---    0.25000   0.25000   0.25000   0.26954   0.29248
     Eigenvalues ---    0.30958   0.32260   0.33101   0.34723   0.34766
     Eigenvalues ---    0.35912   0.35922   0.35929   0.35934   0.36040
     Eigenvalues ---    0.36335   0.42259   0.42269   0.43505   0.45149
     Eigenvalues ---    0.46182   0.46364   0.46742   0.46901   0.50243
     Eigenvalues ---    0.51525   0.52905   0.57483
 RFO step:  Lambda=-9.23963940D-04 EMin= 4.00004370D-03
 Quartic linear search produced a step of -0.01651.
 Iteration  1 RMS(Cart)=  0.01144981 RMS(Int)=  0.00005227
 Iteration  2 RMS(Cart)=  0.00009001 RMS(Int)=  0.00001360
 Iteration  3 RMS(Cart)=  0.00000000 RMS(Int)=  0.00001360
 Variable       Old X    -DE/DX   Delta X   Delta X   Delta X     New X
                                 (Linear)    (Quad)   (Total)
    R1        3.27626   0.00640  -0.00029   0.02089   0.02060   3.29687
    R2        2.62793   0.00256   0.00018   0.00430   0.00446   2.63239
    R3        2.50734  -0.00146   0.00099  -0.00939  -0.00840   2.49894
    R4        2.62691   0.00122   0.00019   0.00136   0.00154   2.62846
    R5        2.04526  -0.00092  -0.00012  -0.00171  -0.00182   2.04344
    R6        3.27556   0.00643  -0.00028   0.02093   0.02065   3.29621
    R7        2.50881  -0.00005   0.00095  -0.00646  -0.00551   2.50330
    R8        2.52872   0.00138   0.00070  -0.00222  -0.00151   2.52721
    R9        2.84888   0.00504   0.00063   0.01242   0.01305   2.86193
   R10        2.53514   0.00298   0.00053   0.00187   0.00241   2.53754
   R11        2.85882  -0.00186   0.00046  -0.00924  -0.00878   2.85004
   R12        2.07009   0.00037  -0.00015   0.00206   0.00191   2.07200
   R13        2.07007   0.00036  -0.00014   0.00200   0.00186   2.07193
   R14        2.63954   0.00076   0.00003   0.00147   0.00150   2.64103
   R15        2.63947   0.00077   0.00002   0.00149   0.00152   2.64099
   R16        2.63765  -0.00147  -0.00010  -0.00239  -0.00249   2.63516
   R17        2.05258   0.00030  -0.00017   0.00199   0.00182   2.05440
   R18        2.63608   0.00017  -0.00004   0.00063   0.00058   2.63666
   R19        2.05153   0.00012  -0.00016   0.00140   0.00124   2.05277
   R20        2.63599   0.00019  -0.00004   0.00068   0.00063   2.63662
   R21        2.05259  -0.00032  -0.00017   0.00029   0.00012   2.05271
   R22        2.63773  -0.00148  -0.00010  -0.00244  -0.00254   2.63519
   R23        2.05153   0.00012  -0.00016   0.00139   0.00123   2.05277
   R24        2.05257   0.00030  -0.00018   0.00202   0.00184   2.05441
    A1        2.08598  -0.00179  -0.00010  -0.00653  -0.00661   2.07937
    A2        2.04160   0.00065   0.00053  -0.00122  -0.00069   2.04091
    A3        2.15560   0.00114  -0.00043   0.00775   0.00730   2.16291
    A4        2.00726  -0.00298   0.00068  -0.01737  -0.01671   1.99055
    A5        2.13765   0.00149  -0.00033   0.00858   0.00826   2.14591
    A6        2.13827   0.00149  -0.00036   0.00880   0.00845   2.14672
    A7        2.08567  -0.00145  -0.00009  -0.00525  -0.00533   2.08034
    A8        2.15788   0.00076  -0.00048   0.00662   0.00613   2.16401
    A9        2.03964   0.00069   0.00057  -0.00137  -0.00080   2.03884
   A10        2.01628   0.00409   0.00030   0.01419   0.01451   2.03080
   A11        2.05995   0.00416   0.00027   0.01450   0.01476   2.07471
   A12        2.21169  -0.00672  -0.00034  -0.02402  -0.02434   2.18735
   A13        2.01155   0.00256   0.00007   0.00952   0.00958   2.02113
   A14        2.00843   0.00100   0.00059   0.00167   0.00226   2.01069
   A15        1.87217  -0.00046   0.00023  -0.00395  -0.00374   1.86844
   A16        1.87218  -0.00046   0.00023  -0.00395  -0.00373   1.86845
   A17        1.92853   0.00004  -0.00049   0.00534   0.00487   1.93340
   A18        1.92861   0.00005  -0.00049   0.00543   0.00494   1.93355
   A19        1.84569  -0.00029  -0.00011  -0.00563  -0.00575   1.83993
   A20        2.10168   0.00048  -0.00014   0.00285   0.00265   2.10433
   A21        2.10178   0.00049  -0.00014   0.00288   0.00267   2.10445
   A22        2.07970  -0.00097   0.00027  -0.00562  -0.00538   2.07433
   A23        2.10329   0.00051  -0.00016   0.00333   0.00318   2.10648
   A24        2.08663  -0.00031   0.00026  -0.00323  -0.00298   2.08365
   A25        2.09325  -0.00020  -0.00010  -0.00010  -0.00021   2.09305
   A26        2.09487   0.00004  -0.00010   0.00073   0.00064   2.09551
   A27        2.09429  -0.00034   0.00004  -0.00228  -0.00224   2.09205
   A28        2.09403   0.00030   0.00006   0.00154   0.00160   2.09562
   A29        2.09034  -0.00014   0.00025  -0.00251  -0.00227   2.08807
   A30        2.09640   0.00007  -0.00013   0.00127   0.00114   2.09754
   A31        2.09645   0.00007  -0.00013   0.00124   0.00112   2.09756
   A32        2.09489   0.00004  -0.00010   0.00072   0.00062   2.09551
   A33        2.09405   0.00030   0.00006   0.00154   0.00159   2.09564
   A34        2.09425  -0.00034   0.00004  -0.00226  -0.00222   2.09203
   A35        2.10328   0.00051  -0.00016   0.00335   0.00320   2.10648
   A36        2.08668  -0.00031   0.00026  -0.00327  -0.00301   2.08367
   A37        2.09322  -0.00020  -0.00010  -0.00008  -0.00019   2.09303
   A38        2.01765   0.00370   0.00027   0.01283   0.01311   2.03075
    D1        3.14159   0.00000   0.00000   0.00005   0.00005  -3.14155
    D2        0.00004   0.00000   0.00000  -0.00000   0.00000   0.00004
    D3        0.00003   0.00000  -0.00000   0.00003   0.00003   0.00006
    D4       -3.14151  -0.00000  -0.00000  -0.00002  -0.00002  -3.14153
    D5       -3.14158  -0.00000   0.00000  -0.00001  -0.00001  -3.14159
    D6       -0.00003   0.00000   0.00000   0.00001   0.00001  -0.00002
    D7        3.14159  -0.00000   0.00000  -0.00005  -0.00005   3.14155
    D8       -0.00001  -0.00000   0.00000  -0.00004  -0.00004  -0.00005
    D9       -0.00005   0.00000  -0.00000   0.00000   0.00000  -0.00004
   D10        3.14154   0.00000   0.00000   0.00001   0.00001   3.14155
   D11       -0.00002   0.00000  -0.00000   0.00001   0.00001  -0.00001
   D12        3.14156   0.00000  -0.00000   0.00002   0.00002   3.14158
   D13        3.14149  -0.00000  -0.00000  -0.00015  -0.00015   3.14133
   D14        0.00003   0.00000   0.00000   0.00003   0.00004   0.00007
   D15        0.00255   0.00000   0.00000   0.00036   0.00037   0.00292
   D16       -2.15094  -0.00038   0.00005  -0.00468  -0.00462  -2.15556
   D17        2.15614   0.00039  -0.00005   0.00552   0.00546   2.16160
   D18       -3.13917  -0.00000  -0.00000   0.00020   0.00019  -3.13897
   D19        0.99053  -0.00038   0.00004  -0.00485  -0.00479   0.98574
   D20       -0.98557   0.00039  -0.00005   0.00535   0.00528  -0.98029
   D21       -0.00001  -0.00000  -0.00000  -0.00005  -0.00005  -0.00005
   D22       -3.14147   0.00000   0.00000   0.00014   0.00014  -3.14133
   D23        1.57289  -0.00012   0.00019  -0.00974  -0.00958   1.56330
   D24       -1.57523   0.00013  -0.00019   0.00993   0.00977  -1.56547
   D25       -2.58705   0.00002   0.00053  -0.00959  -0.00907  -2.59612
   D26        0.54802   0.00028   0.00016   0.01009   0.01028   0.55830
   D27       -0.55043  -0.00027  -0.00016  -0.00997  -0.01016  -0.56060
   D28        2.58463  -0.00002  -0.00053   0.00970   0.00919   2.59382
   D29        3.13309   0.00037  -0.00018   0.02085   0.02065  -3.12944
   D30       -0.01180   0.00034  -0.00030   0.02058   0.02026   0.00845
   D31       -0.00206   0.00012   0.00020   0.00139   0.00161  -0.00046
   D32        3.13623   0.00009   0.00008   0.00112   0.00121   3.13744
   D33       -3.13307  -0.00038   0.00018  -0.02087  -0.02067   3.12945
   D34        0.01181  -0.00034   0.00030  -0.02053  -0.02022  -0.00841
   D35        0.00208  -0.00012  -0.00020  -0.00141  -0.00162   0.00046
   D36       -3.13623  -0.00009  -0.00008  -0.00108  -0.00117  -3.13740
   D37        0.00006  -0.00005  -0.00008  -0.00062  -0.00071  -0.00064
   D38       -3.13988  -0.00002  -0.00016   0.00116   0.00100  -3.13887
   D39       -3.13822  -0.00002   0.00003  -0.00033  -0.00030  -3.13852
   D40        0.00503   0.00002  -0.00004   0.00145   0.00141   0.00643
   D41        0.00193  -0.00002  -0.00003  -0.00016  -0.00020   0.00174
   D42       -3.13928   0.00005  -0.00008   0.00268   0.00260  -3.13667
   D43       -3.14131  -0.00006   0.00004  -0.00194  -0.00191   3.13996
   D44        0.00066   0.00002  -0.00001   0.00090   0.00089   0.00155
   D45       -0.00191   0.00002   0.00003   0.00014   0.00018  -0.00173
   D46        3.14129   0.00006  -0.00004   0.00195   0.00192  -3.13998
   D47        3.13930  -0.00005   0.00008  -0.00270  -0.00262   3.13668
   D48       -0.00068  -0.00002   0.00001  -0.00090  -0.00088  -0.00157
   D49       -0.00011   0.00005   0.00008   0.00065   0.00074   0.00064
   D50        3.13819   0.00002  -0.00003   0.00031   0.00028   3.13847
   D51        3.13988   0.00002   0.00015  -0.00115  -0.00099   3.13889
   D52       -0.00501  -0.00002   0.00004  -0.00150  -0.00145  -0.00646
         Item               Value     Threshold  Converged?
 Maximum Force            0.006720     0.000450     NO 
 RMS     Force            0.001526     0.000300     NO 
 Maximum Displacement     0.036390     0.001800     NO 
 RMS     Displacement     0.011429     0.001200     NO 
 Predicted change in Energy=-4.645658D-04
 GradGradGradGradGradGradGradGradGradGradGradGradGradGradGradGradGradGrad

                          Input orientation:                          
 ---------------------------------------------------------------------
 Center     Atomic      Atomic             Coordinates (Angstroms)
 Number     Number       Type             X           Y           Z
 ---------------------------------------------------------------------
      1         17           0        3.528077    0.813325   -3.099448
      2          6           0        2.966066    0.371756   -1.507944
      3          6           0        3.234879    1.218062   -0.434650
      4          6           0        2.739211    0.764156    0.783110
      5         17           0        3.000018    1.721283    2.217823
      6          7           0        2.068482   -0.368182    0.933875
      7          6           0        1.873803   -1.094663   -0.171934
      8          6           0        1.113891   -2.400292   -0.064772
      9          6           0        0.637521   -2.754205    1.321740
     10          6           0       -0.615272   -2.329654    1.772831
     11          6           0       -1.052287   -2.643156    3.059405
     12          6           0       -0.237504   -3.388679    3.912090
     13          6           0        1.015319   -3.815619    3.470671
     14          6           0        1.447443   -3.499332    2.183109
     15          7           0        2.300892   -0.766222   -1.401918
     16          1           0        3.780627    2.145686   -0.539397
     17          1           0        1.766337   -3.185798   -0.464158
     18          1           0        0.270179   -2.339470   -0.762327
[...]
 Alpha  occ. eigenvalues --   -9.82807  -9.82651  -7.55001  -7.54846  -7.54496
 Alpha  occ. eigenvalues --   -7.54455  -7.54341  -7.54298  -1.13992  -1.04842
 Alpha  occ. eigenvalues --   -0.99009  -0.96442  -0.94961  -0.90439  -0.87365
 Alpha  occ. eigenvalues --   -0.84344  -0.81325  -0.73533  -0.73260  -0.69193
 Alpha  occ. eigenvalues --   -0.66862  -0.63467  -0.60454  -0.58814  -0.56205
 Alpha  occ. eigenvalues --   -0.55179  -0.53000  -0.52984  -0.51055  -0.49758
 Alpha  occ. eigenvalues --   -0.48925  -0.47667  -0.47317  -0.46526  -0.43362
 Alpha  occ. eigenvalues --   -0.41553  -0.41232  -0.40484  -0.40011  -0.39800
 Alpha  occ. eigenvalues --   -0.39500  -0.36737  -0.35435  -0.34270  -0.30884
 Alpha  occ. eigenvalues --   -0.30255
 Alpha virt. eigenvalues --   -0.03176  -0.02328   0.01729   0.02085   0.04150
 Alpha virt. eigenvalues --    0.06176   0.08639   0.08979   0.09906   0.10342
 Alpha virt. eigenvalues --    0.11958   0.12592   0.12767   0.13777   0.14816
 Alpha virt. eigenvalues --    0.15276   0.16811   0.17427   0.18367   0.19025
 Alpha virt. eigenvalues --    0.19676   0.21056   0.21559   0.22496   0.23947
 Alpha virt. eigenvalues --    0.24284   0.25169   0.25452   0.26428   0.26947
 Alpha virt. eigenvalues --    0.27517   0.27761   0.28649   0.29146   0.29725
 Alpha virt. eigenvalues --    0.30443   0.30628   0.31495   0.31925   0.32465
 Alpha virt. eigenvalues --    0.33696   0.34410   0.34880   0.34965   0.35694
 Alpha virt. eigenvalues --    0.36297   0.37233   0.37925   0.38606   0.38938
 Alpha virt. eigenvalues --    0.39253   0.39526   0.39721   0.40084   0.40222
 Alpha virt. eigenvalues --    0.41318   0.41513   0.42366   0.43491   0.43805
 Alpha virt. eigenvalues --    0.44266   0.44326   0.44550   0.45032   0.46239
 Alpha virt. eigenvalues --    0.47860   0.48082   0.48099   0.48720   0.48994
 Alpha virt. eigenvalues --    0.51571   0.52146   0.53324   0.53441   0.54421
 Alpha virt. eigenvalues --    0.55313   0.55804   0.56003   0.56614   0.57505
 Alpha virt. eigenvalues --    0.59538   0.59577   0.60210   0.61037   0.61326
 Alpha virt. eigenvalues --    0.62252   0.62480   0.62999   0.63975   0.66076
 Alpha virt. eigenvalues --    0.67942   0.68505   0.69517   0.70012   0.71435
 Alpha virt. eigenvalues --    0.71848   0.72408   0.73552   0.73600   0.75293
 Alpha virt. eigenvalues --    0.76254   0.76667   0.76985   0.77684   0.78466
 Alpha virt. eigenvalues --    0.79282   0.81032   0.82329   0.83040   0.84075
 Alpha virt. eigenvalues --    0.85742   0.87102   0.87891   0.87925   0.91151
 Alpha virt. eigenvalues --    0.91817   0.92714   0.93396   0.94890   0.96577
 Alpha virt. eigenvalues --    0.97178   0.98583   1.00769   1.02256   1.03031
 Alpha virt. eigenvalues --    1.04874   1.05542   1.05904   1.07487   1.10209
 Alpha virt. eigenvalues --    1.10769   1.12089   1.12180   1.14893   1.16680
 Alpha virt. eigenvalues --    1.18538   1.19435   1.20796   1.21318   1.22410
 Alpha virt. eigenvalues --    1.24659   1.25117   1.25733   1.27384   1.27407
 Alpha virt. eigenvalues --    1.28212   1.29048   1.29854   1.33224   1.33727
 Alpha virt. eigenvalues --    1.34570   1.36810   1.38067   1.40837   1.42687
 Alpha virt. eigenvalues --    1.43162   1.43628   1.44713   1.45137   1.47243
 Alpha virt. eigenvalues --    1.48811   1.49281   1.49949   1.51465   1.52295
 Alpha virt. eigenvalues --    1.53183   1.55383   1.55467   1.56333   1.57441
 Alpha virt. eigenvalues --    1.57881   1.59075   1.59541   1.61709   1.63415
 Alpha virt. eigenvalues --    1.65199   1.65366   1.67086   1.68061   1.68352
 Alpha virt. eigenvalues --    1.69052   1.71408   1.72762   1.72843   1.73521
 Alpha virt. eigenvalues --    1.74566   1.74662   1.75640   1.76446   1.77707
 Alpha virt. eigenvalues --    1.79206   1.79379   1.81172   1.82273   1.82825
 Alpha virt. eigenvalues --    1.82835   1.84683   1.85550   1.85982   1.86659
 Alpha virt. eigenvalues --    1.86944   1.89326   1.90331   1.91903   1.93674
 Alpha virt. eigenvalues --    1.93824   1.94992   1.96943   1.97549   1.97942
 Alpha virt. eigenvalues --    1.99400   2.00802   2.02686   2.02945   2.04639
 Alpha virt. eigenvalues --    2.07555   2.07726   2.10022   2.10979   2.11174
 Alpha virt. eigenvalues --    2.11729   2.11866   2.12069   2.13757   2.13852
 Alpha virt. eigenvalues --    2.14949   2.15597   2.16157   2.16755   2.18608
 Alpha virt. eigenvalues --    2.19626   2.20585   2.21246   2.22317   2.22751
 Alpha virt. eigenvalues --    2.25013   2.25484   2.26476   2.27072   2.28648
 Alpha virt. eigenvalues --    2.28692   2.30647   2.31257   2.31875   2.33090
 Alpha virt. eigenvalues --    2.34951   2.36835   2.39578   2.39756   2.41896
 Alpha virt. eigenvalues --    2.42979   2.45468   2.47679   2.48786   2.50233
 Alpha virt. eigenvalues --    2.51194   2.53238   2.53866   2.55354   2.58583
 Alpha virt. eigenvalues --    2.59667   2.59721   2.60624   2.62423   2.64414
 Alpha virt. eigenvalues --    2.65808   2.66667   2.67930   2.68002   2.68472
 Alpha virt. eigenvalues --    2.68851   2.70405   2.71106   2.71209   2.73205
 Alpha virt. eigenvalues --    2.73919   2.75713   2.77397   2.79147   2.79161
 Alpha virt. eigenvalues --    2.79908   2.82799   2.83858   2.83953   2.86582
 Alpha virt. eigenvalues --    2.86996   2.87482   2.89360   2.89973   2.90852
 Alpha virt. eigenvalues --    2.91673   2.92679   2.93691   2.94965   2.98079
 Alpha virt. eigenvalues --    2.98935   2.99745   3.01545   3.02884   3.03063
 Alpha virt. eigenvalues --    3.04028   3.05704   3.06435   3.07583   3.08936
 Alpha virt. eigenvalues --    3.09751   3.12196   3.12902   3.13036   3.14023
 Alpha virt. eigenvalues --    3.14310   3.14955   3.15886   3.17049   3.17396
 Alpha virt. eigenvalues --    3.19317   3.20219   3.22411   3.23024   3.23085
 Alpha virt. eigenvalues --    3.23346   3.24286   3.24786   3.26268   3.26723
 Alpha virt. eigenvalues --    3.28544   3.28733   3.30231   3.30737   3.32119
 Alpha virt. eigenvalues --    3.32355   3.33378   3.33477   3.36061   3.36354
 Alpha virt. eigenvalues --    3.37396   3.39991   3.41611   3.41706   3.43469
 Alpha virt. eigenvalues --    3.44940   3.45317   3.45432   3.45960   3.47516
 Alpha virt. eigenvalues --    3.49113   3.49400   3.50996   3.51338   3.54517
 Alpha virt. eigenvalues --    3.54603   3.57707   3.59120   3.60804   3.62411
 Alpha virt. eigenvalues --    3.63437   3.69108   3.70052   3.72220   3.73499
 Alpha virt. eigenvalues --    3.75274   3.75594   3.78293   3.78321   3.81510
 Alpha virt. eigenvalues --    3.83127   3.85944   3.86943   3.89607   3.92581
 Alpha virt. eigenvalues --    3.93043   3.94743   3.95597   3.97184   4.00275
 Alpha virt. eigenvalues --    4.00882   4.01795   4.04108   4.06733   4.08918
 Alpha virt. eigenvalues --    4.09363   4.11108   4.11763   4.13222   4.14015
 Alpha virt. eigenvalues --    4.14734   4.16854   4.17201   4.20026   4.20375
 Alpha virt. eigenvalues --    4.21359   4.26537   4.28428   4.28626   4.30058
 Alpha virt. eigenvalues --    4.33295   4.41310   4.42862   4.44980   4.45780
 Alpha virt. eigenvalues --    4.49088   4.53506   4.55429   4.55582   4.63430
 Alpha virt. eigenvalues --    4.64182   4.64293   4.66120   4.68588   4.72036
 Alpha virt. eigenvalues --    4.72777   4.73805   4.80575   4.82964   4.83284
 Alpha virt. eigenvalues --    4.89187   4.91955   4.93147   4.95206   5.00629
 Alpha virt. eigenvalues --    5.02042   5.04697   5.05663   5.13115   5.16299
 Alpha virt. eigenvalues --    5.18274   5.20470   5.24035   5.28923   5.32314
 Alpha virt. eigenvalues --    5.32605   5.33684   5.39673   5.40729   5.42776
 Alpha virt. eigenvalues --    5.45153   5.57916   5.58866   5.63561   5.70419
 Alpha virt. eigenvalues --    5.73415   5.94826   6.25480  10.79490  10.80239
 Alpha virt. eigenvalues --   10.85533  10.86758  11.37491  11.40742  22.16792
 Alpha virt. eigenvalues --   22.52933  22.62529  22.69429  22.73603  22.78640
 Alpha virt. eigenvalues --   22.81493  22.88775  22.90407  23.27069  23.30707
 Alpha virt. eigenvalues --   25.82814  25.95093  32.52876  32.81255
          Condensed to atoms (all electrons):
               1          2          3          4          5          6
     1  Cl  16.817915   0.378238  -0.077817   0.008495  -0.000264  -0.000646
     2  C    0.378238   4.695800   0.417462  -0.035802   0.007994  -0.024191
     3  C   -0.077817   0.417462   5.275031   0.424290  -0.074508  -0.029104
     4  C    0.008495  -0.035802   0.424290   4.707365   0.376285   0.516869
     5  Cl  -0.000264   0.007994  -0.074508   0.376285  16.815769  -0.081568
     6  N   -0.000646  -0.024191  -0.029104   0.516869  -0.081568   6.517275
     7  C    0.002711  -0.074537  -0.045726  -0.075285   0.003477   0.471889
     8  C   -0.001350  -0.000398   0.000732   0.004362  -0.000939  -0.115026
     9  C   -0.000073  -0.001002   0.001296  -0.006851  -0.000026  -0.024308
    10  C    0.000004  -0.000026   0.000135  -0.000243   0.000249   0.012201
    11  C    0.000000   0.000018  -0.000024   0.000009  -0.000047  -0.001279
    12  C    0.000000  -0.000006   0.000014   0.000031   0.000016   0.000774
    13  C    0.000000   0.000018  -0.000024   0.000007  -0.000047  -0.001261
    14  C    0.000004  -0.000027   0.000138  -0.000231   0.000251   0.012227
    15  N   -0.080506   0.527079  -0.042673  -0.020448  -0.000858  -0.069287
    16  H    0.001197  -0.026210   0.393700  -0.026056   0.001221   0.003588
    17  H   -0.000044   0.000162   0.000349  -0.000318   0.000024   0.003122
    18  H   -0.000045   0.000173   0.000350  -0.000319   0.000024   0.003157
    19  H   -0.000000  -0.000003   0.000009  -0.000010   0.000010   0.000718
    20  H   -0.000000   0.000000  -0.000000  -0.000001  -0.000001  -0.000005
    21  H   -0.000000  -0.000000   0.000000  -0.000001   0.000000   0.000000
    22  H   -0.000000   0.000000  -0.000000  -0.000001  -0.000001  -0.000005
    23  H   -0.000000  -0.000004   0.000010  -0.000010   0.000010   0.000724
               7          8          9         10         11         12
     1  Cl   0.002711  -0.001350  -0.000073   0.000004   0.000000   0.000000
     2  C   -0.074537  -0.000398  -0.001002  -0.000026   0.000018  -0.000006
     3  C   -0.045726   0.000732   0.001296   0.000135  -0.000024   0.000014
     4  C   -0.075285   0.004362  -0.006851  -0.000243   0.000009   0.000031
     5  Cl   0.003477  -0.000939  -0.000026   0.000249  -0.000047   0.000016
     6  N    0.471889  -0.115026  -0.024308   0.012201  -0.001279   0.000774
     7  C    4.947939   0.174947   0.012150  -0.010020   0.002436  -0.000894
     8  C    0.174947   5.552906   0.144645  -0.063858   0.006221  -0.001855
     9  C    0.012150   0.144645   5.010865   0.472870  -0.039290  -0.055496
    10  C   -0.010020  -0.063858   0.472870   4.990412   0.507883  -0.029464
    11  C    0.002436   0.006221  -0.039290   0.507883   4.890117   0.512562
    12  C   -0.000894  -0.001855  -0.055496  -0.029464   0.512562   4.893570
    13  C    0.002434   0.006168  -0.039340  -0.053879  -0.038575   0.512594
    14  C   -0.010157  -0.063149   0.472411  -0.017398  -0.053954  -0.029477
    15  N    0.451349  -0.097795   0.020206   0.000113  -0.000039   0.000008
    16  H    0.001949   0.000483  -0.000031  -0.000005   0.000000  -0.000000
    17  H   -0.054781   0.439599  -0.045129   0.006776  -0.000704   0.000245
    18  H   -0.055296   0.440618  -0.045498  -0.007091  -0.000233   0.000245
    19  H   -0.004818   0.006575  -0.041808   0.402187  -0.028893   0.004374
    20  H   -0.000001  -0.000185   0.005399  -0.033492   0.407923  -0.032337
    21  H    0.000007   0.000031   0.001630   0.002337  -0.029945   0.404437
    22  H   -0.000001  -0.000184   0.005395   0.000103   0.003622  -0.032341
    23  H   -0.004821   0.006598  -0.041831   0.006933  -0.000945   0.004371
              13         14         15         16         17         18
     1  Cl   0.000000   0.000004  -0.080506   0.001197  -0.000044  -0.000045
     2  C    0.000018  -0.000027   0.527079  -0.026210   0.000162   0.000173
     3  C   -0.000024   0.000138  -0.042673   0.393700   0.000349   0.000350
     4  C    0.000007  -0.000231  -0.020448  -0.026056  -0.000318  -0.000319
     5  Cl  -0.000047   0.000251  -0.000858   0.001221   0.000024   0.000024
     6  N   -0.001261   0.012227  -0.069287   0.003588   0.003122   0.003157
     7  C    0.002434  -0.010157   0.451349   0.001949  -0.054781  -0.055296
     8  C    0.006168  -0.063149  -0.097795   0.000483   0.439599   0.440618
     9  C   -0.039340   0.472411   0.020206  -0.000031  -0.045129  -0.045498
    10  C   -0.053879  -0.017398   0.000113  -0.000005   0.006776  -0.007091
    11  C   -0.038575  -0.053954  -0.000039   0.000000  -0.000704  -0.000233
    12  C    0.512594  -0.029477   0.000008  -0.000000   0.000245   0.000245
    13  C    4.890042   0.507997  -0.000038   0.000000  -0.000231  -0.000701
    14  C    0.507997   4.990055   0.000116  -0.000005  -0.007126   0.006750
    15  N   -0.000038   0.000116   6.529065   0.004019   0.003815   0.003897
    16  H    0.000000  -0.000005   0.004019   0.465782  -0.000010  -0.000010
    17  H   -0.000231  -0.007126   0.003815  -0.000010   0.479607  -0.013955
    18  H   -0.000701   0.006750   0.003897  -0.000010  -0.013955   0.479237
    19  H   -0.000944   0.006931   0.000094  -0.000001   0.000251   0.000362
    20  H    0.003620   0.000104  -0.000000   0.000000   0.000009  -0.000032
    21  H   -0.029943   0.002338   0.000000  -0.000000  -0.000001  -0.000001
    22  H    0.407908  -0.033469  -0.000000   0.000000  -0.000032   0.000009
    23  H   -0.028897   0.402181   0.000091  -0.000001   0.000377   0.000250
              19         20         21         22         23
     1  Cl  -0.000000  -0.000000  -0.000000  -0.000000  -0.000000
     2  C   -0.000003   0.000000  -0.000000   0.000000  -0.000004
     3  C    0.000009  -0.000000   0.000000  -0.000000   0.000010
     4  C   -0.000010  -0.000001  -0.000001  -0.000001  -0.000010
     5  Cl   0.000010  -0.000001   0.000000  -0.000001   0.000010
     6  N    0.000718  -0.000005   0.000000  -0.000005   0.000724
     7  C   -0.004818  -0.000001   0.000007  -0.000001  -0.004821
     8  C    0.006575  -0.000185   0.000031  -0.000184   0.006598
     9  C   -0.041808   0.005399   0.001630   0.005395  -0.041831
    10  C    0.402187  -0.033492   0.002337   0.000103   0.006933
    11  C   -0.028893   0.407923  -0.029945   0.003622  -0.000945
    12  C    0.004374  -0.032337   0.404437  -0.032341   0.004371
    13  C   -0.000944   0.003620  -0.029943   0.407908  -0.028897
    14  C    0.006931   0.000104   0.002338  -0.033469   0.402181
    15  N    0.000094  -0.000000   0.000000  -0.000000   0.000091
    16  H   -0.000001   0.000000  -0.000000   0.000000  -0.000001
    17  H    0.000251   0.000009  -0.000001  -0.000032   0.000377
    18  H    0.000362  -0.000032  -0.000001   0.000009   0.000250
    19  H    0.513064  -0.004033  -0.000287   0.000073  -0.000281
    20  H   -0.004033   0.514078  -0.003622  -0.000289   0.000073
    21  H   -0.000287  -0.003622   0.513645  -0.003622  -0.000287
    22  H    0.000073  -0.000289  -0.003622   0.514080  -0.004033
    23  H   -0.000281   0.000073  -0.000287  -0.004033   0.513129
 Mulliken charges:
               1
     1  Cl  -0.047821
     2  C    0.135264
     3  C   -0.243642
     4  C    0.127863
     5  Cl  -0.047070
     6  N   -0.195866
     7  C    0.265050
     8  C   -0.439146
     9  C    0.193817
    10  C   -0.186729
    11  C   -0.136864
    12  C   -0.151370
    13  C   -0.136909
    14  C   -0.186511
    15  N   -0.228206
    16  H    0.180387
    17  H    0.187994
    18  H    0.188107
    19  H    0.146430
    20  H    0.142790
    21  H    0.143283
    22  H    0.142788
    23  H    0.146361
 Sum of Mulliken charges =  -0.00000
 Mulliken charges with hydrogens summed into heavy atoms:
               1
     1  Cl  -0.047821
     2  C    0.135264
     3  C   -0.063255
     4  C    0.127863
     5  Cl  -0.047070
     6  N   -0.195866
     7  C    0.265050
     8  C   -0.063044
     9  C    0.193817
    10  C   -0.040299
    11  C    0.005926
    12  C   -0.008087
    13  C    0.005879
    14  C   -0.040150
    15  N   -0.228206
 Electronic spatial extent (au):  <R**2>=           4843.7740
 Charge=              0.0000 electrons
 Dipole moment (field-independent basis, Debye):
    X=              0.0413    Y=              0.2553    Z=             -0.0001  Tot=              0.2586
 Quadrupole moment (field-independent basis, Debye-Ang):
   XX=            -95.4055   YY=           -103.7436   ZZ=            -95.1561
   XY=             -2.5568   XZ=              0.0003   YZ=             -0.0105
 Traceless Quadrupole moment (field-independent basis, Debye-Ang):
   XX=              2.6963   YY=             -5.6419   ZZ=              2.9456
   XY=             -2.5568   XZ=              0.0003   YZ=             -0.0105
 Octapole moment (field-independent basis, Debye-Ang**2):
  XXX=            -14.5172  YYY=             15.8895  ZZZ=             -0.0027  XYY=            -13.8414
  XXY=             37.5925  XXZ=              0.1107  XZZ=              6.1099  YZZ=             -1.1106
  YYZ=              0.0242  XYZ=             -0.0611
 Hexadecapole moment (field-independent basis, Debye-Ang**3):
 XXXX=          -4602.1714 YYYY=          -1320.6419 ZZZZ=           -345.2953 XXXY=            126.5742
 XXXZ=              0.2490 YYYX=             10.0836 YYYZ=              0.0018 ZZZX=              0.0673
 ZZZY=             -0.0794 XXYY=          -1067.7029 XXZZ=           -822.4024 YYZZ=           -287.1973
 XXYZ=             -0.2404 YYXZ=             -0.0947 ZZXY=              8.1171
 N-N= 1.081435935476D+03 E-N=-5.590696585163D+03  KE= 1.450163672710D+03
 Unable to Open any file for archive entry.
 1\1\GINC-COMPUTE-0-28\SP\RM062X\def2TZVP\C11H8Cl2N2\ZTAN64\14-Aug-2024
 \0\\# M062X/def2tzvp int=(grid=ultrafine) nmr=giao guess=read geom=che
 ck\\pyrmd2.xyz\\0,1\Cl,0,3.5289141418,0.8219680817,-3.1012072928\C,0,2
 .9630247628,0.36986667,-1.5067527073\C,0,3.2342666476,1.2177524764,-0.
 4331748606\C,0,2.7392168779,0.7613329357,0.7843074467\Cl,0,3.005259983
 1,1.7247817806,2.2212951777\N,0,2.0694936094,-0.3700870879,0.935228238
 9\C,0,1.8728349461,-1.0974822854,-0.1702796407\C,0,1.113301284,-2.4027
 60912,-0.0648802828\C,0,0.6369489085,-2.755914806,1.3209942407\C,0,-0.
 616418281,-2.3312341542,1.7715851977\C,0,-1.0525039995,-2.6425551378,3
 .0584155359\C,0,-0.2365249934,-3.3856258313,3.9119483024\C,0,1.0156138
 056,-3.8145731639,3.4707703684\C,0,1.4471833886,-3.5006737945,2.183042
 1958\N,0,2.2995410025,-0.7664515186,-1.4023690848\H,0,3.7793287751,2.1
 445887249,-0.5385604486\H,0,1.7671000831,-3.1860679553,-0.4656445977\H
 ,0,0.2716165971,-2.3400913149,-0.7642961858\H,0,-1.2534276375,-1.75076
 90498,1.1095445178\H,0,-2.0291971734,-2.3070824617,3.3936941402\H,0,-0
 .5753831832,-3.6311083989,4.9137161022\H,0,1.6554340904,-4.3951567319,
 4.1283678085\H,0,2.4237763641,-3.8345560652,1.8427558283\\Version=ES64
 L-G16RevC.01\State=1-A\HF=-1453.870535\RMSD=2.247e-09\Dipole=0.0148467
 ,0.0549351,0.0843523\Quadrupole=2.2301814,0.926717,-3.1568983,-0.14272
 48,-0.6108252,-2.9198741\PG=C01 [X(C11H8Cl2N2)]\\@
 The archive entry for this job was punched.


 LET US PLACE AT THE END OF EVERY CHAPTER.....THE
 TWO LETTERS USED BY THE ROMAN JUDGES WHEN THEY DID
 NOT UNDERSTAND A PLEADING.
 N. L. -NON LIQUET- IT IS NOT CLEAR.
                                              -- VOLTAIRE
 Job cpu time:       0 days  0 hours 50 minutes 46.5 seconds.
 Elapsed time:       0 days  0 hours  3 minutes 21.5 seconds.
 File lengths (MBytes):  RWF=    156 Int=      0 D2E=      0 Chk=     25 Scr=      1
 Normal termination of Gaussian 16 at Wed Aug 14 20:38:22 2024.
 
 
-----Kestrel cluster job statistics-----
Time info:

real	16m15.465s
user	255m50.451s
sys	0m16.450s
 
Disk space usage:
25M	/scratch/362990.kestrel.chem.wisc.edu
