 Entering Gaussian System, Link 0=/share/apps/gaussian/g16/g16
 Initial command:
 /share/apps/gaussian/g16/l1.exe "/scratch/362988.kestrel.chem.wisc.edu/Gau-174316.inp" -scrdir="/scratch/362988.kestrel.chem.wisc.edu/"
 Entering Link 1 = /share/apps/gaussian/g16/l1.exe PID=    174317.
  
 Copyright (c) 1988-2019, Gaussian, Inc.  All Rights Reserved.
  
 This is part of the Gaussian(R) 16 program.  It is based on
 the Gaussian(R) 09 system (copyright 2009, Gaussian, Inc.),
 the Gaussian(R) 03 system (copyright 2003, Gaussian, Inc.),
 the Gaussian(R) 98 system (copyright 1998, Gaussian, Inc.),
 the Gaussian(R) 94 system (copyright 1995, Gaussian, Inc.),
 the Gaussian 92(TM) system (copyright 1992, Gaussian, Inc.),
 the Gaussian 90(TM) system (copyright 1990, Gaussian, Inc.),
 the Gaussian 88(TM) system (copyright 1988, Gaussian, Inc.),
 the Gaussian 86(TM) system (copyright 1986, Carnegie Mellon
 University), and the Gaussian 82(TM) system (copyright 1983,
 Carnegie Mellon University). Gaussian is a federally registered
 trademark of Gaussian, Inc.
  
 This software contains proprietary and confidential information,
 including trade secrets, belonging to Gaussian, Inc.
  
 This software is provided under written license and may be
 used, copied, transmitted, or stored only in accord with that
 written license.
  
 The following legend is applicable only to US Government
 contracts under FAR:
  
                    RESTRICTED RIGHTS LEGEND
  
 Use, reproduction and disclosure by the US Government is
 subject to restrictions as set forth in subparagraphs (a)
 and (c) of the Commercial Computer Software - Restricted
 Rights clause in FAR 52.227-19.
  
 Gaussian, Inc.
 340 Quinnipiac St., Bldg. 40, Wallingford CT 06492
  
  
 ---------------------------------------------------------------
 Warning -- This program may not be used in any manner that
 competes with the business of Gaussian, Inc. or will provide
 assistance to any competitor of Gaussian, Inc.  The licensee
 of this program is prohibited from giving any competitor of
 Gaussian, Inc. access to this program.  By using this program,
 the user acknowledges that Gaussian, Inc. is engaged in the
 business of creating and licensing software in the field of
 computational chemistry and represents and warrants to the
 licensee that it is not a competitor of Gaussian, Inc. and that
 it will not use this program in any manner prohibited above.
 ---------------------------------------------------------------
  

 Cite this work as:
 Gaussian 16, Revision C.01,
 M. J. Frisch, G. W. Trucks, H. B. Schlegel, G. E. Scuseria, 
 M. A. Robb, J. R. Cheeseman, G. Scalmani, V. Barone, 
 G. A. Petersson, H. Nakatsuji, X. Li, M. Caricato, A. V. Marenich, 
 J. Bloino, B. G. Janesko, R. Gomperts, B. Mennucci, H. P. Hratchian, 
 J. V. Ortiz, A. F. Izmaylov, J. L. Sonnenberg, D. Williams-Young, 
 F. Ding, F. Lipparini, F. Egidi, J. Goings, B. Peng, A. Petrone, 
 T. Henderson, D. Ranasinghe, V. G. Zakrzewski, J. Gao, N. Rega, 
 G. Zheng, W. Liang, M. Hada, M. Ehara, K. Toyota, R. Fukuda, 
 J. Hasegawa, M. Ishida, T. Nakajima, Y. Honda, O. Kitao, H. Nakai, 
 T. Vreven, K. Throssell, J. A. Montgomery, Jr., J. E. Peralta, 
 F. Ogliaro, M. J. Bearpark, J. J. Heyd, E. N. Brothers, K. N. Kudin, 
 V. N. Staroverov, T. A. Keith, R. Kobayashi, J. Normand, 
 K. Raghavachari, A. P. Rendell, J. C. Burant, S. S. Iyengar, 
 J. Tomasi, M. Cossi, J. M. Millam, M. Klene, C. Adamo, R. Cammi, 
 J. W. Ochterski, R. L. Martin, K. Morokuma, O. Farkas, 
 J. B. Foresman, and D. J. Fox, Gaussian, Inc., Wallingford CT, 2019.
 
 ******************************************
 Gaussian 16:  ES64L-G16RevC.01  3-Jul-2019
                14-Aug-2024 
 ******************************************
 %nprocs=16
 Will use up to   16 processors via shared memory.
 %mem=16GB
 %chk=pyrmd1_conf-4.chk
 ----------------------------------------------------------------------
 # B3LYP/6-31G(d,p) symmetry=loose empiricaldispersion=GD3BJ int=(grid=
 ultrafine) opt freq=noraman
 ----------------------------------------------------------------------
 1/18=20,19=15,26=4,38=1/1,3;
 2/9=110,12=2,17=4,18=3,40=1/2;
 3/5=1,6=6,7=101,11=2,25=1,30=1,71=1,74=-5,75=-5,124=41/1,2,3;
 4//1;
 5/5=2,38=5/2;
 6/7=2,8=2,9=2,10=2,28=1/1;
 7//1,2,3,16;
 1/18=20,19=15,26=4/3(2);
 2/9=110/2;
 99//99;
 2/9=110/2;
 3/5=1,6=6,7=101,11=2,25=1,30=1,71=1,74=-5,75=-5,124=41/1,2,3;
 4/5=5,16=3,69=1/1;
 5/5=2,38=5/2;
 7//1,2,3,16;
 1/18=20,19=15,26=4/3(-5);
 2/9=110/2;
 6/7=2,8=2,9=2,10=2,19=2,28=1/1;
 99/9=1/99;
 ----------
 pyrmd1.xyz
 ----------
 Symbolic Z-matrix:
 Charge =  0 Multiplicity = 1
 N                    -4.3233    1.5138    0.026 
 C                    -2.9964    1.1567    0.0069 
 N                    -2.7227   -0.1366   -0.2462 
 C                    -1.4092   -0.4871   -0.2654 
 C                    -1.1915   -1.9711   -0.5174 
 C                    -0.3746    0.4527   -0.0448 
 C                     1.0994    0.1855   -0.0476 
 O                     1.4489   -0.9875   -0.6223 
 C                     2.811    -1.3904   -0.7242 
 C                     3.2908   -2.0375    0.5826 
 O                     1.9249    1.0001    0.3707 
 C                    -0.8002    1.7648    0.2194 
 N                    -2.1055    2.1358    0.2462 
 H                    -4.5499    2.4746    0.215 
 H                    -5.0083    0.7998   -0.1487 
 H                    -0.5426   -2.3949    0.2482 
 H                    -2.1258   -2.5336   -0.5008 
 H                    -0.7304   -2.1204   -1.493 
 H                     3.4504   -0.5493   -1.0013 
 H                     2.8873   -2.1151   -1.5353 
 H                     3.262    -1.3241    1.4069 
 H                     2.6653   -2.8883    0.8525 
 H                     4.3171   -2.3908    0.4867 
 H                    -0.0875    2.5572    0.4125 
 

 GradGradGradGradGradGradGradGradGradGradGradGradGradGradGradGradGradGrad
 Berny optimization.
 Initialization pass.
                           ----------------------------
                           !    Initial Parameters    !
                           ! (Angstroms and Degrees)  !
 --------------------------                            --------------------------
 ! Name  Definition              Value          Derivative Info.                !
 --------------------------------------------------------------------------------
 ! R1    R(1,2)                  1.3742         estimate D2E/DX2                !
 ! R2    R(1,14)                 1.0051         estimate D2E/DX2                !
 ! R3    R(1,15)                 1.0048         estimate D2E/DX2                !
 ! R4    R(2,3)                  1.346          estimate D2E/DX2                !
 ! R5    R(2,13)                 1.3452         estimate D2E/DX2                !
 ! R6    R(3,4)                  1.3596         estimate D2E/DX2                !
 ! R7    R(4,5)                  1.5209         estimate D2E/DX2                !
 ! R8    R(4,6)                  1.415          estimate D2E/DX2                !
 ! R9    R(5,16)                 1.0894         estimate D2E/DX2                !
 ! R10   R(5,17)                 1.0907         estimate D2E/DX2                !
 ! R11   R(5,18)                 1.0894         estimate D2E/DX2                !
 ! R12   R(6,7)                  1.498          estimate D2E/DX2                !
 ! R13   R(6,12)                 1.4045         estimate D2E/DX2                !
 ! R14   R(7,8)                  1.3522         estimate D2E/DX2                !
 ! R15   R(7,11)                 1.2329         estimate D2E/DX2                !
 ! R16   R(8,9)                  1.4241         estimate D2E/DX2                !
 ! R17   R(9,10)                 1.5351         estimate D2E/DX2                !
 ! R18   R(9,19)                 1.0923         estimate D2E/DX2                !
 ! R19   R(9,20)                 1.0904         estimate D2E/DX2                !
 ! R20   R(10,21)                1.0905         estimate D2E/DX2                !
 ! R21   R(10,22)                1.0899         estimate D2E/DX2                !
 ! R22   R(10,23)                1.0896         estimate D2E/DX2                !
 ! R23   R(12,13)                1.3573         estimate D2E/DX2                !
 ! R24   R(12,24)                1.0831         estimate D2E/DX2                !
 ! A1    A(2,1,14)             117.95           estimate D2E/DX2                !
 ! A2    A(2,1,15)             118.112          estimate D2E/DX2                !
 ! A3    A(14,1,15)            123.9381         estimate D2E/DX2                !
 ! A4    A(1,2,3)              116.6567         estimate D2E/DX2                !
 ! A5    A(1,2,13)             116.6061         estimate D2E/DX2                !
 ! A6    A(3,2,13)             126.737          estimate D2E/DX2                !
 ! A7    A(2,3,4)              116.54           estimate D2E/DX2                !
 ! A8    A(3,4,5)              113.0894         estimate D2E/DX2                !
 ! A9    A(3,4,6)              122.2047         estimate D2E/DX2                !
 ! A10   A(5,4,6)              124.6957         estimate D2E/DX2                !
 ! A11   A(4,5,16)             110.3892         estimate D2E/DX2                !
 ! A12   A(4,5,17)             112.2147         estimate D2E/DX2                !
 ! A13   A(4,5,18)             110.0417         estimate D2E/DX2                !
 ! A14   A(16,5,17)            107.3923         estimate D2E/DX2                !
 ! A15   A(16,5,18)            108.9013         estimate D2E/DX2                !
 ! A16   A(17,5,18)            107.7903         estimate D2E/DX2                !
 ! A17   A(4,6,7)              126.9181         estimate D2E/DX2                !
 ! A18   A(4,6,12)             115.356          estimate D2E/DX2                !
 ! A19   A(7,6,12)             117.7206         estimate D2E/DX2                !
 ! A20   A(6,7,8)              114.1958         estimate D2E/DX2                !
 ! A21   A(6,7,11)             122.707          estimate D2E/DX2                !
 ! A22   A(8,7,11)             122.978          estimate D2E/DX2                !
 ! A23   A(7,8,9)              121.5381         estimate D2E/DX2                !
 ! A24   A(8,9,10)             110.9335         estimate D2E/DX2                !
 ! A25   A(8,9,19)             111.1122         estimate D2E/DX2                !
 ! A26   A(8,9,20)             107.9506         estimate D2E/DX2                !
 ! A27   A(10,9,19)            110.9522         estimate D2E/DX2                !
 ! A28   A(10,9,20)            109.3416         estimate D2E/DX2                !
 ! A29   A(19,9,20)            106.387          estimate D2E/DX2                !
 ! A30   A(9,10,21)            111.0656         estimate D2E/DX2                !
 ! A31   A(9,10,22)            111.1291         estimate D2E/DX2                !
 ! A32   A(9,10,23)            110.8627         estimate D2E/DX2                !
 ! A33   A(21,10,22)           107.958          estimate D2E/DX2                !
 ! A34   A(21,10,23)           107.6685         estimate D2E/DX2                !
 ! A35   A(22,10,23)           108.0126         estimate D2E/DX2                !
 ! A36   A(6,12,13)            123.402          estimate D2E/DX2                !
 ! A37   A(6,12,24)            121.1726         estimate D2E/DX2                !
 ! A38   A(13,12,24)           115.4245         estimate D2E/DX2                !
 ! A39   A(2,13,12)            115.7506         estimate D2E/DX2                !
 ! D1    D(14,1,2,3)           179.879          estimate D2E/DX2                !
 ! D2    D(14,1,2,13)            0.0247         estimate D2E/DX2                !
 ! D3    D(15,1,2,3)            -0.0656         estimate D2E/DX2                !
 ! D4    D(15,1,2,13)         -179.92           estimate D2E/DX2                !
 ! D5    D(1,2,3,4)            179.9583         estimate D2E/DX2                !
 ! D6    D(13,2,3,4)            -0.2042         estimate D2E/DX2                !
 ! D7    D(1,2,13,12)         -179.8196         estimate D2E/DX2                !
 ! D8    D(3,2,13,12)            0.3428         estimate D2E/DX2                !
 ! D9    D(2,3,4,5)            178.3053         estimate D2E/DX2                !
 ! D10   D(2,3,4,6)             -0.5847         estimate D2E/DX2                !
 ! D11   D(3,4,5,16)          -127.8585         estimate D2E/DX2                !
 ! D12   D(3,4,5,17)            -8.1062         estimate D2E/DX2                !
 ! D13   D(3,4,5,18)           111.9126         estimate D2E/DX2                !
 ! D14   D(6,4,5,16)            50.9992         estimate D2E/DX2                !
 ! D15   D(6,4,5,17)           170.7515         estimate D2E/DX2                !
 ! D16   D(6,4,5,18)           -69.2297         estimate D2E/DX2                !
 ! D17   D(3,4,6,7)           -179.7322         estimate D2E/DX2                !
 ! D18   D(3,4,6,12)             1.1347         estimate D2E/DX2                !
 ! D19   D(5,4,6,7)              1.5097         estimate D2E/DX2                !
 ! D20   D(5,4,6,12)          -177.6234         estimate D2E/DX2                !
 ! D21   D(4,6,7,8)             16.3912         estimate D2E/DX2                !
 ! D22   D(4,6,7,11)          -167.4718         estimate D2E/DX2                !
 ! D23   D(12,6,7,8)          -164.4938         estimate D2E/DX2                !
 ! D24   D(12,6,7,11)           11.6433         estimate D2E/DX2                !
 ! D25   D(4,6,12,13)           -0.9974         estimate D2E/DX2                !
 ! D26   D(4,6,12,24)          179.3443         estimate D2E/DX2                !
 ! D27   D(7,6,12,13)          179.7855         estimate D2E/DX2                !
 ! D28   D(7,6,12,24)            0.1272         estimate D2E/DX2                !
 ! D29   D(6,7,8,9)            179.2219         estimate D2E/DX2                !
 ! D30   D(11,7,8,9)             3.0967         estimate D2E/DX2                !
 ! D31   D(7,8,9,10)            82.6215         estimate D2E/DX2                !
 ! D32   D(7,8,9,19)           -41.3036         estimate D2E/DX2                !
 ! D33   D(7,8,9,20)          -157.5981         estimate D2E/DX2                !
 ! D34   D(8,9,10,21)          -63.2094         estimate D2E/DX2                !
 ! D35   D(8,9,10,22)           56.9937         estimate D2E/DX2                !
 ! D36   D(8,9,10,23)          177.1298         estimate D2E/DX2                !
 ! D37   D(19,9,10,21)          60.807          estimate D2E/DX2                !
 ! D38   D(19,9,10,22)        -178.9899         estimate D2E/DX2                !
 ! D39   D(19,9,10,23)         -58.8537         estimate D2E/DX2                !
 ! D40   D(20,9,10,21)         177.8445         estimate D2E/DX2                !
 ! D41   D(20,9,10,22)         -61.9525         estimate D2E/DX2                !
 ! D42   D(20,9,10,23)          58.1837         estimate D2E/DX2                !
 ! D43   D(6,12,13,2)            0.3097         estimate D2E/DX2                !
 ! D44   D(24,12,13,2)         179.9859         estimate D2E/DX2                !
 --------------------------------------------------------------------------------
 Trust Radius=3.00D-01 FncErr=1.00D-07 GrdErr=1.00D-06 EigMax=2.50D+02 EigMin=1.00D-04
 Number of steps in this run=    117 maximum allowed number of steps=    144.
 GradGradGradGradGradGradGradGradGradGradGradGradGradGradGradGradGradGrad

                          Input orientation:                          
 ---------------------------------------------------------------------
 Center     Atomic      Atomic             Coordinates (Angstroms)
 Number     Number       Type             X           Y           Z
 ---------------------------------------------------------------------
      1          7           0       -4.323300    1.513800    0.026000
      2          6           0       -2.996400    1.156700    0.006900
      3          7           0       -2.722700   -0.136600   -0.246200
      4          6           0       -1.409200   -0.487100   -0.265400
      5          6           0       -1.191500   -1.971100   -0.517400
      6          6           0       -0.374600    0.452700   -0.044800
      7          6           0        1.099400    0.185500   -0.047600
      8          8           0        1.448900   -0.987500   -0.622300
      9          6           0        2.811000   -1.390400   -0.724200
     10          6           0        3.290800   -2.037500    0.582600
     11          8           0        1.924900    1.000100    0.370700
     12          6           0       -0.800200    1.764800    0.219400
     13          7           0       -2.105500    2.135800    0.246200
     14          1           0       -4.549900    2.474600    0.215000
     15          1           0       -5.008300    0.799800   -0.148700
     16          1           0       -0.542600   -2.394900    0.248200
     17          1           0       -2.125800   -2.533600   -0.500800
     18          1           0       -0.730400   -2.120400   -1.493000
     19          1           0        3.450400   -0.549300   -1.001300
     20          1           0        2.887300   -2.115100   -1.535300
     21          1           0        3.262000   -1.324100    1.406900
     22          1           0        2.665300   -2.888300    0.852500
     23          1           0        4.317100   -2.390800    0.486700
     24          1           0       -0.087500    2.557200    0.412500
 ---------------------------------------------------------------------
                    Distance matrix (angstroms):
                    1          2          3          4          5
     1  N    0.000000
     2  C    1.374245   0.000000
     3  N    2.315131   1.345955   0.000000
     4  C    3.546899   2.301180   1.359596   0.000000
     5  C    4.716777   3.649067   2.404894   1.520905   0.000000
     6  C    4.089398   2.715166   2.429282   1.415021   2.601054
     7  C    5.583500   4.209724   3.840786   2.606320   3.181172
     8  O    6.324167   4.975357   4.274076   2.923442   2.819607
     9  C    7.739213   6.383425   5.694061   4.340108   4.049689
    10  C    8.419979   7.075537   6.361015   5.021239   4.615780
    11  O    6.278751   4.937213   4.824193   3.705754   4.396442
    12  C    3.537321   2.288719   2.743740   2.382638   3.827916
    13  N    2.313873   1.345215   2.405659   2.761553   4.276109
    14  H    1.005090   2.047811   3.220207   4.343552   5.619565
    15  H    1.004759   2.049227   2.471906   3.824036   4.730940
    16  H    5.442518   4.323566   3.177607   2.157425   1.089413
    17  H    4.635512   3.825443   2.483288   2.181076   1.090687
    18  H    5.331388   4.257210   3.075586   2.153007   1.089357
    19  H    8.108153   6.744489   6.232789   4.915397   4.878823
    20  H    8.221881   6.906590   6.086735   4.766859   4.206360
    21  H    8.215676   6.876186   6.321355   5.031627   4.894405
    22  H    8.300730   7.009416   6.148946   4.859734   4.194376
    23  H    9.492874   8.142619   7.428145   6.081138   5.615072
    24  H    4.379505   3.253861   3.825536   3.387359   4.752792
                    6          7          8          9         10
     6  C    0.000000
     7  C    1.498025   0.000000
     8  O    2.394334   1.352168   0.000000
     9  C    3.742546   2.422978   1.424089   0.000000
    10  C    4.475476   3.184512   2.438622   1.535146   0.000000
    11  O    2.399997   1.232882   2.272263   2.774612   3.337304
    12  C    1.404473   2.484745   3.652679   4.887375   5.596935
    13  N    2.431773   3.763160   4.810723   6.127621   6.830055
    14  H    4.646365   6.101109   6.976590   8.366790   9.053770
    15  H    4.647844   6.139347   6.716708   8.140616   8.801144
    16  H    2.867560   3.072804   2.589328   3.633348   3.864520
    17  H    3.491794   4.242736   3.896623   5.072357   5.546118
    18  H    2.974007   3.279409   2.605941   3.696683   4.526040
    19  H    4.068110   2.641340   2.083666   1.092276   2.179209
    20  H    4.410803   3.271483   2.043048   1.090365   2.157391
    21  H    4.299920   3.011860   2.741949   2.179308   1.090523
    22  H    4.605260   3.565175   2.695868   2.179660   1.089934
    23  H    5.511809   4.156488   3.380193   2.176101   1.089637
    24  H    2.172664   2.691725   3.999529   5.027617   5.705534
                   11         12         13         14         15
    11  O    0.000000
    12  C    2.834401   0.000000
    13  N    4.189205   1.357265   0.000000
    14  H    6.642396   3.816292   2.467965   0.000000
    15  H    6.955513   4.332993   3.219797   1.774081   0.000000
    16  H    4.198760   4.167768   4.792693   6.306472   5.505099
    17  H    5.445615   4.555452   4.728818   5.609875   4.420898
    18  H    4.501279   4.246406   4.799058   6.214489   5.351181
    19  H    2.571026   4.991269   6.295557   8.638759   8.607938
    20  H    3.776708   5.632961   6.794994   8.912959   8.529936
    21  H    2.874622   5.239554   6.490623   8.767926   8.679211
    22  H    3.987478   5.836253   6.954834   9.012559   8.572550
    23  H    4.151419   6.597516   7.861154  10.117788   9.876576
    24  H    2.544811   1.083110   2.068226   4.467532   5.255252
                   16         17         18         19         20
    16  H    0.000000
    17  H    1.756918   0.000000
    18  H    1.772681   1.761345   0.000000
    19  H    4.572914   5.939861   4.493241   0.000000
    20  H    3.876000   5.135806   3.617951   1.747560   0.000000
    21  H    4.118759   5.842140   4.998277   2.536777   3.069629
    22  H    3.301400   4.991179   4.197835   3.086078   2.519665
    23  H    4.865551   6.519702   5.428590   2.521197   2.491751
    24  H    4.975681   5.559229   5.091581   4.915883   5.871435
                   21         22         23         24
    21  H    0.000000
    22  H    1.763557   0.000000
    23  H    1.760072   1.763451   0.000000
    24  H    5.222305   6.117596   6.624856   0.000000
 Stoichiometry    C8H11N3O2
 Framework group  C1[X(C8H11N3O2)]
 Deg. of freedom    66
 Full point group                 C1      NOp   1
 Largest Abelian subgroup         C1      NOp   1
 Largest concise Abelian subgroup C1      NOp   1
                         Standard orientation:                         
 ---------------------------------------------------------------------
 Center     Atomic      Atomic             Coordinates (Angstroms)
 Number     Number       Type             X           Y           Z
 ---------------------------------------------------------------------
      1          7           0        4.274032    0.159058    0.094434
      2          6           0        2.913084   -0.026626    0.050948
      3          7           0        2.152432    1.083631    0.032681
      4          6           0        0.806397    0.897188   -0.011228
      5          6           0        0.022663    2.200402    0.012205
      6          6           0        0.224481   -0.392090   -0.048945
      7          6           0       -1.236473   -0.718656   -0.104130
      8          8           0       -2.023230    0.319935   -0.465656
      9          6           0       -3.435374    0.178850   -0.583857
     10          6           0       -4.116166    0.309128    0.785896
     11          8           0       -1.672860   -1.855183    0.090473
     12          6           0        1.132385   -1.463044   -0.012728
     13          7           0        2.478979   -1.299761    0.034100
     14          1           0        4.860544   -0.656998    0.110594
     15          1           0        4.623097    1.101120    0.109021
     16          1           0       -0.732124    2.175312    0.797372
     17          1           0        0.662459    3.062993    0.202458
     18          1           0       -0.470469    2.356765   -0.946477
     19          1           0       -3.697562   -0.767617   -1.061897
     20          1           0       -3.797828    0.967561   -1.243749
     21          1           0       -3.801703   -0.490405    1.457536
     22          1           0       -3.870641    1.260445    1.257776
     23          1           0       -5.199836    0.251487    0.687684
     24          1           0        0.788706   -2.490091   -0.026335
 ---------------------------------------------------------------------
 Rotational constants (GHZ):           1.9819265           0.4350446           0.3692165
 Standard basis: 6-31G(d,p) (6D, 7F)
 There are   250 symmetry adapted cartesian basis functions of A   symmetry.
 There are   250 symmetry adapted basis functions of A   symmetry.
   250 basis functions,   441 primitive gaussians,   250 cartesian basis functions
    48 alpha electrons       48 beta electrons
       nuclear repulsion energy       784.7568785528 Hartrees.
 NAtoms=   24 NActive=   24 NUniq=   24 SFac= 1.00D+00 NAtFMM=   60 NAOKFM=F Big=F
 Integral buffers will be    131072 words long.
 Raffenetti 2 integral format.
 Two-electron integral symmetry is turned on.
 Nuclear repulsion after empirical dispersion term =      784.7153913217 Hartrees.
 One-electron integrals computed using PRISM.
 NBasis=   250 RedAO= T EigKep=  9.82D-04  NBF=   250
 NBsUse=   250 1.00D-06 EigRej= -1.00D+00 NBFU=   250
 ExpMin= 1.61D-01 ExpMax= 5.48D+03 ExpMxC= 8.25D+02 IAcc=3 IRadAn=         5 AccDes= 0.00D+00
 Harris functional with IExCor=  402 and IRadAn=       5 diagonalized for initial guess.
 HarFok:  IExCor=  402 AccDes= 0.00D+00 IRadAn=         5 IDoV= 1 UseB2=F ITyADJ=14
 ICtDFT=  3500011 ScaDFX=  1.000000  1.000000  1.000000  1.000000
 FoFCou: FMM=F IPFlag=           0 FMFlag=      100000 FMFlg1=           0
         NFxFlg=           0 DoJE=T BraDBF=F KetDBF=T FulRan=T
         wScrn=  0.000000 ICntrl=       500 IOpCl=  0 I1Cent=   200000004 NGrid=           0
         NMat0=    1 NMatS0=      1 NMatT0=    0 NMatD0=    1 NMtDS0=    0 NMtDT0=    0
 Petite list used in FoFCou.
 Requested convergence on RMS density matrix=1.00D-08 within 128 cycles.
 Requested convergence on MAX density matrix=1.00D-06.
 Requested convergence on             energy=1.00D-06.
 No special actions if energy rises.
 Integral accuracy reduced to 1.0D-05 until final iterations.
 Initial convergence to 1.0D-05 achieved.  Increase integral accuracy.
 SCF Done:  E(RB3LYP) =  -626.268267551     A.U. after   15 cycles
            NFock= 15  Conv=0.33D-08     -V/T= 2.0098

 **********************************************************************

            Population analysis using the SCF Density.

 **********************************************************************

 Orbital symmetries:
       Occupied  (A) (A) (A) (A) (A) (A) (A) (A) (A) (A) (A) (A)
                 (A) (A) (A) (A) (A) (A) (A) (A) (A) (A) (A) (A)
                 (A) (A) (A) (A) (A) (A) (A) (A) (A) (A) (A) (A)
                 (A) (A) (A) (A) (A) (A) (A) (A) (A) (A) (A) (A)
       Virtual   (A) (A) (A) (A) (A) (A) (A) (A) (A) (A) (A) (A)
                 (A) (A) (A) (A) (A) (A) (A) (A) (A) (A) (A) (A)
                 (A) (A) (A) (A) (A) (A) (A) (A) (A) (A) (A) (A)
                 (A) (A) (A) (A) (A) (A) (A) (A) (A) (A) (A) (A)
                 (A) (A) (A) (A) (A) (A) (A) (A) (A) (A) (A) (A)
                 (A) (A) (A) (A) (A) (A) (A) (A) (A) (A) (A) (A)
                 (A) (A) (A) (A) (A) (A) (A) (A) (A) (A) (A) (A)
                 (A) (A) (A) (A) (A) (A) (A) (A) (A) (A) (A) (A)
                 (A) (A) (A) (A) (A) (A) (A) (A) (A) (A) (A) (A)
                 (A) (A) (A) (A) (A) (A) (A) (A) (A) (A) (A) (A)
                 (A) (A) (A) (A) (A) (A) (A) (A) (A) (A) (A) (A)
                 (A) (A) (A) (A) (A) (A) (A) (A) (A) (A) (A) (A)
                 (A) (A) (A) (A) (A) (A) (A) (A) (A) (A) (A) (A)
                 (A) (A) (A) (A) (A) (A) (A) (A) (A) (A) (A) (A)
                 (A) (A) (A) (A) (A) (A) (A) (A) (A) (A) (A) (A)
                 (A) (A) (A) (A) (A) (A) (A) (A) (A) (A) (A) (A)
                 (A) (A) (A) (A) (A) (A) (A) (A) (A) (A)
 The electronic state is 1-A.
 Alpha  occ. eigenvalues --  -19.19249 -19.12993 -14.35668 -14.33060 -14.33020
 Alpha  occ. eigenvalues --  -10.32157 -10.29322 -10.25554 -10.24813 -10.24158
 Alpha  occ. eigenvalues --  -10.20707 -10.18359 -10.18282  -1.09832  -1.00518
 Alpha  occ. eigenvalues --   -0.99540  -0.90235  -0.88280  -0.79987  -0.76581
 Alpha  occ. eigenvalues --   -0.72764  -0.67759  -0.64102  -0.62799  -0.56785
 Alpha  occ. eigenvalues --   -0.55226  -0.52468  -0.51672  -0.49397  -0.47673
 Alpha  occ. eigenvalues --   -0.45655  -0.44611  -0.44126  -0.42396  -0.40960
 Alpha  occ. eigenvalues --   -0.40455  -0.39114  -0.38701  -0.38355  -0.36907
 Alpha  occ. eigenvalues --   -0.33656  -0.32189  -0.31730  -0.29945  -0.29502
 Alpha  occ. eigenvalues --   -0.26936  -0.24834  -0.23300
 Alpha virt. eigenvalues --   -0.03736  -0.03464   0.05207   0.08727   0.09753
 Alpha virt. eigenvalues --    0.12240   0.13225   0.13594   0.13985   0.14762
 Alpha virt. eigenvalues --    0.15392   0.15534   0.16828   0.17734   0.18770
 Alpha virt. eigenvalues --    0.20089   0.22004   0.22944   0.24271   0.25169
 Alpha virt. eigenvalues --    0.26944   0.30014   0.32857   0.34447   0.36349
 Alpha virt. eigenvalues --    0.40547   0.42706   0.47142   0.49100   0.50903
 Alpha virt. eigenvalues --    0.52198   0.53208   0.54321   0.54754   0.55464
 Alpha virt. eigenvalues --    0.56302   0.57509   0.59298   0.60082   0.61179
 Alpha virt. eigenvalues --    0.61809   0.63607   0.64358   0.64907   0.65017
 Alpha virt. eigenvalues --    0.66523   0.67289   0.68458   0.74207   0.75012
 Alpha virt. eigenvalues --    0.76504   0.78285   0.78881   0.79470   0.79797
 Alpha virt. eigenvalues --    0.82099   0.82743   0.84532   0.85359   0.86194
 Alpha virt. eigenvalues --    0.87339   0.88047   0.88798   0.89791   0.90835
 Alpha virt. eigenvalues --    0.93157   0.93799   0.95463   0.96628   0.97273
 Alpha virt. eigenvalues --    0.98952   1.01761   1.03243   1.06689   1.09653
 Alpha virt. eigenvalues --    1.09795   1.10737   1.15618   1.17504   1.22322
 Alpha virt. eigenvalues --    1.23938   1.26463   1.28637   1.29723   1.31650
 Alpha virt. eigenvalues --    1.33289   1.34171   1.36986   1.38873   1.41028
 Alpha virt. eigenvalues --    1.43270   1.45841   1.46740   1.50075   1.52046
 Alpha virt. eigenvalues --    1.55721   1.56463   1.58390   1.64154   1.64626
 Alpha virt. eigenvalues --    1.65269   1.68728   1.70231   1.73984   1.76324
 Alpha virt. eigenvalues --    1.76938   1.78228   1.81000   1.83271   1.84911
 Alpha virt. eigenvalues --    1.86509   1.87469   1.89675   1.91728   1.94892
 Alpha virt. eigenvalues --    1.96885   1.98556   2.00852   2.02171   2.02330
 Alpha virt. eigenvalues --    2.03261   2.04785   2.05863   2.06316   2.06951
 Alpha virt. eigenvalues --    2.07660   2.08172   2.08862   2.12478   2.13433
 Alpha virt. eigenvalues --    2.16315   2.17694   2.18903   2.20106   2.21926
 Alpha virt. eigenvalues --    2.25559   2.28691   2.29117   2.30609   2.31646
 Alpha virt. eigenvalues --    2.34039   2.36743   2.40376   2.41262   2.41810
 Alpha virt. eigenvalues --    2.44315   2.48212   2.48914   2.52304   2.53003
 Alpha virt. eigenvalues --    2.57269   2.57992   2.59949   2.60385   2.63074
 Alpha virt. eigenvalues --    2.63586   2.64954   2.69094   2.70645   2.72157
 Alpha virt. eigenvalues --    2.73841   2.74900   2.77407   2.77702   2.81108
 Alpha virt. eigenvalues --    2.83723   2.84356   2.87422   2.87776   2.91022
 Alpha virt. eigenvalues --    2.93116   2.94234   2.97960   3.00510   3.07410
 Alpha virt. eigenvalues --    3.16790   3.19025   3.21525   3.23559   3.27154
 Alpha virt. eigenvalues --    3.31147   3.39362   3.43256   3.44168   3.46582
 Alpha virt. eigenvalues --    3.47903   3.53441   3.56442   3.60528   4.00625
 Alpha virt. eigenvalues --    4.02814   4.06918   4.14450   4.18379   4.26954
 Alpha virt. eigenvalues --    4.33536   4.37896   4.40647   4.47048   4.54774
 Alpha virt. eigenvalues --    4.62854   4.70944
          Condensed to atoms (all electrons):
               1          2          3          4          5          6
     1  N    6.829313   0.318837  -0.099944   0.001651  -0.000223   0.001838
     2  C    0.318837   4.340499   0.432522  -0.054484   0.005391  -0.026218
     3  N   -0.099944   0.432522   6.923950   0.467650  -0.085395  -0.024570
     4  C    0.001651  -0.054484   0.467650   4.718009   0.383091   0.409068
     5  C   -0.000223   0.005391  -0.085395   0.383091   5.032165  -0.080948
     6  C    0.001838  -0.026218  -0.024570   0.409068  -0.080948   5.220676
     7  C    0.000012   0.001276   0.004036  -0.026989  -0.008923   0.311190
     8  O   -0.000000  -0.000009  -0.000002  -0.004515  -0.004028  -0.074146
     9  C    0.000000   0.000000   0.000003  -0.000174   0.000060   0.006576
    10  C   -0.000000  -0.000000  -0.000000   0.000006  -0.000052  -0.000537
    11  O   -0.000000  -0.000010  -0.000029   0.002416   0.000042  -0.083174
    12  C    0.001884  -0.062856  -0.039626  -0.046146   0.005776   0.432445
    13  N   -0.101866   0.440975  -0.078325  -0.036730  -0.000160  -0.026046
    14  H    0.336085  -0.015884   0.005022  -0.000097   0.000006  -0.000019
    15  H    0.337686  -0.017820   0.007110   0.000297  -0.000059   0.000015
    16  H    0.000002  -0.000203   0.002350  -0.025334   0.370692  -0.001179
    17  H   -0.000040   0.000627   0.004627  -0.022498   0.359693   0.004823
    18  H    0.000003  -0.000172   0.000982  -0.022774   0.370441  -0.000356
    19  H    0.000000   0.000000   0.000000  -0.000021   0.000011   0.000038
    20  H    0.000000  -0.000000  -0.000000   0.000005  -0.000003  -0.000143
    21  H   -0.000000   0.000000   0.000000  -0.000002  -0.000006  -0.000002
    22  H    0.000000   0.000000   0.000000  -0.000010  -0.000029  -0.000028
    23  H   -0.000000   0.000000   0.000000  -0.000000   0.000001   0.000005
    24  H   -0.000145   0.004140  -0.000256   0.004025  -0.000117  -0.058175
               7          8          9         10         11         12
     1  N    0.000012  -0.000000   0.000000  -0.000000  -0.000000   0.001884
     2  C    0.001276  -0.000009   0.000000  -0.000000  -0.000010  -0.062856
     3  N    0.004036  -0.000002   0.000003  -0.000000  -0.000029  -0.039626
     4  C   -0.026989  -0.004515  -0.000174   0.000006   0.002416  -0.046146
     5  C   -0.008923  -0.004028   0.000060  -0.000052   0.000042   0.005776
     6  C    0.311190  -0.074146   0.006576  -0.000537  -0.083174   0.432445
     7  C    4.424357   0.235287  -0.012795  -0.005116   0.531647  -0.040450
     8  O    0.235287   8.295660   0.207071  -0.040186  -0.082641   0.003108
     9  C   -0.012795   0.207071   4.697700   0.369489   0.003355  -0.000166
    10  C   -0.005116  -0.040186   0.369489   4.969517  -0.003276   0.000010
    11  O    0.531647  -0.082641   0.003355  -0.003276   8.101839   0.003227
    12  C   -0.040450   0.003108  -0.000166   0.000010   0.003227   4.806678
    13  N    0.004527  -0.000021   0.000000   0.000000   0.000363   0.440844
    14  H   -0.000001   0.000000  -0.000000   0.000000   0.000000   0.000236
    15  H   -0.000001   0.000000  -0.000000   0.000000   0.000000  -0.000157
    16  H    0.001347   0.002765  -0.000003  -0.000016  -0.000021   0.000029
    17  H    0.000093   0.000525  -0.000015   0.000001   0.000001  -0.000141
    18  H    0.000716   0.002700   0.000237   0.000024   0.000010  -0.000112
    19  H   -0.005432  -0.030787   0.377741  -0.040038   0.012119   0.000013
    20  H    0.003710  -0.033685   0.392769  -0.046518   0.000272   0.000001
    21  H    0.003461  -0.004016  -0.028607   0.388083   0.004679  -0.000005
    22  H    0.000192   0.000366  -0.033167   0.383642   0.000090  -0.000000
    23  H    0.000039   0.003065  -0.025046   0.366848   0.000008  -0.000000
    24  H   -0.003296   0.000206  -0.000007   0.000000   0.012465   0.385539
              13         14         15         16         17         18
     1  N   -0.101866   0.336085   0.337686   0.000002  -0.000040   0.000003
     2  C    0.440975  -0.015884  -0.017820  -0.000203   0.000627  -0.000172
     3  N   -0.078325   0.005022   0.007110   0.002350   0.004627   0.000982
     4  C   -0.036730  -0.000097   0.000297  -0.025334  -0.022498  -0.022774
     5  C   -0.000160   0.000006  -0.000059   0.370692   0.359693   0.370441
     6  C   -0.026046  -0.000019   0.000015  -0.001179   0.004823  -0.000356
     7  C    0.004527  -0.000001  -0.000001   0.001347   0.000093   0.000716
     8  O   -0.000021   0.000000   0.000000   0.002765   0.000525   0.002700
     9  C    0.000000  -0.000000  -0.000000  -0.000003  -0.000015   0.000237
    10  C    0.000000   0.000000   0.000000  -0.000016   0.000001   0.000024
    11  O    0.000363   0.000000   0.000000  -0.000021   0.000001   0.000010
    12  C    0.440844   0.000236  -0.000157   0.000029  -0.000141  -0.000112
    13  N    6.879787   0.007139   0.005116   0.000020   0.000044   0.000014
    14  H    0.007139   0.404763  -0.022154  -0.000000   0.000000  -0.000000
    15  H    0.005116  -0.022154   0.406536   0.000001   0.000034   0.000001
    16  H    0.000020  -0.000000   0.000001   0.579264  -0.029058  -0.026007
    17  H    0.000044   0.000000   0.000034  -0.029058   0.584495  -0.026988
    18  H    0.000014  -0.000000   0.000001  -0.026007  -0.026988   0.565200
    19  H    0.000000  -0.000000  -0.000000   0.000023   0.000001  -0.000001
    20  H   -0.000000   0.000000   0.000000   0.000017  -0.000004  -0.000001
    21  H   -0.000000  -0.000000  -0.000000  -0.000001  -0.000000   0.000000
    22  H    0.000000  -0.000000   0.000000   0.000663   0.000003  -0.000002
    23  H    0.000000  -0.000000  -0.000000   0.000003  -0.000000  -0.000001
    24  H   -0.045274  -0.000028   0.000005   0.000000   0.000002   0.000001
              19         20         21         22         23         24
     1  N    0.000000   0.000000  -0.000000   0.000000  -0.000000  -0.000145
     2  C    0.000000  -0.000000   0.000000   0.000000   0.000000   0.004140
     3  N    0.000000  -0.000000   0.000000   0.000000   0.000000  -0.000256
     4  C   -0.000021   0.000005  -0.000002  -0.000010  -0.000000   0.004025
     5  C    0.000011  -0.000003  -0.000006  -0.000029   0.000001  -0.000117
     6  C    0.000038  -0.000143  -0.000002  -0.000028   0.000005  -0.058175
     7  C   -0.005432   0.003710   0.003461   0.000192   0.000039  -0.003296
     8  O   -0.030787  -0.033685  -0.004016   0.000366   0.003065   0.000206
     9  C    0.377741   0.392769  -0.028607  -0.033167  -0.025046  -0.000007
    10  C   -0.040038  -0.046518   0.388083   0.383642   0.366848   0.000000
    11  O    0.012119   0.000272   0.004679   0.000090   0.000008   0.012465
    12  C    0.000013   0.000001  -0.000005  -0.000000  -0.000000   0.385539
    13  N    0.000000  -0.000000  -0.000000   0.000000   0.000000  -0.045274
    14  H   -0.000000   0.000000  -0.000000  -0.000000  -0.000000  -0.000028
    15  H   -0.000000   0.000000  -0.000000   0.000000  -0.000000   0.000005
    16  H    0.000023   0.000017  -0.000001   0.000663   0.000003   0.000000
    17  H    0.000001  -0.000004  -0.000000   0.000003  -0.000000   0.000002
    18  H   -0.000001  -0.000001   0.000000  -0.000002  -0.000001   0.000001
    19  H    0.602224  -0.043011  -0.005739   0.005085   0.000372  -0.000007
    20  H   -0.043011   0.616025   0.004835  -0.005993  -0.000358   0.000000
    21  H   -0.005739   0.004835   0.558667  -0.032301  -0.026978  -0.000001
    22  H    0.005085  -0.005993  -0.032301   0.594358  -0.028623  -0.000000
    23  H    0.000372  -0.000358  -0.026978  -0.028623   0.600752  -0.000000
    24  H   -0.000007   0.000000  -0.000001  -0.000000  -0.000000   0.563595
 Mulliken charges:
               1
     1  N   -0.625094
     2  C    0.633390
     3  N   -0.520104
     4  C    0.253555
     5  C   -0.347428
     6  C   -0.011134
     7  C    0.581113
     8  O   -0.476716
     9  C    0.044977
    10  C   -0.341883
    11  O   -0.503382
    12  C    0.109871
    13  N   -0.490407
    14  H    0.284933
    15  H    0.283389
    16  H    0.124645
    17  H    0.123775
    18  H    0.136084
    19  H    0.127408
    20  H    0.112083
    21  H    0.137931
    22  H    0.115754
    23  H    0.109915
    24  H    0.137326
 Sum of Mulliken charges =  -0.00000
 Mulliken charges with hydrogens summed into heavy atoms:
               1
     1  N   -0.056772
     2  C    0.633390
     3  N   -0.520104
     4  C    0.253555
     5  C    0.037076
     6  C   -0.011134
     7  C    0.581113
     8  O   -0.476716
     9  C    0.284468
    10  C    0.021716
    11  O   -0.503382
    12  C    0.247197
    13  N   -0.490407
 Electronic spatial extent (au):  <R**2>=           2947.3066
 Charge=             -0.0000 electrons
 Dipole moment (field-independent basis, Debye):
    X=              0.3238    Y=              2.4126    Z=             -0.3006  Tot=              2.4527
 Quadrupole moment (field-independent basis, Debye-Ang):
   XX=            -55.2501   YY=            -79.9159   ZZ=            -75.3778
   XY=             -2.9010   XZ=              1.6540   YZ=              0.7786
 Traceless Quadrupole moment (field-independent basis, Debye-Ang):
   XX=             14.9312   YY=             -9.7346   ZZ=             -5.1965
   XY=             -2.9010   XZ=              1.6540   YZ=              0.7786
 Octapole moment (field-independent basis, Debye-Ang**2):
  XXX=             51.3930  YYY=              9.5772  ZZZ=             -2.3345  XYY=              4.4866
  XXY=             16.7770  XXZ=             -3.1070  XZZ=             -8.7533  YZZ=             -0.9438
  YYZ=             -1.8915  XYZ=             -0.5253
 Hexadecapole moment (field-independent basis, Debye-Ang**3):
 XXXX=          -2257.0146 YYYY=           -681.9446 ZZZZ=           -144.7841 XXXY=             26.6797
 XXXZ=             43.5438 YYYX=             -2.5870 YYYZ=              1.8865 ZZZX=              6.3870
 ZZZY=             -2.6955 XXYY=           -625.8879 XXZZ=           -532.1853 YYZZ=           -135.4779
 XXYZ=              0.4510 YYXZ=              5.2444 ZZXY=              2.2828
 N-N= 7.847153913217D+02 E-N=-3.028589903309D+03  KE= 6.202066703235D+02
 Calling FoFJK, ICntrl=      2127 FMM=F ISym2X=0 I1Cent= 0 IOpClX= 0 NMat=1 NMatS=1 NMatT=0.
 ***** Axes restored to original set *****
 -------------------------------------------------------------------
 Center     Atomic                   Forces (Hartrees/Bohr)
 Number     Number              X              Y              Z
 -------------------------------------------------------------------
      1        7           0.022392674   -0.005904020   -0.000442591
      2        6          -0.013292899    0.003401115   -0.000600359
      3        7           0.022163603   -0.001864106    0.001304340
      4        6          -0.024753825   -0.011991498   -0.002427360
      5        6           0.000893843    0.005217853    0.002526640
      6        6           0.003454143   -0.003462194    0.000516794
      7        6           0.016532766    0.021186686    0.003350914
      8        8          -0.018170373   -0.004386261   -0.004895182
      9        6           0.017515052   -0.000927919    0.012525362
     10        6          -0.002394643    0.005133225   -0.001766203
     11        8          -0.015300766   -0.016829020   -0.006765277
     12        6          -0.029254214    0.003726156   -0.000260201
     13        7           0.026740173   -0.002338831    0.000704820
     14        1          -0.003134239   -0.000737886   -0.000293724
     15        1          -0.002440129    0.002082260    0.000395755
     16        1           0.005164661   -0.000534899   -0.001479708
     17        1          -0.003891910    0.007001837    0.000511329
     18        1           0.004775085   -0.001057258   -0.000513764
     19        1          -0.002339985    0.004493531    0.003043168
     20        1          -0.008302522   -0.000810936   -0.002258622
     21        1          -0.000542711    0.002610298   -0.000074887
     22        1          -0.002346081   -0.002149810   -0.001038635
     23        1           0.002978513   -0.000760220   -0.002205146
     24        1           0.003553783   -0.001098104    0.000142536
 -------------------------------------------------------------------
 Cartesian Forces:  Max     0.029254214 RMS     0.009202742

 GradGradGradGradGradGradGradGradGradGradGradGradGradGradGradGradGradGrad
 Berny optimization.
 FormGI is forming the generalized inverse of G from B-inverse, IUseBI=4.
 Internal  Forces:  Max     0.029507858 RMS     0.006176822
 Search for a local minimum.
 Step number   1 out of a maximum of  117
 All quantities printed in internal units (Hartrees-Bohrs-Radians)
 Mixed Optimization -- RFO/linear search
 Second derivative matrix not updated -- first step.
 ITU=  0
     Eigenvalues ---    0.00301   0.00489   0.00792   0.01325   0.01331
     Eigenvalues ---    0.01373   0.01570   0.01973   0.02032   0.02032
     Eigenvalues ---    0.02098   0.02206   0.02243   0.02325   0.02387
     Eigenvalues ---    0.04850   0.05456   0.05496   0.05798   0.07010
     Eigenvalues ---    0.07189   0.11504   0.13883   0.16000   0.16000
     Eigenvalues ---    0.16000   0.16000   0.16000   0.16000   0.16000
     Eigenvalues ---    0.16000   0.16000   0.21968   0.23292   0.24971
     Eigenvalues ---    0.24995   0.24996   0.24998   0.25000   0.25000
     Eigenvalues ---    0.25000   0.25000   0.28953   0.30280   0.32585
     Eigenvalues ---    0.34551   0.34733   0.34752   0.34771   0.34820
     Eigenvalues ---    0.34855   0.34881   0.34887   0.35621   0.41695
     Eigenvalues ---    0.41851   0.43536   0.46805   0.46861   0.50170
     Eigenvalues ---    0.50318   0.53278   0.53499   0.54563   0.55692
     Eigenvalues ---    0.89896
 RFO step:  Lambda=-1.22194653D-02 EMin= 3.01035700D-03
 Linear search not attempted -- first point.
 Iteration  1 RMS(Cart)=  0.10257069 RMS(Int)=  0.00215584
 Iteration  2 RMS(Cart)=  0.00508871 RMS(Int)=  0.00039036
 Iteration  3 RMS(Cart)=  0.00000874 RMS(Int)=  0.00039034
 Iteration  4 RMS(Cart)=  0.00000000 RMS(Int)=  0.00039034
 Variable       Old X    -DE/DX   Delta X   Delta X   Delta X     New X
                                 (Linear)    (Quad)   (Total)
    R1        2.59695  -0.01743   0.00000  -0.03391  -0.03391   2.56303
    R2        1.89934  -0.00005   0.00000  -0.00011  -0.00011   1.89923
    R3        1.89872   0.00012   0.00000   0.00024   0.00024   1.89896
    R4        2.54349   0.00203   0.00000   0.00424   0.00421   2.54770
    R5        2.54209   0.00124   0.00000   0.00246   0.00243   2.54451
    R6        2.56926  -0.02248   0.00000  -0.04097  -0.04097   2.52830
    R7        2.87409  -0.00955   0.00000  -0.03031  -0.03031   2.84378
    R8        2.67400  -0.00353   0.00000  -0.00824  -0.00820   2.66580
    R9        2.05869   0.00224   0.00000   0.00622   0.00622   2.06491
   R10        2.06110  -0.00027   0.00000  -0.00075  -0.00075   2.06035
   R11        2.05859   0.00263   0.00000   0.00727   0.00727   2.06586
   R12        2.83086  -0.01352   0.00000  -0.03999  -0.03999   2.79086
   R13        2.65407  -0.00411   0.00000  -0.00977  -0.00973   2.64433
   R14        2.55523  -0.00771   0.00000  -0.01382  -0.01382   2.54141
   R15        2.32981  -0.02366   0.00000  -0.02597  -0.02597   2.30384
   R16        2.69114   0.00163   0.00000   0.00379   0.00379   2.69493
   R17        2.90101  -0.00709   0.00000  -0.02348  -0.02348   2.87752
   R18        2.06410   0.00132   0.00000   0.00369   0.00369   2.06779
   R19        2.06049   0.00164   0.00000   0.00455   0.00455   2.06504
   R20        2.06079   0.00167   0.00000   0.00463   0.00463   2.06542
   R21        2.05968   0.00277   0.00000   0.00768   0.00768   2.06736
   R22        2.05912   0.00325   0.00000   0.00900   0.00900   2.06811
   R23        2.56486  -0.02951   0.00000  -0.05438  -0.05439   2.51047
   R24        2.04678   0.00156   0.00000   0.00424   0.00424   2.05102
    A1        2.05862   0.00205   0.00000   0.01190   0.01190   2.07052
    A2        2.06144   0.00204   0.00000   0.01185   0.01185   2.07329
    A3        2.16313  -0.00409   0.00000  -0.02375  -0.02375   2.13937
    A4        2.03604  -0.00171   0.00000  -0.00734  -0.00731   2.02873
    A5        2.03516  -0.00156   0.00000  -0.00679  -0.00676   2.02840
    A6        2.21198   0.00327   0.00000   0.01412   0.01406   2.22604
    A7        2.03401   0.00068   0.00000   0.00591   0.00586   2.03987
    A8        1.97378   0.00933   0.00000   0.03555   0.03551   2.00929
    A9        2.13287  -0.00730   0.00000  -0.02762  -0.02760   2.10527
   A10        2.17635  -0.00202   0.00000  -0.00774  -0.00777   2.16858
   A11        1.92665   0.00262   0.00000   0.01523   0.01536   1.94202
   A12        1.95852  -0.01115   0.00000  -0.06173  -0.06158   1.89694
   A13        1.92059   0.00244   0.00000   0.01117   0.01119   1.93178
   A14        1.87435   0.00557   0.00000   0.03795   0.03821   1.91256
   A15        1.90069  -0.00383   0.00000  -0.02816  -0.02816   1.87253
   A16        1.88130   0.00453   0.00000   0.02644   0.02648   1.90778
   A17        2.21514  -0.00011   0.00000   0.00079   0.00075   2.21589
   A18        2.01334   0.00652   0.00000   0.02246   0.02253   2.03588
   A19        2.05461  -0.00641   0.00000  -0.02324  -0.02328   2.03133
   A20        1.99309  -0.00398   0.00000  -0.01297  -0.01512   1.97797
   A21        2.14164   0.00306   0.00000   0.01377   0.01161   2.15325
   A22        2.14637   0.00111   0.00000   0.00653   0.00438   2.15075
   A23        2.12124  -0.02523   0.00000  -0.09622  -0.09622   2.02502
   A24        1.93616   0.00405   0.00000   0.00843   0.00858   1.94474
   A25        1.93927  -0.00281   0.00000  -0.02781  -0.02788   1.91139
   A26        1.88409  -0.00670   0.00000  -0.05502  -0.05500   1.82909
   A27        1.93648  -0.00148   0.00000  -0.00074  -0.00109   1.93539
   A28        1.90837   0.00411   0.00000   0.03635   0.03611   1.94448
   A29        1.85680   0.00272   0.00000   0.03961   0.03851   1.89532
   A30        1.93846  -0.00201   0.00000  -0.01083  -0.01088   1.92758
   A31        1.93957  -0.00171   0.00000  -0.01000  -0.01006   1.92951
   A32        1.93492  -0.00193   0.00000  -0.01204  -0.01212   1.92280
   A33        1.88422   0.00219   0.00000   0.01427   0.01424   1.89846
   A34        1.87917   0.00208   0.00000   0.01218   0.01211   1.89128
   A35        1.88517   0.00170   0.00000   0.00824   0.00815   1.89333
   A36        2.15377   0.00247   0.00000   0.00760   0.00764   2.16141
   A37        2.11486  -0.00468   0.00000  -0.02383  -0.02384   2.09102
   A38        2.01454   0.00221   0.00000   0.01623   0.01621   2.03075
   A39        2.02023  -0.00563   0.00000  -0.02250  -0.02255   1.99768
    D1        3.13948  -0.00003   0.00000  -0.00098  -0.00097   3.13851
    D2        0.00043   0.00005   0.00000   0.00171   0.00170   0.00213
    D3       -0.00114   0.00001   0.00000   0.00030   0.00031  -0.00083
    D4       -3.14020   0.00010   0.00000   0.00299   0.00298  -3.13722
    D5        3.14086  -0.00019   0.00000  -0.00560  -0.00565   3.13521
    D6       -0.00356  -0.00029   0.00000  -0.00865  -0.00872  -0.01228
    D7       -3.13844   0.00006   0.00000   0.00136   0.00129  -3.13715
    D8        0.00598   0.00017   0.00000   0.00440   0.00435   0.01034
    D9        3.11202   0.00049   0.00000   0.01675   0.01676   3.12877
   D10       -0.01021   0.00027   0.00000   0.00678   0.00675  -0.00346
   D11       -2.23155  -0.00102   0.00000  -0.01371  -0.01369  -2.24524
   D12       -0.14148   0.00044   0.00000   0.00392   0.00375  -0.13773
   D13        1.95324   0.00050   0.00000   0.00440   0.00431   1.95755
   D14        0.89010  -0.00086   0.00000  -0.00369  -0.00351   0.88660
   D15        2.98018   0.00061   0.00000   0.01394   0.01393   2.99411
   D16       -1.20829   0.00066   0.00000   0.01442   0.01449  -1.19379
   D17       -3.13692  -0.00007   0.00000  -0.00050  -0.00057  -3.13749
   D18        0.01980  -0.00004   0.00000  -0.00112  -0.00119   0.01861
   D19        0.02635  -0.00044   0.00000  -0.01211  -0.01199   0.01436
   D20       -3.10011  -0.00041   0.00000  -0.01272  -0.01261  -3.11272
   D21        0.28608  -0.00211   0.00000  -0.08865  -0.08871   0.19737
   D22       -2.92293   0.00089   0.00000   0.03017   0.03023  -2.89270
   D23       -2.87096  -0.00205   0.00000  -0.08767  -0.08774  -2.95869
   D24        0.20321   0.00096   0.00000   0.03115   0.03120   0.23441
   D25       -0.01741  -0.00018   0.00000  -0.00377  -0.00374  -0.02115
   D26        3.13015  -0.00019   0.00000  -0.00468  -0.00468   3.12547
   D27        3.13785  -0.00020   0.00000  -0.00450  -0.00446   3.13339
   D28        0.00222  -0.00021   0.00000  -0.00541  -0.00540  -0.00318
   D29        3.12801   0.00188   0.00000   0.06926   0.06904  -3.08614
   D30        0.05405  -0.00121   0.00000  -0.05024  -0.05002   0.00403
   D31        1.44202  -0.00129   0.00000  -0.00541  -0.00535   1.43667
   D32       -0.72088  -0.00029   0.00000   0.00951   0.00983  -0.71106
   D33       -2.75061   0.00194   0.00000   0.00960   0.00922  -2.74138
   D34       -1.10321  -0.00059   0.00000  -0.00677  -0.00678  -1.11000
   D35        0.99473  -0.00032   0.00000  -0.00270  -0.00274   0.99199
   D36        3.09150  -0.00061   0.00000  -0.00701  -0.00702   3.08448
   D37        1.06128  -0.00236   0.00000  -0.03713  -0.03733   1.02395
   D38       -3.12396  -0.00209   0.00000  -0.03306  -0.03328   3.12594
   D39       -1.02719  -0.00238   0.00000  -0.03736  -0.03757  -1.06476
   D40        3.10397   0.00259   0.00000   0.03299   0.03322   3.13720
   D41       -1.08127   0.00286   0.00000   0.03706   0.03727  -1.04400
   D42        1.01550   0.00258   0.00000   0.03275   0.03299   1.04848
   D43        0.00540   0.00005   0.00000   0.00206   0.00204   0.00744
   D44        3.14135   0.00003   0.00000   0.00280   0.00282  -3.13901
         Item               Value     Threshold  Converged?
 Maximum Force            0.029508     0.000450     NO 
 RMS     Force            0.006177     0.000300     NO 
 Maximum Displacement     0.297936     0.001800     NO 
 RMS     Displacement     0.105216     0.001200     NO 
 Predicted change in Energy=-6.571965D-03
 GradGradGradGradGradGradGradGradGradGradGradGradGradGradGradGradGradGrad

                          Input orientation:                          
 ---------------------------------------------------------------------
 Center     Atomic      Atomic             Coordinates (Angstroms)
 Number     Number       Type             X           Y           Z
 ---------------------------------------------------------------------
      1          7           0       -4.236638    1.509756    0.115306
      2          6           0       -2.932928    1.141718    0.048716
      3          7           0       -2.693210   -0.154262   -0.235128
      4          6           0       -1.411294   -0.529625   -0.311386
      5          6           0       -1.189164   -1.987133   -0.612955
      6          6           0       -0.375277    0.405302   -0.104979
      7          6           0        1.077803    0.147161   -0.160153
      8          8           0        1.385624   -1.057634   -0.672352
      9          6           0        2.770984   -1.395715   -0.687463
     10          6           0        3.226645   -1.935131    0.661639
     11          8           0        1.913732    0.924376    0.268178
     12          6           0       -0.763153    1.714574    0.200729
     13          7           0       -2.028343    2.111931    0.279956
     14          1           0       -4.456527    2.467246    0.327311
     15          1           0       -4.944488    0.815217   -0.047051
     16          1           0       -0.502638   -2.440551    0.106138
     17          1           0       -2.149588   -2.501857   -0.575836
     18          1           0       -0.749567   -2.113348   -1.605892
     19          1           0        3.358200   -0.518450   -0.975413
     20          1           0        2.865466   -2.150947   -1.471587
     21          1           0        3.129791   -1.166439    1.432561
     22          1           0        2.625681   -2.802125    0.951458
     23          1           0        4.275941   -2.241838    0.610493
     24          1           0       -0.007851    2.472073    0.384308
 ---------------------------------------------------------------------
                    Distance matrix (angstroms):
                    1          2          3          4          5
     1  N    0.000000
     2  C    1.356299   0.000000
     3  N    2.296504   1.348183   0.000000
     4  C    3.510513   2.288761   1.337916   0.000000
     5  C    4.695285   3.642558   2.400901   1.504865   0.000000
     6  C    4.022245   2.665991   2.388068   1.410682   2.577634
     7  C    5.493253   4.137479   3.783784   2.583896   3.146328
     8  O    6.230708   4.899692   4.200492   2.869119   2.738070
     9  C    7.628431   6.286106   5.621675   4.287540   4.004759
    10  C    8.238101   6.912525   6.246628   4.942945   4.596374
    11  O    6.180056   4.856491   4.758224   3.675025   4.345255
    12  C    3.480566   2.249265   2.721698   2.391396   3.813949
    13  N    2.294841   1.346499   2.417229   2.776374   4.278299
    14  H    1.005030   2.038626   3.209039   4.320024   5.603683
    15  H    1.004886   2.040135   2.458356   3.789714   4.719733
    16  H    5.435785   4.329233   3.184680   2.156762   1.092703
    17  H    4.574548   3.778799   2.433681   2.122431   1.090290
    18  H    5.314985   4.254439   3.081357   2.149839   1.093206
    19  H    7.936299   6.586599   6.107390   4.815509   4.792382
    20  H    8.146094   6.839176   6.034439   4.718625   4.147783
    21  H    7.947419   6.633188   6.141094   4.905950   4.848819
    22  H    8.147569   6.875098   6.058859   4.801688   4.202933
    23  H    9.315775   7.983222   7.324078   6.010506   5.606164
    24  H    4.345233   3.230873   3.806900   3.385828   4.719592
                    6          7          8          9         10
     6  C    0.000000
     7  C    1.476862   0.000000
     8  O    2.358573   1.344855   0.000000
     9  C    3.671771   2.350613   1.426096   0.000000
    10  C    4.363389   3.103031   2.436984   1.522719   0.000000
    11  O    2.376603   1.219142   2.256515   2.651594   3.171014
    12  C    1.399321   2.444615   3.614506   4.790919   5.426903
    13  N    2.406945   3.701643   4.754809   6.022708   6.643740
    14  H    4.592939   6.020733   6.896001   8.257672   8.861367
    15  H    4.587928   6.060288   6.630905   8.051513   8.650669
    16  H    2.856513   3.043839   2.466584   3.526767   3.804153
    17  H    3.438235   4.195968   3.820055   5.044605   5.545846
    18  H    2.955745   3.246436   2.558333   3.708475   4.580798
    19  H    3.943326   2.511553   2.067274   1.094226   2.168924
    20  H    4.347923   3.193258   2.006001   1.092773   2.174322
    21  H    4.137620   2.910831   2.735803   2.162363   1.092972
    22  H    4.517675   3.511395   2.686587   2.164524   1.093997
    23  H    5.399359   4.065624   3.376679   2.159979   1.094398
    24  H    2.155445   2.623032   3.939180   4.881639   5.473785
                   11         12         13         14         15
    11  O    0.000000
    12  C    2.791895   0.000000
    13  N    4.117084   1.328485   0.000000
    14  H    6.554704   3.771412   2.454500   0.000000
    15  H    6.866329   4.284134   3.208163   1.762797   0.000000
    16  H    4.145821   4.164358   4.804486   6.306237   5.509403
    17  H    5.381635   4.505946   4.694052   5.552443   4.369675
    18  H    4.453432   4.232854   4.800487   6.201667   5.348256
    19  H    2.390555   4.832728   6.124516   8.466488   8.460210
    20  H    3.659260   5.559296   6.722305   8.841680   8.474834
    21  H    2.684417   4.997266   6.219530   8.483954   8.444537
    22  H    3.854938   5.696347   6.801382   8.849492   8.449240
    23  H    3.965113   6.419780   7.668674   9.925304   9.736235
    24  H    2.470088   1.085351   2.054988   4.449043   5.225096
                   16         17         18         19         20
    16  H    0.000000
    17  H    1.783618   0.000000
    18  H    1.760421   1.781015   0.000000
    19  H    4.446380   5.867648   4.451399   0.000000
    20  H    3.730577   5.106493   3.617722   1.775956   0.000000
    21  H    4.071523   5.804210   5.017794   2.504077   3.077856
    22  H    3.260626   5.022548   4.290309   3.076456   2.520451
    23  H    4.809228   6.539298   5.494051   2.515435   2.516497
    24  H    4.945307   5.499899   5.053427   4.703442   5.750878
                   21         22         23         24
    21  H    0.000000
    22  H    1.777935   0.000000
    23  H    1.773679   1.775820   0.000000
    24  H    4.917561   5.922357   6.373617   0.000000
 Stoichiometry    C8H11N3O2
 Framework group  C1[X(C8H11N3O2)]
 Deg. of freedom    66
 Full point group                 C1      NOp   1
 Largest Abelian subgroup         C1      NOp   1
 Largest concise Abelian subgroup C1      NOp   1
                         Standard orientation:                         
 ---------------------------------------------------------------------
 Center     Atomic      Atomic             Coordinates (Angstroms)
 Number     Number       Type             X           Y           Z
 ---------------------------------------------------------------------
      1          7           0        4.207191    0.097235    0.159431
      2          6           0        2.862505   -0.060845    0.079565
      3          7           0        2.129823    1.070584    0.054248
      4          6           0        0.802157    0.929580   -0.032012
      5          6           0        0.022128    2.216480   -0.039941
      6          6           0        0.218440   -0.353043   -0.096635
      7          6           0       -1.220464   -0.669727   -0.198561
      8          8           0       -1.984039    0.403453   -0.470357
      9          6           0       -3.391237    0.175820   -0.511898
     10          6           0       -3.998422    0.189826    0.884455
     11          8           0       -1.678004   -1.782169    0.000020
     12          6           0        1.093016   -1.444040   -0.042382
     13          7           0        2.413952   -1.329851    0.041051
     14          1           0        4.787909   -0.722691    0.183366
     15          1           0        4.583820    1.028218    0.194318
     16          1           0       -0.774630    2.201666    0.707693
     17          1           0        0.704949    3.040137    0.170006
     18          1           0       -0.448788    2.376553   -1.013448
     19          1           0       -3.593093   -0.774366   -1.015616
     20          1           0       -3.787238    0.987414   -1.127244
     21          1           0       -3.595197   -0.630046    1.484297
     22          1           0       -3.779865    1.135694    1.388832
     23          1           0       -5.084761    0.071466    0.824738
     24          1           0        0.697735   -2.454390   -0.072916
 ---------------------------------------------------------------------
 Rotational constants (GHZ):           1.9974435           0.4503673           0.3819364
 Standard basis: 6-31G(d,p) (6D, 7F)
 There are   250 symmetry adapted cartesian basis functions of A   symmetry.
 There are   250 symmetry adapted basis functions of A   symmetry.
   250 basis functions,   441 primitive gaussians,   250 cartesian basis functions
    48 alpha electrons       48 beta electrons
       nuclear repulsion energy       793.9004615631 Hartrees.
 NAtoms=   24 NActive=   24 NUniq=   24 SFac= 1.00D+00 NAtFMM=   60 NAOKFM=F Big=F
 Integral buffers will be    131072 words long.
 Raffenetti 2 integral format.
 Two-electron integral symmetry is turned on.
 Nuclear repulsion after empirical dispersion term =      793.8583279310 Hartrees.
 One-electron integrals computed using PRISM.
 NBasis=   250 RedAO= T EigKep=  9.33D-04  NBF=   250
 NBsUse=   250 1.00D-06 EigRej= -1.00D+00 NBFU=   250
 Initial guess from the checkpoint file:  "pyrmd1_conf-4.chk"
 B after Tr=    -0.000000   -0.000000   -0.000000
         Rot=    0.999940   -0.010754   -0.000815    0.001749 Ang=  -1.25 deg.
 ExpMin= 1.61D-01 ExpMax= 5.48D+03 ExpMxC= 8.25D+02 IAcc=3 IRadAn=         5 AccDes= 0.00D+00
 Harris functional with IExCor=  402 and IRadAn=       5 diagonalized for initial guess.
 HarFok:  IExCor=  402 AccDes= 0.00D+00 IRadAn=         5 IDoV= 1 UseB2=F ITyADJ=14
 ICtDFT=  3500011 ScaDFX=  1.000000  1.000000  1.000000  1.000000
 FoFCou: FMM=F IPFlag=           0 FMFlag=      100000 FMFlg1=           0
         NFxFlg=           0 DoJE=T BraDBF=F KetDBF=T FulRan=T
         wScrn=  0.000000 ICntrl=       500 IOpCl=  0 I1Cent=   200000004 NGrid=           0
         NMat0=    1 NMatS0=      1 NMatT0=    0 NMatD0=    1 NMtDS0=    0 NMtDT0=    0
 Petite list used in FoFCou.
 Requested convergence on RMS density matrix=1.00D-08 within 128 cycles.
 Requested convergence on MAX density matrix=1.00D-06.
 Requested convergence on             energy=1.00D-06.
 No special actions if energy rises.
 Integral accuracy reduced to 1.0D-05 until final iterations.
 Initial convergence to 1.0D-05 achieved.  Increase integral accuracy.
 SCF Done:  E(RB3LYP) =  -626.274010580     A.U. after   13 cycles
            NFock= 13  Conv=0.26D-08     -V/T= 2.0092
 Calling FoFJK, ICntrl=      2127 FMM=F ISym2X=0 I1Cent= 0 IOpClX= 0 NMat=1 NMatS=1 NMatT=0.
 ***** Axes restored to original set *****
 -------------------------------------------------------------------
 Center     Atomic                   Forces (Hartrees/Bohr)
 Number     Number              X              Y              Z
 -------------------------------------------------------------------
      1        7           0.004923689   -0.001795641   -0.000575803
      2        6          -0.010211353    0.000073345   -0.000062797
      3        7           0.004689175    0.000516566    0.001030876
      4        6          -0.004489208   -0.002853335   -0.001890309
      5        6          -0.002255727   -0.000859108    0.001263168
      6        6           0.004662019    0.000970324   -0.002270795
      7        6          -0.003466653    0.003146351    0.011888485
      8        8          -0.005050490   -0.001393471   -0.004619869
      9        6           0.012607541   -0.003231395   -0.001115407
     10        6          -0.000895406    0.000467379    0.000215640
     11        8           0.001026179    0.001577338   -0.004093047
     12        6          -0.005483221    0.004448478    0.000753500
     13        7           0.005316025   -0.000244399    0.000254487
     14        1          -0.001681292   -0.000045876   -0.000021337
     15        1          -0.001447828    0.000944824    0.000220533
     16        1           0.000300040    0.000374380   -0.001372504
     17        1          -0.000650508    0.000585853   -0.000421901
     18        1           0.000987612   -0.000300030    0.000565650
     19        1          -0.001161281   -0.000170125    0.000906208
     20        1          -0.000349050   -0.000592264    0.000426192
     21        1           0.000202888   -0.000112830   -0.000782687
     22        1           0.000252703   -0.000308295    0.000047928
     23        1          -0.000067056   -0.000135227   -0.000264835
     24        1           0.002241202   -0.001062844   -0.000081374
 -------------------------------------------------------------------
 Cartesian Forces:  Max     0.012607541 RMS     0.003174579

 GradGradGradGradGradGradGradGradGradGradGradGradGradGradGradGradGradGrad
 Berny optimization.
 Using GEDIIS/GDIIS optimizer.
 FormGI is forming the generalized inverse of G from B-inverse, IUseBI=4.
 Internal  Forces:  Max     0.011261575 RMS     0.002061460
 Search for a local minimum.
 Step number   2 out of a maximum of  117
 All quantities printed in internal units (Hartrees-Bohrs-Radians)
 Mixed Optimization -- RFO/linear search
 Update second derivatives using D2CorX and points    1    2
 DE= -5.74D-03 DEPred=-6.57D-03 R= 8.74D-01
 TightC=F SS=  1.41D+00  RLast= 2.72D-01 DXNew= 5.0454D-01 8.1700D-01
 Trust test= 8.74D-01 RLast= 2.72D-01 DXMaxT set to 5.05D-01
 ITU=  1  0
 Use linear search instead of GDIIS.
     Eigenvalues ---    0.00301   0.00489   0.00790   0.01313   0.01373
     Eigenvalues ---    0.01538   0.01577   0.01973   0.02032   0.02032
     Eigenvalues ---    0.02101   0.02206   0.02246   0.02326   0.02387
     Eigenvalues ---    0.04880   0.05543   0.05582   0.05622   0.07110
     Eigenvalues ---    0.07321   0.11745   0.13878   0.14787   0.16000
     Eigenvalues ---    0.16000   0.16000   0.16000   0.16000   0.16000
     Eigenvalues ---    0.16000   0.16131   0.21819   0.22992   0.23887
     Eigenvalues ---    0.24983   0.24998   0.24999   0.24999   0.25000
     Eigenvalues ---    0.25000   0.27769   0.28862   0.30229   0.33079
     Eigenvalues ---    0.34577   0.34733   0.34756   0.34770   0.34799
     Eigenvalues ---    0.34844   0.34882   0.34924   0.35612   0.41425
     Eigenvalues ---    0.42580   0.43733   0.46804   0.46859   0.49322
     Eigenvalues ---    0.50361   0.51776   0.53622   0.55620   0.58301
     Eigenvalues ---    0.89671
 RFO step:  Lambda=-3.05808285D-03 EMin= 3.01021425D-03
 Quartic linear search produced a step of -0.07887.
 Iteration  1 RMS(Cart)=  0.10142681 RMS(Int)=  0.00326696
 Iteration  2 RMS(Cart)=  0.00762306 RMS(Int)=  0.00161725
 Iteration  3 RMS(Cart)=  0.00001033 RMS(Int)=  0.00161724
 Iteration  4 RMS(Cart)=  0.00000005 RMS(Int)=  0.00161724
 Variable       Old X    -DE/DX   Delta X   Delta X   Delta X     New X
                                 (Linear)    (Quad)   (Total)
    R1        2.56303  -0.00199   0.00267  -0.01629  -0.01361   2.54942
    R2        1.89923   0.00032   0.00001   0.00059   0.00059   1.89983
    R3        1.89896   0.00033  -0.00002   0.00074   0.00072   1.89968
    R4        2.54770   0.00048  -0.00033   0.00228   0.00196   2.54966
    R5        2.54451   0.00378  -0.00019   0.00703   0.00684   2.55136
    R6        2.52830  -0.00088   0.00323  -0.01680  -0.01356   2.51473
    R7        2.84378  -0.00005   0.00239  -0.01150  -0.00911   2.83467
    R8        2.66580   0.00560   0.00065   0.00895   0.00959   2.67540
    R9        2.06491  -0.00087  -0.00049   0.00003  -0.00046   2.06445
   R10        2.06035   0.00028   0.00006   0.00046   0.00052   2.06087
   R11        2.06586  -0.00008  -0.00057   0.00250   0.00193   2.06779
   R12        2.79086   0.00308   0.00315  -0.00628  -0.00312   2.78774
   R13        2.64433   0.00319   0.00077   0.00300   0.00376   2.64809
   R14        2.54141   0.00815   0.00109   0.00860   0.00969   2.55109
   R15        2.30384   0.00027   0.00205  -0.00938  -0.00733   2.29651
   R16        2.69493   0.01126  -0.00030   0.02614   0.02584   2.72077
   R17        2.87752  -0.00081   0.00185  -0.01137  -0.00951   2.86801
   R18        2.06779  -0.00100  -0.00029  -0.00127  -0.00156   2.06622
   R19        2.06504   0.00007  -0.00036   0.00189   0.00154   2.06658
   R20        2.06542  -0.00065  -0.00037   0.00002  -0.00035   2.06507
   R21        2.06736   0.00012  -0.00061   0.00318   0.00258   2.06993
   R22        2.06811  -0.00001  -0.00071   0.00333   0.00262   2.07073
   R23        2.51047  -0.00076   0.00429  -0.02158  -0.01729   2.49318
   R24        2.05102   0.00080  -0.00033   0.00365   0.00332   2.05434
    A1        2.07052   0.00101  -0.00094   0.01021   0.00927   2.07979
    A2        2.07329   0.00112  -0.00093   0.01083   0.00989   2.08318
    A3        2.13937  -0.00213   0.00187  -0.02104  -0.01916   2.12021
    A4        2.02873   0.00141   0.00058   0.00263   0.00320   2.03194
    A5        2.02840   0.00239   0.00053   0.00642   0.00695   2.03535
    A6        2.22604  -0.00380  -0.00111  -0.00905  -0.01015   2.21589
    A7        2.03987   0.00389  -0.00046   0.01609   0.01564   2.05551
    A8        2.00929  -0.00238  -0.00280   0.00451   0.00172   2.01101
    A9        2.10527  -0.00063   0.00218  -0.01255  -0.01038   2.09489
   A10        2.16858   0.00301   0.00061   0.00800   0.00862   2.17719
   A11        1.94202   0.00045  -0.00121   0.00809   0.00690   1.94891
   A12        1.89694  -0.00086   0.00486  -0.02614  -0.02126   1.87568
   A13        1.93178   0.00037  -0.00088   0.00473   0.00386   1.93564
   A14        1.91256   0.00081  -0.00301   0.02219   0.01920   1.93176
   A15        1.87253  -0.00109   0.00222  -0.02032  -0.01809   1.85444
   A16        1.90778   0.00034  -0.00209   0.01239   0.01031   1.91809
   A17        2.21589   0.00464  -0.00006   0.01712   0.01707   2.23297
   A18        2.03588  -0.00256  -0.00178  -0.00061  -0.00241   2.03347
   A19        2.03133  -0.00208   0.00184  -0.01648  -0.01463   2.01670
   A20        1.97797   0.00326   0.00119   0.00971   0.00134   1.97931
   A21        2.15325  -0.00058  -0.00092   0.00551  -0.00507   2.14818
   A22        2.15075  -0.00244  -0.00035  -0.00366  -0.01361   2.13714
   A23        2.02502   0.00357   0.00759  -0.02302  -0.01543   2.00959
   A24        1.94474   0.00041  -0.00068   0.00308   0.00240   1.94713
   A25        1.91139  -0.00052   0.00220  -0.01608  -0.01389   1.89750
   A26        1.82909  -0.00001   0.00434  -0.02173  -0.01739   1.81170
   A27        1.93539  -0.00004   0.00009  -0.00034  -0.00029   1.93509
   A28        1.94448  -0.00052  -0.00285   0.01137   0.00849   1.95297
   A29        1.89532   0.00068  -0.00304   0.02290   0.01981   1.91513
   A30        1.92758  -0.00051   0.00086  -0.00662  -0.00577   1.92181
   A31        1.92951   0.00047   0.00079  -0.00052   0.00028   1.92979
   A32        1.92280  -0.00037   0.00096  -0.00770  -0.00676   1.91605
   A33        1.89846   0.00027  -0.00112   0.00882   0.00771   1.90617
   A34        1.89128   0.00030  -0.00096   0.00506   0.00408   1.89536
   A35        1.89333  -0.00015  -0.00064   0.00141   0.00076   1.89409
   A36        2.16141   0.00148  -0.00060   0.00911   0.00848   2.16989
   A37        2.09102  -0.00314   0.00188  -0.02573  -0.02385   2.06717
   A38        2.03075   0.00166  -0.00128   0.01665   0.01538   2.04613
   A39        1.99768   0.00163   0.00178  -0.00293  -0.00115   1.99653
    D1        3.13851   0.00003   0.00008   0.00086   0.00094   3.13945
    D2        0.00213  -0.00004  -0.00013  -0.00099  -0.00113   0.00100
    D3       -0.00083   0.00006  -0.00002   0.00240   0.00238   0.00155
    D4       -3.13722  -0.00002  -0.00024   0.00055   0.00031  -3.13690
    D5        3.13521  -0.00020   0.00045  -0.00968  -0.00925   3.12596
    D6       -0.01228  -0.00009   0.00069  -0.00753  -0.00687  -0.01915
    D7       -3.13715   0.00015  -0.00010   0.00495   0.00482  -3.13233
    D8        0.01034   0.00004  -0.00034   0.00281   0.00245   0.01278
    D9        3.12877   0.00004  -0.00132   0.00692   0.00566   3.13443
   D10       -0.00346   0.00017  -0.00053   0.01054   0.01002   0.00656
   D11       -2.24524  -0.00025   0.00108   0.01517   0.01627  -2.22898
   D12       -0.13773   0.00048  -0.00030   0.03069   0.03039  -0.10735
   D13        1.95755   0.00058  -0.00034   0.03230   0.03197   1.98952
   D14        0.88660  -0.00040   0.00028   0.01128   0.01156   0.89816
   D15        2.99411   0.00032  -0.00110   0.02679   0.02568   3.01979
   D16       -1.19379   0.00043  -0.00114   0.02841   0.02726  -1.16653
   D17       -3.13749  -0.00016   0.00004  -0.00659  -0.00646   3.13924
   D18        0.01861  -0.00020   0.00009  -0.00940  -0.00923   0.00938
   D19        0.01436   0.00001   0.00095  -0.00259  -0.00161   0.01275
   D20       -3.11272  -0.00003   0.00099  -0.00539  -0.00438  -3.11711
   D21        0.19737   0.00213   0.00700   0.07122   0.07786   0.27523
   D22       -2.89270  -0.00302  -0.00238  -0.17316  -0.17519  -3.06789
   D23       -2.95869   0.00216   0.00692   0.07413   0.08070  -2.87800
   D24        0.23441  -0.00299  -0.00246  -0.17024  -0.17235   0.06206
   D25       -0.02115   0.00014   0.00029   0.00454   0.00486  -0.01629
   D26        3.12547  -0.00004   0.00037  -0.00324  -0.00283   3.12264
   D27        3.13339   0.00005   0.00035   0.00176   0.00217   3.13556
   D28       -0.00318  -0.00013   0.00043  -0.00602  -0.00552  -0.00870
   D29       -3.08614  -0.00262  -0.00544  -0.11869  -0.12305   3.07400
   D30        0.00403   0.00259   0.00395   0.12560   0.12846   0.13249
   D31        1.43667   0.00014   0.00042   0.00029   0.00072   1.43738
   D32       -0.71106   0.00026  -0.00078   0.00988   0.00911  -0.70195
   D33       -2.74138  -0.00028  -0.00073   0.00231   0.00158  -2.73981
   D34       -1.11000  -0.00010   0.00054  -0.01036  -0.00982  -1.11981
   D35        0.99199   0.00020   0.00022  -0.00398  -0.00377   0.98822
   D36        3.08448   0.00008   0.00055  -0.00752  -0.00698   3.07750
   D37        1.02395  -0.00050   0.00294  -0.02907  -0.02613   0.99783
   D38        3.12594  -0.00019   0.00262  -0.02269  -0.02008   3.10586
   D39       -1.06476  -0.00031   0.00296  -0.02623  -0.02328  -1.08804
   D40        3.13720  -0.00001  -0.00262   0.00759   0.00499  -3.14100
   D41       -1.04400   0.00029  -0.00294   0.01396   0.01104  -1.03297
   D42        1.04848   0.00017  -0.00260   0.01042   0.00783   1.05632
   D43        0.00744  -0.00007  -0.00016  -0.00140  -0.00159   0.00585
   D44       -3.13901   0.00010  -0.00022   0.00602   0.00591  -3.13310
         Item               Value     Threshold  Converged?
 Maximum Force            0.011262     0.000450     NO 
 RMS     Force            0.002061     0.000300     NO 
 Maximum Displacement     0.315576     0.001800     NO 
 RMS     Displacement     0.097732     0.001200     NO 
 Predicted change in Energy=-1.767031D-03
 GradGradGradGradGradGradGradGradGradGradGradGradGradGradGradGradGradGrad

                          Input orientation:                          
 ---------------------------------------------------------------------
 Center     Atomic      Atomic             Coordinates (Angstroms)
 Number     Number       Type             X           Y           Z
 ---------------------------------------------------------------------
      1          7           0       -4.229407    1.562438    0.022906
      2          6           0       -2.940692    1.163405    0.016054
      3          7           0       -2.717490   -0.141004   -0.246798
      4          6           0       -1.454813   -0.559959   -0.278287
      5          6           0       -1.273056   -2.020932   -0.565782
      6          6           0       -0.399623    0.351400   -0.032585
      7          6           0        1.050122    0.078724   -0.021006
      8          8           0        1.379684   -1.095044   -0.600753
      9          6           0        2.792403   -1.358699   -0.688217
     10          6           0        3.335619   -1.924902    0.610896
     11          8           0        1.880159    0.915661    0.274691
     12          6           0       -0.768046    1.674083    0.247501
     13          7           0       -2.013174    2.109370    0.276220
     14          1           0       -4.442980    2.525673    0.215993
     15          1           0       -4.954277    0.890827   -0.161659
     16          1           0       -0.641375   -2.503858    0.183372
     17          1           0       -2.263764   -2.476388   -0.585692
     18          1           0       -0.775046   -2.170372   -1.528583
     19          1           0        3.306665   -0.431143   -0.954104
     20          1           0        2.873748   -2.074745   -1.510768
     21          1           0        3.239670   -1.187295    1.411467
[...]
                 (A) (A) (A) (A) (A) (A) (A) (A) (A) (A) (A) (A)
                 (A) (A) (A) (A) (A) (A) (A) (A) (A) (A) (A) (A)
                 (A)
 The electronic state is 1-A.
 Alpha  occ. eigenvalues --  -19.67122 -19.61122 -14.77384 -14.75188 -14.75110
 Alpha  occ. eigenvalues --  -10.67723 -10.65622 -10.61313 -10.59716 -10.59547
 Alpha  occ. eigenvalues --  -10.55576 -10.53460 -10.53283  -1.22963  -1.13542
 Alpha  occ. eigenvalues --   -1.12177  -1.02226  -1.00307  -0.90271  -0.86366
 Alpha  occ. eigenvalues --   -0.82824  -0.76809  -0.72894  -0.72027  -0.65131
 Alpha  occ. eigenvalues --   -0.63838  -0.61114  -0.60202  -0.57598  -0.55894
 Alpha  occ. eigenvalues --   -0.54345  -0.52779  -0.52243  -0.49675  -0.48429
 Alpha  occ. eigenvalues --   -0.48099  -0.46791  -0.45895  -0.45220  -0.43661
 Alpha  occ. eigenvalues --   -0.41136  -0.40137  -0.39810  -0.37432  -0.37138
 Alpha  occ. eigenvalues --   -0.35448  -0.32329  -0.29185
 Alpha virt. eigenvalues --   -0.01184  -0.00311   0.06279   0.06856   0.08709
 Alpha virt. eigenvalues --    0.09887   0.10807   0.10855   0.11387   0.13456
 Alpha virt. eigenvalues --    0.13631   0.13984   0.14738   0.15225   0.16008
 Alpha virt. eigenvalues --    0.16712   0.17901   0.18845   0.19505   0.21964
 Alpha virt. eigenvalues --    0.22060   0.22961   0.24072   0.25304   0.25772
 Alpha virt. eigenvalues --    0.26013   0.26047   0.26394   0.27435   0.28357
 Alpha virt. eigenvalues --    0.29207   0.30504   0.31175   0.32824   0.33401
 Alpha virt. eigenvalues --    0.33770   0.35980   0.36252   0.36970   0.37788
 Alpha virt. eigenvalues --    0.38257   0.38974   0.40407   0.40644   0.42020
 Alpha virt. eigenvalues --    0.42894   0.43761   0.44455   0.45717   0.45951
 Alpha virt. eigenvalues --    0.46439   0.46919   0.47476   0.47780   0.48320
 Alpha virt. eigenvalues --    0.48574   0.49735   0.49855   0.51372   0.51820
 Alpha virt. eigenvalues --    0.52192   0.52652   0.53451   0.53866   0.55098
 Alpha virt. eigenvalues --    0.56014   0.56607   0.59341   0.59431   0.60317
 Alpha virt. eigenvalues --    0.61409   0.61911   0.63647   0.64080   0.65018
 Alpha virt. eigenvalues --    0.66089   0.67581   0.68010   0.68941   0.69276
 Alpha virt. eigenvalues --    0.70987   0.71079   0.72153   0.72278   0.74015
 Alpha virt. eigenvalues --    0.75351   0.77070   0.78081   0.78363   0.80024
 Alpha virt. eigenvalues --    0.80691   0.81883   0.83450   0.85078   0.86845
 Alpha virt. eigenvalues --    0.87164   0.88393   0.90265   0.92737   0.93099
 Alpha virt. eigenvalues --    0.94331   0.95840   0.98421   0.99257   1.00305
 Alpha virt. eigenvalues --    1.02453   1.04041   1.05507   1.06247   1.07933
 Alpha virt. eigenvalues --    1.09210   1.10287   1.12206   1.13069   1.13515
 Alpha virt. eigenvalues --    1.15106   1.17294   1.19943   1.21705   1.25173
 Alpha virt. eigenvalues --    1.26488   1.27293   1.29106   1.31421   1.32913
 Alpha virt. eigenvalues --    1.35466   1.35768   1.38057   1.38884   1.41409
 Alpha virt. eigenvalues --    1.42164   1.44211   1.45707   1.47442   1.47733
 Alpha virt. eigenvalues --    1.52002   1.52825   1.52962   1.53534   1.54089
 Alpha virt. eigenvalues --    1.55738   1.56641   1.57870   1.58418   1.58684
 Alpha virt. eigenvalues --    1.59146   1.59603   1.60684   1.61120   1.62420
 Alpha virt. eigenvalues --    1.63357   1.63948   1.65806   1.66098   1.67264
 Alpha virt. eigenvalues --    1.68356   1.69205   1.71449   1.72083   1.73967
 Alpha virt. eigenvalues --    1.74938   1.75620   1.78491   1.80080   1.81466
 Alpha virt. eigenvalues --    1.82926   1.83487   1.83960   1.85788   1.86952
 Alpha virt. eigenvalues --    1.88888   1.90471   1.91062   1.92761   1.93344
 Alpha virt. eigenvalues --    1.96104   1.96843   1.99231   2.00348   2.01403
 Alpha virt. eigenvalues --    2.01959   2.04040   2.06282   2.07866   2.08064
 Alpha virt. eigenvalues --    2.09944   2.12318   2.13479   2.14086   2.17494
 Alpha virt. eigenvalues --    2.17572   2.20249   2.23070   2.24796   2.26840
 Alpha virt. eigenvalues --    2.29008   2.29395   2.30791   2.32943   2.33222
 Alpha virt. eigenvalues --    2.34647   2.35025   2.35858   2.36677   2.37024
 Alpha virt. eigenvalues --    2.38986   2.40367   2.40772   2.42222   2.44266
 Alpha virt. eigenvalues --    2.45678   2.46354   2.47298   2.48729   2.50303
 Alpha virt. eigenvalues --    2.53704   2.54179   2.55030   2.57461   2.57708
 Alpha virt. eigenvalues --    2.58309   2.60494   2.61530   2.62663   2.64860
 Alpha virt. eigenvalues --    2.65422   2.68749   2.70084   2.70631   2.72126
 Alpha virt. eigenvalues --    2.73719   2.75630   2.77487   2.80659   2.81248
 Alpha virt. eigenvalues --    2.82147   2.82300   2.84528   2.85614   2.89573
 Alpha virt. eigenvalues --    2.90550   2.91669   2.93743   2.95505   2.96029
 Alpha virt. eigenvalues --    2.96443   2.97491   2.98896   3.00358   3.01346
 Alpha virt. eigenvalues --    3.02291   3.03243   3.04240   3.05547   3.06581
 Alpha virt. eigenvalues --    3.08002   3.08777   3.10646   3.11148   3.13354
 Alpha virt. eigenvalues --    3.14673   3.15390   3.16031   3.17005   3.17365
 Alpha virt. eigenvalues --    3.18484   3.20712   3.21575   3.22782   3.24072
 Alpha virt. eigenvalues --    3.25069   3.25540   3.27794   3.28052   3.28875
 Alpha virt. eigenvalues --    3.30084   3.31256   3.32709   3.33534   3.34705
 Alpha virt. eigenvalues --    3.35359   3.35956   3.37153   3.37376   3.39130
 Alpha virt. eigenvalues --    3.39930   3.41094   3.42051   3.44215   3.45164
 Alpha virt. eigenvalues --    3.47222   3.48153   3.50611   3.52199   3.52904
 Alpha virt. eigenvalues --    3.54234   3.55587   3.56140   3.60587   3.61362
 Alpha virt. eigenvalues --    3.65643   3.69345   3.70404   3.72269   3.72664
 Alpha virt. eigenvalues --    3.73964   3.77848   3.78945   3.80784   3.82397
 Alpha virt. eigenvalues --    3.83169   3.85028   3.86890   3.88642   3.89577
 Alpha virt. eigenvalues --    3.90686   3.93313   3.94453   3.96474   3.97057
 Alpha virt. eigenvalues --    3.99803   4.06246   4.08222   4.08850   4.13468
 Alpha virt. eigenvalues --    4.15566   4.18114   4.18610   4.22438   4.24463
 Alpha virt. eigenvalues --    4.24859   4.30178   4.32794   4.34604   4.36571
 Alpha virt. eigenvalues --    4.37830   4.40488   4.42271   4.46614   4.47130
 Alpha virt. eigenvalues --    4.49183   4.52279   4.53972   4.54939   4.58187
 Alpha virt. eigenvalues --    4.64200   4.65358   4.68962   4.69161   4.71170
 Alpha virt. eigenvalues --    4.73128   4.73540   4.77810   4.83857   4.86657
 Alpha virt. eigenvalues --    4.92502   4.94865   4.96108   4.96629   5.00876
 Alpha virt. eigenvalues --    5.02470   5.02913   5.03952   5.04800   5.11140
 Alpha virt. eigenvalues --    5.15259   5.15805   5.18447   5.19479   5.19884
 Alpha virt. eigenvalues --    5.25070   5.31374   5.31905   5.34324   5.34447
 Alpha virt. eigenvalues --    5.38870   5.41435   5.41803   5.43382   5.48111
 Alpha virt. eigenvalues --    5.49926   5.53429   5.55760   5.64508   5.69290
 Alpha virt. eigenvalues --    5.72375   5.75333   5.82839   5.89438   5.95639
 Alpha virt. eigenvalues --    5.96337   6.06684   6.09845   6.15032   6.20222
 Alpha virt. eigenvalues --    6.37285   6.38116   6.42561   6.57768   6.65367
 Alpha virt. eigenvalues --    6.75340   6.78662   6.90510   6.92922   7.06012
 Alpha virt. eigenvalues --    7.13199   7.29195   7.41732  22.43601  22.54577
 Alpha virt. eigenvalues --   22.58042  22.84716  23.02532  23.25101  23.35304
 Alpha virt. eigenvalues --   23.51317  32.08321  32.50129  32.85389  44.09335
 Alpha virt. eigenvalues --   44.38576
          Condensed to atoms (all electrons):
               1          2          3          4          5          6
     1  N    6.582393   0.390955  -0.108953   0.006752   0.000170  -0.003849
     2  C    0.390955   4.476086   0.503864  -0.097171   0.003215  -0.021882
     3  N   -0.108953   0.503864   6.539720   0.589835  -0.054876  -0.103425
     4  C    0.006752  -0.097171   0.589835   5.041343   0.229871   0.308396
     5  C    0.000170   0.003215  -0.054876   0.229871   5.151439  -0.074911
     6  C   -0.003849  -0.021882  -0.103425   0.308396  -0.074911   5.594710
     7  C   -0.000102   0.001467  -0.000588  -0.040935  -0.021964   0.286333
     8  O   -0.000001   0.000040   0.000014   0.000771  -0.021100  -0.110830
     9  C   -0.000000   0.000017   0.000030  -0.001271  -0.003177   0.004248
    10  C    0.000000  -0.000003  -0.000006   0.000322   0.000188   0.001168
    11  O   -0.000002  -0.000299  -0.000314   0.001667  -0.000059  -0.141146
    12  C    0.006575  -0.112499  -0.013716  -0.022151   0.007829   0.439106
    13  N   -0.109593   0.494602  -0.072422  -0.043671  -0.003119  -0.046141
    14  H    0.368809  -0.027392   0.006096  -0.000890   0.000033   0.000305
    15  H    0.369509  -0.028431   0.008229   0.000839  -0.000348   0.000774
    16  H    0.000008  -0.000641   0.000623  -0.047067   0.418138   0.003555
    17  H   -0.000289   0.000899   0.007974  -0.067851   0.421891   0.012560
    18  H    0.000007  -0.000607   0.000530  -0.045479   0.414808   0.005104
    19  H    0.000000   0.000000   0.000003  -0.000569   0.000286  -0.002044
    20  H    0.000000   0.000002   0.000003   0.000273  -0.000416   0.003262
    21  H   -0.000000   0.000003   0.000003   0.000029   0.000056   0.004146
    22  H   -0.000000  -0.000000   0.000001  -0.000233  -0.000017  -0.001284
    23  H   -0.000000  -0.000000  -0.000000  -0.000008   0.000001  -0.000028
    24  H   -0.000008   0.005418  -0.001521   0.004866   0.000083  -0.057751
               7          8          9         10         11         12
     1  N   -0.000102  -0.000001  -0.000000   0.000000  -0.000002   0.006575
     2  C    0.001467   0.000040   0.000017  -0.000003  -0.000299  -0.112499
     3  N   -0.000588   0.000014   0.000030  -0.000006  -0.000314  -0.013716
     4  C   -0.040935   0.000771  -0.001271   0.000322   0.001667  -0.022151
     5  C   -0.021964  -0.021100  -0.003177   0.000188  -0.000059   0.007829
     6  C    0.286333  -0.110830   0.004248   0.001168  -0.141146   0.439106
     7  C    4.529621   0.362918  -0.048328   0.001273   0.639723  -0.069423
     8  O    0.362918   8.043663   0.181088  -0.030137  -0.084402   0.004724
     9  C   -0.048328   0.181088   4.966557   0.268907   0.014077  -0.001030
    10  C    0.001273  -0.030137   0.268907   5.079854  -0.017768   0.000171
    11  O    0.639723  -0.084402   0.014077  -0.017768   7.915968   0.020886
    12  C   -0.069423   0.004724  -0.001030   0.000171   0.020886   4.819895
    13  N    0.007356  -0.000222   0.000012  -0.000000   0.000432   0.543235
    14  H   -0.000004   0.000000  -0.000000   0.000000   0.000000   0.001069
    15  H   -0.000008   0.000000  -0.000000   0.000000   0.000000  -0.001125
    16  H   -0.004428   0.000082  -0.000445  -0.000454  -0.000010   0.000601
    17  H    0.000890   0.002054  -0.000029   0.000002   0.000025  -0.000535
    18  H   -0.004757   0.000994   0.000020   0.000315  -0.000027   0.000356
    19  H   -0.017008  -0.027346   0.435923  -0.055003   0.007732  -0.000025
    20  H    0.006308  -0.035738   0.405888  -0.039381   0.001271  -0.000003
    21  H    0.004159  -0.003938  -0.041444   0.418102   0.005644  -0.000048
    22  H   -0.003455   0.002440  -0.033325   0.397882   0.000528  -0.000009
    23  H    0.000552   0.004608  -0.040471   0.404378   0.000290  -0.000000
    24  H   -0.011995   0.000658  -0.000231   0.000048   0.015235   0.429657
              13         14         15         16         17         18
     1  N   -0.109593   0.368809   0.369509   0.000008  -0.000289   0.000007
     2  C    0.494602  -0.027392  -0.028431  -0.000641   0.000899  -0.000607
     3  N   -0.072422   0.006096   0.008229   0.000623   0.007974   0.000530
     4  C   -0.043671  -0.000890   0.000839  -0.047067  -0.067851  -0.045479
     5  C   -0.003119   0.000033  -0.000348   0.418138   0.421891   0.414808
     6  C   -0.046141   0.000305   0.000774   0.003555   0.012560   0.005104
     7  C    0.007356  -0.000004  -0.000008  -0.004428   0.000890  -0.004757
     8  O   -0.000222   0.000000   0.000000   0.000082   0.002054   0.000994
     9  C    0.000012  -0.000000  -0.000000  -0.000445  -0.000029   0.000020
    10  C   -0.000000   0.000000   0.000000  -0.000454   0.000002   0.000315
    11  O    0.000432   0.000000   0.000000  -0.000010   0.000025  -0.000027
    12  C    0.543235   0.001069  -0.001125   0.000601  -0.000535   0.000356
    13  N    6.525349   0.008019   0.006160   0.000174   0.000434   0.000171
    14  H    0.008019   0.398817  -0.022731  -0.000001   0.000001  -0.000001
    15  H    0.006160  -0.022731   0.400756   0.000007   0.000134   0.000007
    16  H    0.000174  -0.000001   0.000007   0.518758  -0.019919  -0.031862
    17  H    0.000434   0.000001   0.000134  -0.019919   0.510092  -0.019949
    18  H    0.000171  -0.000001   0.000007  -0.031862  -0.019949   0.517465
    19  H    0.000002  -0.000000  -0.000000   0.000072   0.000010  -0.000132
    20  H   -0.000001   0.000000   0.000000   0.000140  -0.000048  -0.000073
    21  H    0.000000   0.000000  -0.000000   0.000004  -0.000002  -0.000009
    22  H   -0.000000  -0.000000  -0.000000   0.000273   0.000015  -0.000044
    23  H    0.000000  -0.000000  -0.000000   0.000024  -0.000000  -0.000008
    24  H   -0.024528  -0.000090   0.000016   0.000008   0.000006   0.000002
              19         20         21         22         23         24
     1  N    0.000000   0.000000  -0.000000  -0.000000  -0.000000  -0.000008
     2  C    0.000000   0.000002   0.000003  -0.000000  -0.000000   0.005418
     3  N    0.000003   0.000003   0.000003   0.000001  -0.000000  -0.001521
     4  C   -0.000569   0.000273   0.000029  -0.000233  -0.000008   0.004866
     5  C    0.000286  -0.000416   0.000056  -0.000017   0.000001   0.000083
     6  C   -0.002044   0.003262   0.004146  -0.001284  -0.000028  -0.057751
     7  C   -0.017008   0.006308   0.004159  -0.003455   0.000552  -0.011995
     8  O   -0.027346  -0.035738  -0.003938   0.002440   0.004608   0.000658
     9  C    0.435923   0.405888  -0.041444  -0.033325  -0.040471  -0.000231
    10  C   -0.055003  -0.039381   0.418102   0.397882   0.404378   0.000048
    11  O    0.007732   0.001271   0.005644   0.000528   0.000290   0.015235
    12  C   -0.000025  -0.000003  -0.000048  -0.000009  -0.000000   0.429657
    13  N    0.000002  -0.000001   0.000000  -0.000000   0.000000  -0.024528
    14  H   -0.000000   0.000000   0.000000  -0.000000  -0.000000  -0.000090
    15  H   -0.000000   0.000000  -0.000000  -0.000000  -0.000000   0.000016
    16  H    0.000072   0.000140   0.000004   0.000273   0.000024   0.000008
    17  H    0.000010  -0.000048  -0.000002   0.000015  -0.000000   0.000006
    18  H   -0.000132  -0.000073  -0.000009  -0.000044  -0.000008   0.000002
    19  H    0.526413  -0.028522  -0.005120   0.007085   0.001094  -0.000038
    20  H   -0.028522   0.552295   0.005145  -0.005624  -0.002619   0.000004
    21  H   -0.005120   0.005145   0.488397  -0.025175  -0.021856   0.000026
    22  H    0.007085  -0.005624  -0.025175   0.540832  -0.020497  -0.000004
    23  H    0.001094  -0.002619  -0.021856  -0.020497   0.533316  -0.000000
    24  H   -0.000038   0.000004   0.000026  -0.000004  -0.000000   0.458947
 Mulliken charges:
               1
     1  N   -0.502382
     2  C    0.412357
     3  N   -0.301103
     4  C    0.182331
     5  C   -0.468024
     6  C   -0.100376
     7  C    0.382395
     8  O   -0.290340
     9  C   -0.107016
    10  C   -0.429858
    11  O   -0.379451
    12  C   -0.053538
    13  N   -0.286250
    14  H    0.267959
    15  H    0.266211
    16  H    0.162358
    17  H    0.151632
    18  H    0.163168
    19  H    0.157187
    20  H    0.137835
    21  H    0.171876
    22  H    0.140613
    23  H    0.141223
    24  H    0.181192
 Sum of Mulliken charges =  -0.00000
 Mulliken charges with hydrogens summed into heavy atoms:
               1
     1  N    0.031789
     2  C    0.412357
     3  N   -0.301103
     4  C    0.182331
     5  C    0.009134
     6  C   -0.100376
     7  C    0.382395
     8  O   -0.290340
     9  C    0.188006
    10  C    0.023855
    11  O   -0.379451
    12  C    0.127654
    13  N   -0.286250
 Electronic spatial extent (au):  <R**2>=           2896.5474
 Charge=             -0.0000 electrons
 Dipole moment (field-independent basis, Debye):
    X=              0.5466    Y=              2.3495    Z=              0.2275  Tot=              2.4230
 Quadrupole moment (field-independent basis, Debye-Ang):
   XX=            -56.0012   YY=            -81.1016   ZZ=            -77.2590
   XY=             -3.2434   XZ=              1.3064   YZ=             -0.6393
 Traceless Quadrupole moment (field-independent basis, Debye-Ang):
   XX=             15.4527   YY=             -9.6477   ZZ=             -5.8050
   XY=             -3.2434   XZ=              1.3064   YZ=             -0.6393
 Octapole moment (field-independent basis, Debye-Ang**2):
  XXX=             55.3785  YYY=             10.1000  ZZZ=             -3.0137  XYY=              2.0837
  XXY=             13.6102  XXZ=              5.3896  XZZ=             -7.9868  YZZ=             -0.1738
  YYZ=              0.5473  XYZ=              1.8826
 Hexadecapole moment (field-independent basis, Debye-Ang**3):
 XXXX=          -2229.8140 YYYY=           -698.4301 ZZZZ=           -164.6221 XXXY=              2.9466
 XXXZ=             63.8881 YYYX=             -4.9363 YYYZ=             -2.5148 ZZZX=              7.7786
 ZZZY=              0.8734 XXYY=           -626.1044 XXZZ=           -538.4679 YYZZ=           -142.1413
 XXYZ=             -2.9358 YYXZ=              1.3131 ZZXY=              0.1314
 N-N= 7.910805207386D+02 E-N=-3.043444968933D+03  KE= 6.230050129387D+02
 Unable to Open any file for archive entry.
 1\1\GINC-COMPUTE-0-32\SP\RM062X\def2TZVP\C8H11N3O2\ZTAN64\14-Aug-2024\
 0\\# M062X/def2tzvp int=(grid=ultrafine) nmr=giao guess=read geom=chec
 k\\pyrmd1.xyz\\0,1\N,0,-4.2373013558,1.5256843621,0.1950123327\C,0,-2.
 9442462706,1.1448919849,0.0920995338\N,0,-2.7180545133,-0.1356302372,-
 0.2620568475\C,0,-1.4481320967,-0.5347026737,-0.3736224095\C,0,-1.2686
 261543,-1.9740567316,-0.7709817881\C,0,-0.386691728,0.3692937641,-0.12
 41281056\C,0,1.065465837,0.1032669055,-0.1979878208\O,0,1.3665866089,-
 1.1661463913,-0.5615655434\C,0,2.7747321312,-1.4898541705,-0.630858006
 9\C,0,3.3297649819,-1.8265349615,0.7430565832\O,0,1.9172666754,0.94200
 41923,0.0409642514\C,0,-0.7586731212,1.6739122462,0.2394756701\N,0,-2.
 012276776,2.0878750878,0.3545596534\H,0,-4.4506262962,2.4705589398,0.4
 64919215\H,0,-4.9645011812,0.8546532672,0.0170316596\H,0,-0.6928038354
 ,-2.518632556,-0.0187341126\H,0,-2.252879375,-2.4276412676,-0.88879367
 68\H,0,-0.7061596852,-2.054077979,-1.7045210922\H,0,3.3079824598,-0.64
 71506613,-1.0758161811\H,0,2.8200703528,-2.3480923325,-1.30486675\H,0,
 3.287106876,-0.9509602232,1.3940515286\H,0,2.7610612922,-2.6405321249,
 1.2018789062\H,0,4.3743780337,-2.1422658034,0.655952904\H,0,0.02575714
 ,2.3984373638,0.4415300963\\Version=ES64L-G16RevC.01\State=1-A\HF=-626
 .2017893\RMSD=1.886e-09\Dipole=-0.5546635,-0.7628786,-0.1381704\Quadru
 pole=7.1594175,-2.9591592,-4.2002583,-8.110822,-1.777609,0.4940611\PG=
 C01 [X(C8H11N3O2)]\\@
 The archive entry for this job was punched.


 THE MORE ACCURATE THE CALCULATIONS BECOME, THE MORE THE CONCEPTS
 TEND TO VANISH INTO THIN AIR.
     -- R.S. MULLIKEN, J.C.P. 43,S2(1965)
 Job cpu time:       0 days  0 hours 39 minutes 14.5 seconds.
 Elapsed time:       0 days  0 hours  2 minutes 36.5 seconds.
 File lengths (MBytes):  RWF=    126 Int=      0 D2E=      0 Chk=     21 Scr=      1
 Normal termination of Gaussian 16 at Wed Aug 14 20:32:53 2024.
 
 
-----Kestrel cluster job statistics-----
Time info:

real	13m22.260s
user	209m42.272s
sys	0m19.571s
 
Disk space usage:
21M	/scratch/362988.kestrel.chem.wisc.edu
