 Entering Gaussian System, Link 0=/share/apps/gaussian/g16/g16
 Initial command:
 /share/apps/gaussian/g16/l1.exe "/scratch/362966.kestrel.chem.wisc.edu/Gau-192920.inp" -scrdir="/scratch/362966.kestrel.chem.wisc.edu/"
 Entering Link 1 = /share/apps/gaussian/g16/l1.exe PID=    192921.
  
 Copyright (c) 1988-2019, Gaussian, Inc.  All Rights Reserved.
  
 This is part of the Gaussian(R) 16 program.  It is based on
 the Gaussian(R) 09 system (copyright 2009, Gaussian, Inc.),
 the Gaussian(R) 03 system (copyright 2003, Gaussian, Inc.),
 the Gaussian(R) 98 system (copyright 1998, Gaussian, Inc.),
 the Gaussian(R) 94 system (copyright 1995, Gaussian, Inc.),
 the Gaussian 92(TM) system (copyright 1992, Gaussian, Inc.),
 the Gaussian 90(TM) system (copyright 1990, Gaussian, Inc.),
 the Gaussian 88(TM) system (copyright 1988, Gaussian, Inc.),
 the Gaussian 86(TM) system (copyright 1986, Carnegie Mellon
 University), and the Gaussian 82(TM) system (copyright 1983,
 Carnegie Mellon University). Gaussian is a federally registered
 trademark of Gaussian, Inc.
  
 This software contains proprietary and confidential information,
 including trade secrets, belonging to Gaussian, Inc.
  
 This software is provided under written license and may be
 used, copied, transmitted, or stored only in accord with that
 written license.
  
 The following legend is applicable only to US Government
 contracts under FAR:
  
                    RESTRICTED RIGHTS LEGEND
  
 Use, reproduction and disclosure by the US Government is
 subject to restrictions as set forth in subparagraphs (a)
 and (c) of the Commercial Computer Software - Restricted
 Rights clause in FAR 52.227-19.
  
 Gaussian, Inc.
 340 Quinnipiac St., Bldg. 40, Wallingford CT 06492
  
  
 ---------------------------------------------------------------
 Warning -- This program may not be used in any manner that
 competes with the business of Gaussian, Inc. or will provide
 assistance to any competitor of Gaussian, Inc.  The licensee
 of this program is prohibited from giving any competitor of
 Gaussian, Inc. access to this program.  By using this program,
 the user acknowledges that Gaussian, Inc. is engaged in the
 business of creating and licensing software in the field of
 computational chemistry and represents and warrants to the
 licensee that it is not a competitor of Gaussian, Inc. and that
 it will not use this program in any manner prohibited above.
 ---------------------------------------------------------------
  

 Cite this work as:
 Gaussian 16, Revision C.01,
 M. J. Frisch, G. W. Trucks, H. B. Schlegel, G. E. Scuseria, 
 M. A. Robb, J. R. Cheeseman, G. Scalmani, V. Barone, 
 G. A. Petersson, H. Nakatsuji, X. Li, M. Caricato, A. V. Marenich, 
 J. Bloino, B. G. Janesko, R. Gomperts, B. Mennucci, H. P. Hratchian, 
 J. V. Ortiz, A. F. Izmaylov, J. L. Sonnenberg, D. Williams-Young, 
 F. Ding, F. Lipparini, F. Egidi, J. Goings, B. Peng, A. Petrone, 
 T. Henderson, D. Ranasinghe, V. G. Zakrzewski, J. Gao, N. Rega, 
 G. Zheng, W. Liang, M. Hada, M. Ehara, K. Toyota, R. Fukuda, 
 J. Hasegawa, M. Ishida, T. Nakajima, Y. Honda, O. Kitao, H. Nakai, 
 T. Vreven, K. Throssell, J. A. Montgomery, Jr., J. E. Peralta, 
 F. Ogliaro, M. J. Bearpark, J. J. Heyd, E. N. Brothers, K. N. Kudin, 
 V. N. Staroverov, T. A. Keith, R. Kobayashi, J. Normand, 
 K. Raghavachari, A. P. Rendell, J. C. Burant, S. S. Iyengar, 
 J. Tomasi, M. Cossi, J. M. Millam, M. Klene, C. Adamo, R. Cammi, 
 J. W. Ochterski, R. L. Martin, K. Morokuma, O. Farkas, 
 J. B. Foresman, and D. J. Fox, Gaussian, Inc., Wallingford CT, 2019.
 
 ******************************************
 Gaussian 16:  ES64L-G16RevC.01  3-Jul-2019
                14-Aug-2024 
 ******************************************
 %nprocs=16
 Will use up to   16 processors via shared memory.
 %mem=16GB
 %chk=pyrd4_conf-3.chk
 ----------------------------------------------------------------------
 # B3LYP/6-31G(d,p) symmetry=loose empiricaldispersion=GD3BJ int=(grid=
 ultrafine) opt freq=noraman
 ----------------------------------------------------------------------
 1/18=20,19=15,26=4,38=1/1,3;
 2/9=110,12=2,17=4,18=3,40=1/2;
 3/5=1,6=6,7=101,11=2,25=1,30=1,71=1,74=-5,75=-5,124=41/1,2,3;
 4//1;
 5/5=2,38=5/2;
 6/7=2,8=2,9=2,10=2,28=1/1;
 7//1,2,3,16;
 1/18=20,19=15,26=4/3(2);
 2/9=110/2;
 99//99;
 2/9=110/2;
 3/5=1,6=6,7=101,11=2,25=1,30=1,71=1,74=-5,75=-5,124=41/1,2,3;
 4/5=5,16=3,69=1/1;
 5/5=2,38=5/2;
 7//1,2,3,16;
 1/18=20,19=15,26=4/3(-5);
 2/9=110/2;
 6/7=2,8=2,9=2,10=2,19=2,28=1/1;
 99/9=1/99;
 ---------
 pyrd4.xyz
 ---------
 Symbolic Z-matrix:
 Charge =  0 Multiplicity = 1
 O                     2.6883    0.916     1.6969 
 C                     1.8733    0.9614    2.6177 
 N                     2.1864    1.1434    3.9141 
 C                     3.4207    1.3764    4.5272 
 N                     3.3346    1.4526    5.8786 
 C                     4.4687    1.6793    6.587 
 C                     5.716     1.8393    5.9839 
 C                     5.8062    1.7642    4.5896 
 C                     7.138     1.9315    3.8662 
 C                     8.203     2.9019    4.3322 
 C                     8.4432    1.4094    4.4291 
 C                     4.6415    1.5302    3.8513 
 C                     0.3994    0.7599    2.3379 
 C                    -0.5922    1.3407    3.147 
 C                    -1.9405    1.1378    2.863 
 C                    -2.3234    0.3607    1.7687 
 B                    -3.8573    0.1327    1.4497 
 O                    -4.3266   -0.6138    0.3925 
 C                    -5.7162   -0.7984    0.5913 
 C                    -6.3683   -0.8512   -0.8051 
 C                    -5.8566   -2.1653    1.3066 
 C                    -6.0819    0.4628    1.4565 
 C                    -6.3001    1.7772    0.6659 
 C                    -7.2175    0.2538    2.4786 
 O                    -4.8897    0.6562    2.1954 
 C                    -1.3431   -0.2081    0.9545 
 C                     0.0061   -0.0078    1.2334 
 H                     1.4194    1.0799    4.5566 
 H                     4.3611    1.7313    7.661 
 H                     6.5931    2.0181    6.5867 
 H                     7.0381    1.8445    2.7819 
 H                     8.0235    3.4816    5.2386 
 H                     8.7359    3.4824    3.5776 
 H                     9.1458    0.934     3.7431 
 H                     8.4353    0.9215    5.4047 
 H                     4.7043    1.4745    2.7765 
 H                    -0.3383    1.9679    3.99 
 H                    -2.6967    1.5902    3.4894 
 H                    -6.1176    0.0216   -1.4082 
 H                    -7.4541   -0.9026   -0.7286 
 H                    -6.0323   -1.7236   -1.3667 
 H                    -6.9032   -2.4214    1.4691 
 H                    -5.3601   -2.1676    2.2778 
 H                    -5.411    -2.9695    0.7198 
 H                    -7.2249    1.7441    0.0906 
 H                    -5.4836    1.9715   -0.0308 
 H                    -6.3609    2.638     1.3328 
 H                    -8.154     0.009     1.9781 
 H                    -7.3836    1.1511    3.0756 
 H                    -6.9948   -0.5499    3.1806 
 H                    -1.6308   -0.8051    0.1003 
 H                     0.7489   -0.454     0.5844 
 

 GradGradGradGradGradGradGradGradGradGradGradGradGradGradGradGradGradGrad
 Berny optimization.
 Initialization pass.
                           ----------------------------
                           !    Initial Parameters    !
                           ! (Angstroms and Degrees)  !
 --------------------------                            --------------------------
 ! Name  Definition              Value          Derivative Info.                !
 --------------------------------------------------------------------------------
 ! R1    R(1,2)                  1.2305         estimate D2E/DX2                !
 ! R2    R(2,3)                  1.346          estimate D2E/DX2                !
 ! R3    R(2,13)                 1.5137         estimate D2E/DX2                !
 ! R4    R(3,4)                  1.3977         estimate D2E/DX2                !
 ! R5    R(3,28)                 1.0026         estimate D2E/DX2                !
 ! R6    R(4,5)                  1.3563         estimate D2E/DX2                !
 ! R7    R(4,12)                 1.4039         estimate D2E/DX2                !
 ! R8    R(5,6)                  1.3562         estimate D2E/DX2                !
 ! R9    R(6,7)                  1.3947         estimate D2E/DX2                !
 ! R10   R(6,29)                 1.0806         estimate D2E/DX2                !
 ! R11   R(7,8)                  1.3992         estimate D2E/DX2                !
 ! R12   R(7,30)                 1.0792         estimate D2E/DX2                !
 ! R13   R(8,9)                  1.5248         estimate D2E/DX2                !
 ! R14   R(8,12)                 1.3987         estimate D2E/DX2                !
 ! R15   R(9,10)                 1.5143         estimate D2E/DX2                !
 ! R16   R(9,11)                 1.5143         estimate D2E/DX2                !
 ! R17   R(9,31)                 1.0924         estimate D2E/DX2                !
 ! R18   R(10,11)                1.5148         estimate D2E/DX2                !
 ! R19   R(10,32)                1.0908         estimate D2E/DX2                !
 ! R20   R(10,33)                1.091          estimate D2E/DX2                !
 ! R21   R(11,34)                1.091          estimate D2E/DX2                !
 ! R22   R(11,35)                1.0908         estimate D2E/DX2                !
 ! R23   R(12,36)                1.0781         estimate D2E/DX2                !
 ! R24   R(13,14)                1.4054         estimate D2E/DX2                !
 ! R25   R(13,27)                1.4014         estimate D2E/DX2                !
 ! R26   R(14,15)                1.3927         estimate D2E/DX2                !
 ! R27   R(14,37)                1.081          estimate D2E/DX2                !
 ! R28   R(15,16)                1.3957         estimate D2E/DX2                !
 ! R29   R(15,38)                1.0811         estimate D2E/DX2                !
 ! R30   R(16,17)                1.5832         estimate D2E/DX2                !
 ! R31   R(16,26)                1.3955         estimate D2E/DX2                !
 ! R32   R(17,18)                1.3767         estimate D2E/DX2                !
 ! R33   R(17,25)                1.3769         estimate D2E/DX2                !
 ! R34   R(18,19)                1.4158         estimate D2E/DX2                !
 ! R35   R(19,20)                1.5421         estimate D2E/DX2                !
 ! R36   R(19,21)                1.5491         estimate D2E/DX2                !
 ! R37   R(19,22)                1.5726         estimate D2E/DX2                !
 ! R38   R(20,39)                1.0901         estimate D2E/DX2                !
 ! R39   R(20,40)                1.0897         estimate D2E/DX2                !
 ! R40   R(20,41)                1.0906         estimate D2E/DX2                !
 ! R41   R(21,42)                1.0897         estimate D2E/DX2                !
 ! R42   R(21,43)                1.0908         estimate D2E/DX2                !
 ! R43   R(21,44)                1.0907         estimate D2E/DX2                !
 ! R44   R(22,23)                1.5493         estimate D2E/DX2                !
 ! R45   R(22,24)                1.5421         estimate D2E/DX2                !
 ! R46   R(22,25)                1.4159         estimate D2E/DX2                !
 ! R47   R(23,45)                1.0896         estimate D2E/DX2                !
 ! R48   R(23,46)                1.0908         estimate D2E/DX2                !
 ! R49   R(23,47)                1.0906         estimate D2E/DX2                !
 ! R50   R(24,48)                1.0897         estimate D2E/DX2                !
 ! R51   R(24,49)                1.0905         estimate D2E/DX2                !
 ! R52   R(24,50)                1.0901         estimate D2E/DX2                !
 ! R53   R(26,27)                1.3922         estimate D2E/DX2                !
 ! R54   R(26,51)                1.0811         estimate D2E/DX2                !
 ! R55   R(27,52)                1.0826         estimate D2E/DX2                !
 ! A1    A(1,2,3)              124.8646         estimate D2E/DX2                !
 ! A2    A(1,2,13)             120.1113         estimate D2E/DX2                !
 ! A3    A(3,2,13)             114.994          estimate D2E/DX2                !
 ! A4    A(2,3,4)              130.5726         estimate D2E/DX2                !
 ! A5    A(2,3,28)             115.5125         estimate D2E/DX2                !
 ! A6    A(4,3,28)             113.8935         estimate D2E/DX2                !
 ! A7    A(3,4,5)              112.9771         estimate D2E/DX2                !
 ! A8    A(3,4,12)             125.0991         estimate D2E/DX2                !
 ! A9    A(5,4,12)             121.9225         estimate D2E/DX2                !
 ! A10   A(4,5,6)              118.4734         estimate D2E/DX2                !
 ! A11   A(5,6,7)              122.7623         estimate D2E/DX2                !
 ! A12   A(5,6,29)             116.353          estimate D2E/DX2                !
 ! A13   A(7,6,29)             120.8847         estimate D2E/DX2                !
 ! A14   A(6,7,8)              118.8426         estimate D2E/DX2                !
 ! A15   A(6,7,30)             120.2868         estimate D2E/DX2                !
 ! A16   A(8,7,30)             120.8706         estimate D2E/DX2                !
 ! A17   A(7,8,9)              121.5451         estimate D2E/DX2                !
 ! A18   A(7,8,12)             118.7694         estimate D2E/DX2                !
 ! A19   A(9,8,12)             119.6855         estimate D2E/DX2                !
 ! A20   A(8,9,10)             122.5884         estimate D2E/DX2                !
 ! A21   A(8,9,11)             122.592          estimate D2E/DX2                !
 ! A22   A(8,9,31)             112.4767         estimate D2E/DX2                !
 ! A23   A(10,9,31)            114.8865         estimate D2E/DX2                !
 ! A24   A(11,9,31)            114.857          estimate D2E/DX2                !
 ! A25   A(9,10,32)            118.7212         estimate D2E/DX2                !
 ! A26   A(9,10,33)            118.1404         estimate D2E/DX2                !
 ! A27   A(11,10,32)           119.7727         estimate D2E/DX2                !
 ! A28   A(11,10,33)           119.4074         estimate D2E/DX2                !
 ! A29   A(32,10,33)           111.8592         estimate D2E/DX2                !
 ! A30   A(9,11,34)            118.1378         estimate D2E/DX2                !
 ! A31   A(9,11,35)            118.714          estimate D2E/DX2                !
 ! A32   A(10,11,34)           119.4216         estimate D2E/DX2                !
 ! A33   A(10,11,35)           119.7853         estimate D2E/DX2                !
 ! A34   A(34,11,35)           111.8471         estimate D2E/DX2                !
 ! A35   A(4,12,8)             119.2294         estimate D2E/DX2                !
 ! A36   A(4,12,36)            121.6675         estimate D2E/DX2                !
 ! A37   A(8,12,36)            119.103          estimate D2E/DX2                !
 ! A38   A(2,13,14)            121.7068         estimate D2E/DX2                !
 ! A39   A(2,13,27)            119.4637         estimate D2E/DX2                !
 ! A40   A(14,13,27)           118.8224         estimate D2E/DX2                !
 ! A41   A(13,14,15)           120.3603         estimate D2E/DX2                !
 ! A42   A(13,14,37)           121.5348         estimate D2E/DX2                !
 ! A43   A(15,14,37)           118.0952         estimate D2E/DX2                !
 ! A44   A(14,15,16)           120.4363         estimate D2E/DX2                !
 ! A45   A(14,15,38)           119.8689         estimate D2E/DX2                !
 ! A46   A(16,15,38)           119.6935         estimate D2E/DX2                !
 ! A47   A(15,16,17)           120.2619         estimate D2E/DX2                !
 ! A48   A(15,16,26)           119.4505         estimate D2E/DX2                !
 ! A49   A(17,16,26)           120.2869         estimate D2E/DX2                !
 ! A50   A(16,17,18)           124.2706         estimate D2E/DX2                !
 ! A51   A(16,17,25)           124.2323         estimate D2E/DX2                !
 ! A52   A(18,17,25)           111.4971         estimate D2E/DX2                !
 ! A53   A(17,18,19)           107.3047         estimate D2E/DX2                !
 ! A54   A(18,19,20)           106.999          estimate D2E/DX2                !
 ! A55   A(18,19,21)           105.5948         estimate D2E/DX2                !
 ! A56   A(18,19,22)           101.5912         estimate D2E/DX2                !
 ! A57   A(20,19,21)           110.4623         estimate D2E/DX2                !
 ! A58   A(20,19,22)           115.2987         estimate D2E/DX2                !
 ! A59   A(21,19,22)           115.6291         estimate D2E/DX2                !
 ! A60   A(19,20,39)           112.1058         estimate D2E/DX2                !
 ! A61   A(19,20,40)           111.0636         estimate D2E/DX2                !
 ! A62   A(19,20,41)           111.3102         estimate D2E/DX2                !
 ! A63   A(39,20,40)           107.8036         estimate D2E/DX2                !
 ! A64   A(39,20,41)           106.5421         estimate D2E/DX2                !
 ! A65   A(40,20,41)           107.7827         estimate D2E/DX2                !
 ! A66   A(19,21,42)           111.3024         estimate D2E/DX2                !
 ! A67   A(19,21,43)           111.823          estimate D2E/DX2                !
 ! A68   A(19,21,44)           111.4165         estimate D2E/DX2                !
 ! A69   A(42,21,43)           107.6933         estimate D2E/DX2                !
 ! A70   A(42,21,44)           107.4179         estimate D2E/DX2                !
 ! A71   A(43,21,44)           106.9486         estimate D2E/DX2                !
 ! A72   A(19,22,23)           115.6203         estimate D2E/DX2                !
 ! A73   A(19,22,24)           115.2918         estimate D2E/DX2                !
 ! A74   A(19,22,25)           101.5872         estimate D2E/DX2                !
 ! A75   A(23,22,24)           110.4568         estimate D2E/DX2                !
 ! A76   A(23,22,25)           105.6055         estimate D2E/DX2                !
 ! A77   A(24,22,25)           107.0191         estimate D2E/DX2                !
 ! A78   A(22,23,45)           111.2958         estimate D2E/DX2                !
 ! A79   A(22,23,46)           111.8163         estimate D2E/DX2                !
 ! A80   A(22,23,47)           111.4338         estimate D2E/DX2                !
 ! A81   A(45,23,46)           107.6674         estimate D2E/DX2                !
 ! A82   A(45,23,47)           107.4283         estimate D2E/DX2                !
 ! A83   A(46,23,47)           106.9601         estimate D2E/DX2                !
 ! A84   A(22,24,48)           111.0326         estimate D2E/DX2                !
 ! A85   A(22,24,49)           111.3162         estimate D2E/DX2                !
 ! A86   A(22,24,50)           112.1056         estimate D2E/DX2                !
 ! A87   A(48,24,49)           107.7821         estimate D2E/DX2                !
 ! A88   A(48,24,50)           107.8015         estimate D2E/DX2                !
 ! A89   A(49,24,50)           106.5722         estimate D2E/DX2                !
 ! A90   A(17,25,22)           107.2639         estimate D2E/DX2                !
 ! A91   A(16,26,27)           120.3476         estimate D2E/DX2                !
 ! A92   A(16,26,51)           119.9417         estimate D2E/DX2                !
 ! A93   A(27,26,51)           119.7104         estimate D2E/DX2                !
 ! A94   A(13,27,26)           120.5755         estimate D2E/DX2                !
 ! A95   A(13,27,52)           120.3771         estimate D2E/DX2                !
 ! A96   A(26,27,52)           119.0474         estimate D2E/DX2                !
 ! D1    D(1,2,3,4)              3.1583         estimate D2E/DX2                !
 ! D2    D(1,2,3,28)          -175.0342         estimate D2E/DX2                !
 ! D3    D(13,2,3,4)          -178.8474         estimate D2E/DX2                !
 ! D4    D(13,2,3,28)            2.9601         estimate D2E/DX2                !
 ! D5    D(1,2,13,14)         -151.9797         estimate D2E/DX2                !
 ! D6    D(1,2,13,27)           27.0373         estimate D2E/DX2                !
 ! D7    D(3,2,13,14)           29.9227         estimate D2E/DX2                !
 ! D8    D(3,2,13,27)         -151.0603         estimate D2E/DX2                !
 ! D9    D(2,3,4,5)           -177.389          estimate D2E/DX2                !
 ! D10   D(2,3,4,12)             3.0233         estimate D2E/DX2                !
 ! D11   D(28,3,4,5)             0.8268         estimate D2E/DX2                !
 ! D12   D(28,3,4,12)         -178.7609         estimate D2E/DX2                !
 ! D13   D(3,4,5,6)           -179.8581         estimate D2E/DX2                !
 ! D14   D(12,4,5,6)            -0.2555         estimate D2E/DX2                !
 ! D15   D(3,4,12,8)           179.7877         estimate D2E/DX2                !
 ! D16   D(3,4,12,36)           -0.0888         estimate D2E/DX2                !
 ! D17   D(5,4,12,8)             0.2349         estimate D2E/DX2                !
 ! D18   D(5,4,12,36)         -179.6415         estimate D2E/DX2                !
 ! D19   D(4,5,6,7)              0.1231         estimate D2E/DX2                !
 ! D20   D(4,5,6,29)          -179.8627         estimate D2E/DX2                !
 ! D21   D(5,6,7,8)              0.0286         estimate D2E/DX2                !
 ! D22   D(5,6,7,30)          -179.9953         estimate D2E/DX2                !
 ! D23   D(29,6,7,8)          -179.9863         estimate D2E/DX2                !
 ! D24   D(29,6,7,30)           -0.0102         estimate D2E/DX2                !
 ! D25   D(6,7,8,9)            179.9323         estimate D2E/DX2                !
 ! D26   D(6,7,8,12)            -0.0499         estimate D2E/DX2                !
 ! D27   D(30,7,8,9)            -0.0437         estimate D2E/DX2                !
 ! D28   D(30,7,8,12)          179.9741         estimate D2E/DX2                !
 ! D29   D(7,8,9,10)           -36.4632         estimate D2E/DX2                !
 ! D30   D(7,8,9,11)            36.3697         estimate D2E/DX2                !
 ! D31   D(7,8,9,31)           179.9272         estimate D2E/DX2                !
 ! D32   D(12,8,9,10)          143.5189         estimate D2E/DX2                !
 ! D33   D(12,8,9,11)         -143.6482         estimate D2E/DX2                !
 ! D34   D(12,8,9,31)           -0.0908         estimate D2E/DX2                !
 ! D35   D(7,8,12,4)            -0.0756         estimate D2E/DX2                !
 ! D36   D(7,8,12,36)          179.804          estimate D2E/DX2                !
 ! D37   D(9,8,12,4)           179.9418         estimate D2E/DX2                !
 ! D38   D(9,8,12,36)           -0.1785         estimate D2E/DX2                !
 ! D39   D(8,9,10,32)            1.9563         estimate D2E/DX2                !
 ! D40   D(8,9,10,33)         -138.8085         estimate D2E/DX2                !
 ! D41   D(31,9,10,32)         144.7756         estimate D2E/DX2                !
 ! D42   D(31,9,10,33)           4.0108         estimate D2E/DX2                !
 ! D43   D(8,9,11,34)          138.7956         estimate D2E/DX2                !
 ! D44   D(8,9,11,35)           -1.9315         estimate D2E/DX2                !
 ! D45   D(31,9,11,34)          -3.9804         estimate D2E/DX2                !
 ! D46   D(31,9,11,35)        -144.7075         estimate D2E/DX2                !
 ! D47   D(32,10,11,34)       -144.5796         estimate D2E/DX2                !
 ! D48   D(32,10,11,35)          0.0135         estimate D2E/DX2                !
 ! D49   D(33,10,11,34)         -0.0087         estimate D2E/DX2                !
 ! D50   D(33,10,11,35)        144.5845         estimate D2E/DX2                !
 ! D51   D(2,13,14,15)         179.9391         estimate D2E/DX2                !
 ! D52   D(2,13,14,37)           1.0913         estimate D2E/DX2                !
 ! D53   D(27,13,14,15)          0.916          estimate D2E/DX2                !
 ! D54   D(27,13,14,37)       -177.9318         estimate D2E/DX2                !
 ! D55   D(2,13,27,26)         179.9976         estimate D2E/DX2                !
 ! D56   D(2,13,27,52)           0.0039         estimate D2E/DX2                !
 ! D57   D(14,13,27,26)         -0.9569         estimate D2E/DX2                !
 ! D58   D(14,13,27,52)        179.0494         estimate D2E/DX2                !
 ! D59   D(13,14,15,16)         -0.2881         estimate D2E/DX2                !
 ! D60   D(13,14,15,38)       -179.8632         estimate D2E/DX2                !
 ! D61   D(37,14,15,16)        178.5987         estimate D2E/DX2                !
 ! D62   D(37,14,15,38)         -0.9764         estimate D2E/DX2                !
 ! D63   D(14,15,16,17)        179.9974         estimate D2E/DX2                !
 ! D64   D(14,15,16,26)         -0.3135         estimate D2E/DX2                !
 ! D65   D(38,15,16,17)         -0.4267         estimate D2E/DX2                !
 ! D66   D(38,15,16,26)        179.2623         estimate D2E/DX2                !
 ! D67   D(15,16,17,18)        179.8211         estimate D2E/DX2                !
 ! D68   D(15,16,17,25)         -0.1934         estimate D2E/DX2                !
 ! D69   D(26,16,17,18)          0.1346         estimate D2E/DX2                !
 ! D70   D(26,16,17,25)       -179.8799         estimate D2E/DX2                !
 ! D71   D(15,16,26,27)          0.2743         estimate D2E/DX2                !
 ! D72   D(15,16,26,51)       -179.525          estimate D2E/DX2                !
 ! D73   D(17,16,26,27)        179.9633         estimate D2E/DX2                !
 ! D74   D(17,16,26,51)          0.164          estimate D2E/DX2                !
 ! D75   D(16,17,18,19)        168.7727         estimate D2E/DX2                !
 ! D76   D(25,17,18,19)        -11.2144         estimate D2E/DX2                !
 ! D77   D(16,17,25,22)        168.4974         estimate D2E/DX2                !
 ! D78   D(18,17,25,22)        -11.5155         estimate D2E/DX2                !
 ! D79   D(17,18,19,20)        147.6328         estimate D2E/DX2                !
 ! D80   D(17,18,19,21)        -94.666          estimate D2E/DX2                !
 ! D81   D(17,18,19,22)         26.3764         estimate D2E/DX2                !
 ! D82   D(18,19,20,39)        -54.2379         estimate D2E/DX2                !
 ! D83   D(18,19,20,40)       -174.9069         estimate D2E/DX2                !
 ! D84   D(18,19,20,41)         64.9917         estimate D2E/DX2                !
 ! D85   D(21,19,20,39)       -168.7017         estimate D2E/DX2                !
 ! D86   D(21,19,20,40)         70.6293         estimate D2E/DX2                !
 ! D87   D(21,19,20,41)        -49.4721         estimate D2E/DX2                !
 ! D88   D(22,19,20,39)         57.9037         estimate D2E/DX2                !
 ! D89   D(22,19,20,40)        -62.7653         estimate D2E/DX2                !
 ! D90   D(22,19,20,41)        177.1333         estimate D2E/DX2                !
 ! D91   D(18,19,21,42)       -177.6172         estimate D2E/DX2                !
 ! D92   D(18,19,21,43)         61.883          estimate D2E/DX2                !
 ! D93   D(18,19,21,44)        -57.7452         estimate D2E/DX2                !
 ! D94   D(20,19,21,42)        -62.2692         estimate D2E/DX2                !
 ! D95   D(20,19,21,43)        177.2311         estimate D2E/DX2                !
 ! D96   D(20,19,21,44)         57.6029         estimate D2E/DX2                !
 ! D97   D(22,19,21,42)         70.9585         estimate D2E/DX2                !
 ! D98   D(22,19,21,43)        -49.5412         estimate D2E/DX2                !
 ! D99   D(22,19,21,44)       -169.1695         estimate D2E/DX2                !
 ! D100  D(18,19,22,23)         81.4763         estimate D2E/DX2                !
 ! D101  D(18,19,22,24)       -147.5809         estimate D2E/DX2                !
 ! D102  D(18,19,22,25)        -32.282          estimate D2E/DX2                !
 ! D103  D(20,19,22,23)        -33.8042         estimate D2E/DX2                !
 ! D104  D(20,19,22,24)         97.1386         estimate D2E/DX2                !
 ! D105  D(20,19,22,25)       -147.5625         estimate D2E/DX2                !
 ! D106  D(21,19,22,23)       -164.7718         estimate D2E/DX2                !
 ! D107  D(21,19,22,24)        -33.829          estimate D2E/DX2                !
 ! D108  D(21,19,22,25)         81.4699         estimate D2E/DX2                !
 ! D109  D(19,22,23,45)         70.9276         estimate D2E/DX2                !
 ! D110  D(19,22,23,46)        -49.5299         estimate D2E/DX2                !
 ! D111  D(19,22,23,47)       -169.18           estimate D2E/DX2                !
 ! D112  D(24,22,23,45)        -62.2759         estimate D2E/DX2                !
 ! D113  D(24,22,23,46)        177.2667         estimate D2E/DX2                !
 ! D114  D(24,22,23,47)         57.6165         estimate D2E/DX2                !
 ! D115  D(25,22,23,45)       -177.6506         estimate D2E/DX2                !
 ! D116  D(25,22,23,46)         61.892          estimate D2E/DX2                !
 ! D117  D(25,22,23,47)        -57.7582         estimate D2E/DX2                !
 ! D118  D(19,22,24,48)        -62.7545         estimate D2E/DX2                !
 ! D119  D(19,22,24,49)        177.1617         estimate D2E/DX2                !
 ! D120  D(19,22,24,50)         57.89           estimate D2E/DX2                !
 ! D121  D(23,22,24,48)         70.615          estimate D2E/DX2                !
 ! D122  D(23,22,24,49)        -49.4688         estimate D2E/DX2                !
 ! D123  D(23,22,24,50)       -168.7405         estimate D2E/DX2                !
 ! D124  D(25,22,24,48)       -174.9003         estimate D2E/DX2                !
 ! D125  D(25,22,24,49)         65.0158         estimate D2E/DX2                !
 ! D126  D(25,22,24,50)        -54.2559         estimate D2E/DX2                !
 ! D127  D(19,22,25,17)         26.5483         estimate D2E/DX2                !
 ! D128  D(23,22,25,17)        -94.4869         estimate D2E/DX2                !
 ! D129  D(24,22,25,17)        147.8034         estimate D2E/DX2                !
 ! D130  D(16,26,27,13)          0.3687         estimate D2E/DX2                !
 ! D131  D(16,26,27,52)       -179.6376         estimate D2E/DX2                !
 ! D132  D(51,26,27,13)       -179.8315         estimate D2E/DX2                !
 ! D133  D(51,26,27,52)          0.1623         estimate D2E/DX2                !
 --------------------------------------------------------------------------------
 Trust Radius=3.00D-01 FncErr=1.00D-07 GrdErr=1.00D-06 EigMax=2.50D+02 EigMin=1.00D-04
 Number of steps in this run=    294 maximum allowed number of steps=    312.
 GradGradGradGradGradGradGradGradGradGradGradGradGradGradGradGradGradGrad

 Stoichiometry    C21H25BN2O3
 Framework group  C1[X(C21H25BN2O3)]
 Deg. of freedom   150
 Full point group                 C1      NOp   1
 Largest Abelian subgroup         C1      NOp   1
 Largest concise Abelian subgroup C1      NOp   1
                         Standard orientation:                         
 ---------------------------------------------------------------------
 Center     Atomic      Atomic             Coordinates (Angstroms)
 Number     Number       Type             X           Y           Z
 ---------------------------------------------------------------------
      1          8           0       -2.361419   -1.765422    0.316009
      2          6           0       -1.867634   -0.658063    0.106029
      3          7           0       -2.569263    0.459220   -0.160809
      4          6           0       -3.949191    0.676196   -0.209783
      5          7           0       -4.273528    1.942400   -0.571767
      6          6           0       -5.585669    2.275961   -0.651960
      7          6           0       -6.612158    1.373142   -0.375690
      8          6           0       -6.279366    0.067317    0.001030
      9          6           0       -7.351701   -0.969176    0.318470
     10          6           0       -8.644613   -0.615597    1.023039
     11          6           0       -8.665539   -1.039407   -0.431124
     12          6           0       -4.928495   -0.285293    0.085772
     13          6           0       -0.363619   -0.487898    0.090085
     14          6           0        0.245426    0.731733    0.431855
     15          6           0        1.632354    0.856777    0.408842
     16          6           0        2.434278   -0.228436    0.052163
     17          5           0        4.010488   -0.081674    0.027325
     18          8           0        4.878344   -1.096472   -0.307618
     19          6           0        6.160746   -0.518216   -0.467781
     20          6           0        7.191164   -1.577541   -0.027299
     21          6           0        6.299172   -0.225104   -1.982609
     22          6           0        6.056120    0.745176    0.462718
     23          6           0        6.286270    0.485956    1.972732
     24          6           0        6.862831    1.974419   -0.002188
     25          8           0        4.685487    1.077591    0.337893
     26          6           0        1.835501   -1.445494   -0.275981
     27          6           0        0.449616   -1.576176   -0.253818
     28          1           0       -2.022640    1.268935   -0.385957
     29          1           0       -5.805120    3.292539   -0.945503
     30          1           0       -7.643498    1.681551   -0.452268
     31          1           0       -6.927945   -1.937544    0.594060
     32          1           0       -8.830119    0.426596    1.286200
     33          1           0       -9.018712   -1.299995    1.785950
     34          1           0       -9.054234   -2.023520   -0.696992
     35          1           0       -8.865775   -0.300400   -1.208091
     36          1           0       -4.665953   -1.289063    0.378617
     37          1           0       -0.338060    1.589397    0.735910
     38          1           0        2.092599    1.798060    0.675382
     39          1           0        6.993425   -1.948893    0.978363
     40          1           0        8.201612   -1.169729   -0.039194
     41          1           0        7.174431   -2.445336   -0.687621
     42          1           0        7.279666    0.187970   -2.217909
     43          1           0        5.548087    0.486344   -2.328239
     44          1           0        6.175658   -1.131521   -2.576564
     45          1           0        7.331773    0.260082    2.180640
     46          1           0        5.688215   -0.350740    2.336167
     47          1           0        6.014442    1.355450    2.572330
     48          1           0        7.930774    1.758288   -0.017776
     49          1           0        6.705013    2.825915    0.660529
     50          1           0        6.574180    2.300513   -1.001526
     51          1           0        2.449412   -2.293465   -0.545974
     52          1           0        0.007629   -2.531630   -0.506407
 ---------------------------------------------------------------------
 Rotational constants (GHZ):           0.7283491           0.0499504           0.0484073
 Standard basis: 6-31G(d,p) (6D, 7F)
 There are   530 symmetry adapted cartesian basis functions of A   symmetry.
 There are   530 symmetry adapted basis functions of A   symmetry.
   530 basis functions,   931 primitive gaussians,   530 cartesian basis functions
    97 alpha electrons       97 beta electrons
       nuclear repulsion energy      2217.8326628536 Hartrees.
 NAtoms=   52 NActive=   52 NUniq=   52 SFac= 1.00D+00 NAtFMM=   60 NAOKFM=F Big=F
 Integral buffers will be    131072 words long.
 Raffenetti 2 integral format.
 Two-electron integral symmetry is turned on.
 Nuclear repulsion after empirical dispersion term =     2217.7264143695 Hartrees.
 One-electron integrals computed using PRISM.
 NBasis=   530 RedAO= T EigKep=  4.37D-04  NBF=   530
 NBsUse=   530 1.00D-06 EigRej= -1.00D+00 NBFU=   530
 ExpMin= 1.27D-01 ExpMax= 5.48D+03 ExpMxC= 8.25D+02 IAcc=3 IRadAn=         5 AccDes= 0.00D+00
 Harris functional with IExCor=  402 and IRadAn=       5 diagonalized for initial guess.
 HarFok:  IExCor=  402 AccDes= 0.00D+00 IRadAn=         5 IDoV= 1 UseB2=F ITyADJ=14
 ICtDFT=  3500011 ScaDFX=  1.000000  1.000000  1.000000  1.000000
 FoFCou: FMM=F IPFlag=           0 FMFlag=      100000 FMFlg1=           0
         NFxFlg=           0 DoJE=T BraDBF=F KetDBF=T FulRan=T
         wScrn=  0.000000 ICntrl=       500 IOpCl=  0 I1Cent=   200000004 NGrid=           0
         NMat0=    1 NMatS0=      1 NMatT0=    0 NMatD0=    1 NMtDS0=    0 NMtDT0=    0
 Petite list used in FoFCou.
 Requested convergence on RMS density matrix=1.00D-08 within 128 cycles.
 Requested convergence on MAX density matrix=1.00D-06.
 Requested convergence on             energy=1.00D-06.
 No special actions if energy rises.
 Integral accuracy reduced to 1.0D-05 until final iterations.
 Initial convergence to 1.0D-05 achieved.  Increase integral accuracy.
 SCF Done:  E(RB3LYP) =  -1175.58005662     A.U. after   15 cycles
            NFock= 15  Conv=0.51D-08     -V/T= 2.0096

 **********************************************************************

            Population analysis using the SCF Density.

 **********************************************************************

 Orbital symmetries:
       Occupied  (A) (A) (A) (A) (A) (A) (A) (A) (A) (A) (A) (A)
                 (A) (A) (A) (A) (A) (A) (A) (A) (A) (A) (A) (A)
                 (A) (A) (A) (A) (A) (A) (A) (A) (A) (A) (A) (A)
                 (A) (A) (A) (A) (A) (A) (A) (A) (A) (A) (A) (A)
                 (A) (A) (A) (A) (A) (A) (A) (A) (A) (A) (A) (A)
                 (A) (A) (A) (A) (A) (A) (A) (A) (A) (A) (A) (A)
                 (A) (A) (A) (A) (A) (A) (A) (A) (A) (A) (A) (A)
                 (A) (A) (A) (A) (A) (A) (A) (A) (A) (A) (A) (A)
                 (A)
       Virtual   (A) (A) (A) (A) (A) (A) (A) (A) (A) (A) (A) (A)
                 (A) (A) (A) (A) (A) (A) (A) (A) (A) (A) (A) (A)
                 (A) (A) (A) (A) (A) (A) (A) (A) (A) (A) (A) (A)
                 (A) (A) (A) (A) (A) (A) (A) (A) (A) (A) (A) (A)
                 (A) (A) (A) (A) (A) (A) (A) (A) (A) (A) (A) (A)
                 (A) (A) (A) (A) (A) (A) (A) (A) (A) (A) (A) (A)
                 (A) (A) (A) (A) (A) (A) (A) (A) (A) (A) (A) (A)
                 (A) (A) (A) (A) (A) (A) (A) (A) (A) (A) (A) (A)
                 (A) (A) (A) (A) (A) (A) (A) (A) (A) (A) (A) (A)
                 (A) (A) (A) (A) (A) (A) (A) (A) (A) (A) (A) (A)
                 (A) (A) (A) (A) (A) (A) (A) (A) (A) (A) (A) (A)
                 (A) (A) (A) (A) (A) (A) (A) (A) (A) (A) (A) (A)
                 (A) (A) (A) (A) (A) (A) (A) (A) (A) (A) (A) (A)
                 (A) (A) (A) (A) (A) (A) (A) (A) (A) (A) (A) (A)
                 (A) (A) (A) (A) (A) (A) (A) (A) (A) (A) (A) (A)
                 (A) (A) (A) (A) (A) (A) (A) (A) (A) (A) (A) (A)
                 (A) (A) (A) (A) (A) (A) (A) (A) (A) (A) (A) (A)
                 (A) (A) (A) (A) (A) (A) (A) (A) (A) (A) (A) (A)
                 (A) (A) (A) (A) (A) (A) (A) (A) (A) (A) (A) (A)
                 (A) (A) (A) (A) (A) (A) (A) (A) (A) (A) (A) (A)
                 (A) (A) (A) (A) (A) (A) (A) (A) (A) (A) (A) (A)
                 (A) (A) (A) (A) (A) (A) (A) (A) (A) (A) (A) (A)
                 (A) (A) (A) (A) (A) (A) (A) (A) (A) (A) (A) (A)
                 (A) (A) (A) (A) (A) (A) (A) (A) (A) (A) (A) (A)
                 (A) (A) (A) (A) (A) (A) (A) (A) (A) (A) (A) (A)
                 (A) (A) (A) (A) (A) (A) (A) (A) (A) (A) (A) (A)
                 (A) (A) (A) (A) (A) (A) (A) (A) (A) (A) (A) (A)
                 (A) (A) (A) (A) (A) (A) (A) (A) (A) (A) (A) (A)
                 (A) (A) (A) (A) (A) (A) (A) (A) (A) (A) (A) (A)
                 (A) (A) (A) (A) (A) (A) (A) (A) (A) (A) (A) (A)
                 (A) (A) (A) (A) (A) (A) (A) (A) (A) (A) (A) (A)
                 (A) (A) (A) (A) (A) (A) (A) (A) (A) (A) (A) (A)
                 (A) (A) (A) (A) (A) (A) (A) (A) (A) (A) (A) (A)
                 (A) (A) (A) (A) (A) (A) (A) (A) (A) (A) (A) (A)
                 (A) (A) (A) (A) (A) (A) (A) (A) (A) (A) (A) (A)
                 (A) (A) (A) (A) (A) (A) (A) (A) (A) (A) (A) (A)
                 (A)
 The electronic state is 1-A.
 Alpha  occ. eigenvalues --  -19.15126 -19.15116 -19.11460 -14.37554 -14.32704
 Alpha  occ. eigenvalues --  -10.29202 -10.26640 -10.25437 -10.25418 -10.22336
 Alpha  occ. eigenvalues --  -10.21390 -10.20597 -10.20587 -10.19860 -10.19748
 Alpha  occ. eigenvalues --  -10.19723 -10.19295 -10.19189 -10.19066 -10.18881
 Alpha  occ. eigenvalues --  -10.18808 -10.18159 -10.18132 -10.18131 -10.18130
 Alpha  occ. eigenvalues --  -10.17762  -6.77940  -1.07464  -1.03675  -1.00275
 Alpha  occ. eigenvalues --   -0.96548  -0.90872  -0.86469  -0.85658  -0.79993
 Alpha  occ. eigenvalues --   -0.79358  -0.77021  -0.75116  -0.74734  -0.74364
 Alpha  occ. eigenvalues --   -0.70816  -0.68583  -0.66706  -0.64844  -0.63034
 Alpha  occ. eigenvalues --   -0.61462  -0.60875  -0.60677  -0.58696  -0.57103
 Alpha  occ. eigenvalues --   -0.56096  -0.54725  -0.53923  -0.51711  -0.49395
 Alpha  occ. eigenvalues --   -0.49296  -0.48128  -0.47434  -0.46323  -0.45713
 Alpha  occ. eigenvalues --   -0.45499  -0.44815  -0.44455  -0.44155  -0.43894
 Alpha  occ. eigenvalues --   -0.43470  -0.42530  -0.42140  -0.40706  -0.40654
 Alpha  occ. eigenvalues --   -0.40189  -0.40017  -0.39151  -0.38849  -0.37959
 Alpha  occ. eigenvalues --   -0.37845  -0.37731  -0.37040  -0.36801  -0.36354
 Alpha  occ. eigenvalues --   -0.35926  -0.35608  -0.34631  -0.33439  -0.33197
 Alpha  occ. eigenvalues --   -0.32745  -0.32639  -0.31064  -0.30127  -0.30033
 Alpha  occ. eigenvalues --   -0.27127  -0.26263  -0.25826  -0.25557  -0.25465
 Alpha  occ. eigenvalues --   -0.24479  -0.22837
 Alpha virt. eigenvalues --   -0.04956  -0.01766  -0.00584  -0.00425   0.04785
 Alpha virt. eigenvalues --    0.07300   0.08844   0.09385   0.09608   0.10036
 Alpha virt. eigenvalues --    0.11287   0.12373   0.12581   0.13175   0.13284
 Alpha virt. eigenvalues --    0.13376   0.13452   0.14007   0.14826   0.15198
 Alpha virt. eigenvalues --    0.15491   0.15682   0.15976   0.16165   0.17509
 Alpha virt. eigenvalues --    0.17648   0.17952   0.18143   0.18667   0.19075
 Alpha virt. eigenvalues --    0.19417   0.19564   0.20275   0.20902   0.21718
 Alpha virt. eigenvalues --    0.21842   0.22130   0.22233   0.22902   0.24081
 Alpha virt. eigenvalues --    0.24243   0.24587   0.25868   0.26698   0.26732
 Alpha virt. eigenvalues --    0.28722   0.28840   0.29705   0.30672   0.31360
 Alpha virt. eigenvalues --    0.32625   0.33373   0.33413   0.34367   0.35278
 Alpha virt. eigenvalues --    0.38213   0.39086   0.39699   0.43468   0.44019
 Alpha virt. eigenvalues --    0.45462   0.45843   0.46321   0.48190   0.49586
 Alpha virt. eigenvalues --    0.50051   0.51203   0.51742   0.52309   0.52584
 Alpha virt. eigenvalues --    0.53312   0.54057   0.54261   0.55327   0.55908
 Alpha virt. eigenvalues --    0.56028   0.56357   0.56804   0.57530   0.57881
 Alpha virt. eigenvalues --    0.57898   0.58159   0.58925   0.59082   0.59358
 Alpha virt. eigenvalues --    0.59541   0.60081   0.60522   0.60851   0.61522
 Alpha virt. eigenvalues --    0.62071   0.62741   0.63576   0.63804   0.64042
 Alpha virt. eigenvalues --    0.64457   0.65273   0.65744   0.66119   0.66888
 Alpha virt. eigenvalues --    0.67093   0.69136   0.70334   0.70563   0.70855
 Alpha virt. eigenvalues --    0.71775   0.72436   0.72971   0.73546   0.74522
 Alpha virt. eigenvalues --    0.75660   0.76015   0.76681   0.78337   0.79156
 Alpha virt. eigenvalues --    0.80264   0.80489   0.80690   0.81316   0.81989
 Alpha virt. eigenvalues --    0.82077   0.82593   0.82660   0.83086   0.83612
 Alpha virt. eigenvalues --    0.84600   0.85220   0.85261   0.85593   0.86628
 Alpha virt. eigenvalues --    0.87489   0.87636   0.87803   0.88287   0.88543
 Alpha virt. eigenvalues --    0.88791   0.89209   0.89352   0.91395   0.91753
 Alpha virt. eigenvalues --    0.92657   0.92918   0.93400   0.93563   0.93874
 Alpha virt. eigenvalues --    0.94308   0.95033   0.95285   0.96036   0.97966
 Alpha virt. eigenvalues --    0.98595   0.98969   0.99350   1.01633   1.02152
 Alpha virt. eigenvalues --    1.02451   1.03503   1.04112   1.05132   1.07527
 Alpha virt. eigenvalues --    1.09039   1.09465   1.10493   1.11173   1.13023
 Alpha virt. eigenvalues --    1.14308   1.15871   1.17052   1.17756   1.19292
 Alpha virt. eigenvalues --    1.20328   1.20514   1.21973   1.22904   1.23471
 Alpha virt. eigenvalues --    1.24955   1.25707   1.28291   1.28781   1.29511
 Alpha virt. eigenvalues --    1.30140   1.31467   1.32152   1.34476   1.34594
 Alpha virt. eigenvalues --    1.35201   1.35937   1.38172   1.38371   1.39879
 Alpha virt. eigenvalues --    1.40368   1.40473   1.40811   1.41983   1.42798
 Alpha virt. eigenvalues --    1.43622   1.44731   1.45379   1.46178   1.46905
 Alpha virt. eigenvalues --    1.48008   1.48253   1.48967   1.51929   1.52871
 Alpha virt. eigenvalues --    1.56279   1.56615   1.58414   1.58929   1.60645
 Alpha virt. eigenvalues --    1.60967   1.62468   1.65562   1.66784   1.69016
 Alpha virt. eigenvalues --    1.69184   1.70181   1.71017   1.72599   1.72990
 Alpha virt. eigenvalues --    1.73940   1.74244   1.75390   1.76678   1.76980
 Alpha virt. eigenvalues --    1.78417   1.78802   1.79472   1.80337   1.81593
 Alpha virt. eigenvalues --    1.82529   1.84036   1.84636   1.85342   1.85624
 Alpha virt. eigenvalues --    1.86424   1.87444   1.87998   1.89283   1.90028
 Alpha virt. eigenvalues --    1.91055   1.91318   1.92634   1.92822   1.93650
 Alpha virt. eigenvalues --    1.94738   1.95559   1.95866   1.96154   1.96961
 Alpha virt. eigenvalues --    1.97743   2.00969   2.01550   2.03032   2.03340
 Alpha virt. eigenvalues --    2.03630   2.03880   2.04820   2.05506   2.05914
 Alpha virt. eigenvalues --    2.06258   2.06697   2.07268   2.08164   2.09039
 Alpha virt. eigenvalues --    2.09119   2.09586   2.10621   2.10851   2.11333
 Alpha virt. eigenvalues --    2.11603   2.11969   2.13830   2.14452   2.14681
 Alpha virt. eigenvalues --    2.14967   2.15122   2.15483   2.17657   2.18670
 Alpha virt. eigenvalues --    2.19572   2.20673   2.21454   2.23192   2.23827
 Alpha virt. eigenvalues --    2.24418   2.24783   2.25321   2.25729   2.25906
 Alpha virt. eigenvalues --    2.28491   2.28584   2.29691   2.29861   2.30361
 Alpha virt. eigenvalues --    2.31040   2.32571   2.32832   2.33959   2.35719
 Alpha virt. eigenvalues --    2.36230   2.36415   2.37505   2.38063   2.39254
 Alpha virt. eigenvalues --    2.39506   2.40805   2.41258   2.42589   2.43054
 Alpha virt. eigenvalues --    2.44148   2.44855   2.45681   2.46214   2.46856
 Alpha virt. eigenvalues --    2.48239   2.48433   2.49843   2.50801   2.52194
 Alpha virt. eigenvalues --    2.52727   2.55102   2.55262   2.56721   2.57503
 Alpha virt. eigenvalues --    2.58311   2.58809   2.59740   2.60034   2.61667
 Alpha virt. eigenvalues --    2.62789   2.63007   2.63859   2.65286   2.66577
 Alpha virt. eigenvalues --    2.67116   2.67624   2.68242   2.69098   2.69682
 Alpha virt. eigenvalues --    2.70845   2.72623   2.73218   2.74638   2.74818
 Alpha virt. eigenvalues --    2.75153   2.75813   2.76675   2.78131   2.78402
 Alpha virt. eigenvalues --    2.79175   2.79790   2.81136   2.83549   2.84246
 Alpha virt. eigenvalues --    2.84347   2.85663   2.86216   2.86909   2.87863
 Alpha virt. eigenvalues --    2.88256   2.90419   2.90701   2.93260   2.94444
 Alpha virt. eigenvalues --    2.96084   2.97058   2.97841   2.99852   3.01215
 Alpha virt. eigenvalues --    3.02065   3.03417   3.06545   3.08835   3.11694
 Alpha virt. eigenvalues --    3.14206   3.18290   3.19333   3.20985   3.21577
 Alpha virt. eigenvalues --    3.22421   3.23856   3.24277   3.25164   3.26365
 Alpha virt. eigenvalues --    3.26986   3.30966   3.33819   3.35519   3.37071
 Alpha virt. eigenvalues --    3.38915   3.42551   3.42635   3.44666   3.44758
 Alpha virt. eigenvalues --    3.46333   3.47341   3.48404   3.48486   3.50292
 Alpha virt. eigenvalues --    3.51294   3.52046   3.57927   3.61246   3.71818
 Alpha virt. eigenvalues --    3.77804   3.83609   4.07661   4.10385   4.15204
 Alpha virt. eigenvalues --    4.15548   4.16273   4.18539   4.22331   4.27437
 Alpha virt. eigenvalues --    4.29479   4.31602   4.31932   4.36840   4.39863
 Alpha virt. eigenvalues --    4.43309   4.44185   4.48074   4.51012   4.53664
 Alpha virt. eigenvalues --    4.55314   4.56022   4.62434   4.65565   4.67979
 Alpha virt. eigenvalues --    4.79666   4.84145   4.85802
          Condensed to atoms (all electrons):
 Mulliken charges:
               1
     1  O   -0.516558
     2  C    0.559066
     3  N   -0.592021
     4  C    0.467344
     5  N   -0.528897
     6  C    0.100017
     7  C   -0.162599
     8  C    0.195393
     9  C   -0.153284
    10  C   -0.217082
    11  C   -0.216844
    12  C   -0.140459
    13  C    0.030173
    14  C   -0.126188
    15  C   -0.137855
    16  C    0.026164
    17  B    0.482076
    18  O   -0.472256
    19  C    0.246702
    20  C   -0.325913
    21  C   -0.319214
    22  C    0.246632
    23  C   -0.319376
    24  C   -0.325895
    25  O   -0.473432
    26  C   -0.137053
    27  C   -0.091241
    28  H    0.274366
    29  H    0.100062
    30  H    0.082012
    31  H    0.105812
    32  H    0.117024
    33  H    0.118529
    34  H    0.118672
    35  H    0.117189
    36  H    0.128938
    37  H    0.091712
    38  H    0.101792
    39  H    0.115815
    40  H    0.101850
    41  H    0.114322
    42  H    0.102147
    43  H    0.113671
    44  H    0.118086
    45  H    0.102289
    46  H    0.114556
    47  H    0.117554
    48  H    0.102105
    49  H    0.113844
    50  H    0.115327
    51  H    0.103347
    52  H    0.111581
 Sum of Mulliken charges =  -0.00000
 Mulliken charges with hydrogens summed into heavy atoms:
               1
     1  O   -0.516558
     2  C    0.559066
     3  N   -0.317655
     4  C    0.467344
     5  N   -0.528897
     6  C    0.200079
     7  C   -0.080586
     8  C    0.195393
     9  C   -0.047473
    10  C    0.018471
    11  C    0.019017
    12  C   -0.011521
    13  C    0.030173
    14  C   -0.034476
    15  C   -0.036063
    16  C    0.026164
    17  B    0.482076
    18  O   -0.472256
    19  C    0.246702
    20  C    0.006074
    21  C    0.014689
    22  C    0.246632
    23  C    0.015022
    24  C    0.005382
    25  O   -0.473432
    26  C   -0.033706
    27  C    0.020340
 Electronic spatial extent (au):  <R**2>=          21354.7559
 Charge=             -0.0000 electrons
 Dipole moment (field-independent basis, Debye):
    X=              1.6834    Y=              1.3300    Z=             -0.1751  Tot=              2.1525
 Quadrupole moment (field-independent basis, Debye-Ang):
   XX=           -109.4255   YY=           -158.1144   ZZ=           -157.6673
   XY=             -0.4381   XZ=             -0.6870   YZ=              1.5960
 Traceless Quadrupole moment (field-independent basis, Debye-Ang):
   XX=             32.3103   YY=            -16.3787   ZZ=            -15.9315
   XY=             -0.4381   XZ=             -0.6870   YZ=              1.5960
 Octapole moment (field-independent basis, Debye-Ang**2):
  XXX=              0.8607  YYY=             -0.5032  ZZZ=              1.8977  XYY=             -1.5096
  XXY=              0.0246  XXZ=              4.1737  XZZ=             22.9233  YZZ=             -2.0852
  YYZ=             -2.9647  XYZ=              7.7415
 Hexadecapole moment (field-independent basis, Debye-Ang**3):
 XXXX=         -23468.8431 YYYY=          -1490.0967 ZZZZ=           -715.4301 XXXY=            114.6277
 XXXZ=            -33.8990 YYYX=             -7.4341 YYYZ=             10.4878 ZZZX=            -13.9780
 ZZZY=              3.5478 XXYY=          -4536.9806 XXZZ=          -4520.1204 YYZZ=           -367.3280
 XXYZ=            -47.9703 YYXZ=              8.2750 ZZXY=             15.4721
 N-N= 2.217726414369D+03 E-N=-7.167562957240D+03  KE= 1.164432570533D+03
 Calling FoFJK, ICntrl=      2127 FMM=F ISym2X=0 I1Cent= 0 IOpClX= 0 NMat=1 NMatS=1 NMatT=0.
 ***** Axes restored to original set *****
 -------------------------------------------------------------------
 Center     Atomic                   Forces (Hartrees/Bohr)
 Number     Number              X              Y              Z
 -------------------------------------------------------------------
      1        8           0.001651193    0.001228361    0.004623410
      2        6          -0.005132203   -0.008614752   -0.035280164
      3        7           0.004098411    0.004630539    0.015953745
      4        6           0.012764218    0.003599411    0.019259079
      5        7           0.006356669    0.000808830   -0.000596509
      6        6          -0.008787000   -0.002956495   -0.024380420
      7        6          -0.006283302   -0.000966965    0.002082653
      8        6           0.015819592    0.002183807   -0.006075147
      9        6          -0.018360444   -0.002999523   -0.001433432
     10        6           0.002963289   -0.000542145    0.002483764
     11        6           0.002518085    0.001710498    0.002419995
     12        6           0.002361812    0.000318209   -0.002230897
     13        6          -0.000157423    0.003135606    0.006768828
     14        6          -0.002827192   -0.003782678   -0.002419414
     15        6           0.006365683    0.001187516    0.000717224
     16        6          -0.027643596   -0.003825647   -0.005303493
     17        5           0.009638156    0.001438198    0.002195174
     18        8           0.029205856    0.005393293    0.001098802
     19        6          -0.014903284   -0.008801279   -0.016799507
     20        6          -0.002356794    0.002245866    0.005506942
     21        6          -0.008702197    0.007037235    0.002858082
     22        6          -0.022159908    0.003365123    0.009027676
     23        6          -0.004520633   -0.009129179   -0.005707319
     24        6           0.000741634   -0.002521689   -0.005951530
     25        8           0.027415247    0.003088684    0.010716819
     26        6           0.008062104    0.002096859    0.002975370
     27        6           0.000756174   -0.000679487   -0.002918147
     28        1          -0.001537663   -0.000477970    0.009915298
     29        1          -0.001838160    0.000042610    0.003892140
     30        1           0.002864000    0.000617124    0.002990931
     31        1          -0.000488661    0.000187210    0.003801617
     32        1          -0.001024116   -0.005160362   -0.000483075
     33        1          -0.001685936   -0.004392498    0.000485572
     34        1          -0.002968720    0.003672554   -0.000076564
     35        1          -0.002562237    0.004508961   -0.001119020
     36        1          -0.004723225   -0.001460484   -0.002853852
     37        1           0.003165764    0.002511967    0.002197605
     38        1          -0.002313709    0.001318170    0.001384331
     39        1           0.001436790    0.002763961    0.002332206
     40        1          -0.003595367   -0.000708127    0.001078917
     41        1           0.001889146   -0.002920244    0.002518850
     42        1          -0.003476754   -0.000381871    0.000498850
     43        1           0.001026184    0.003009400    0.001875445
     44        1           0.001910748    0.003227588   -0.004656047
     45        1          -0.002992828   -0.000533088   -0.001824616
     46        1           0.002456843   -0.002480713   -0.001105900
     47        1           0.000731030   -0.002788571    0.005252985
     48        1          -0.002939985   -0.000250696   -0.002408821
     49        1           0.001830479    0.003517303   -0.001674449
     50        1           0.002933393   -0.002124450   -0.001395322
     51        1          -0.001325430   -0.001845089   -0.001877586
     52        1           0.004344264    0.001499119    0.001658920
 -------------------------------------------------------------------
 Cartesian Forces:  Max     0.035280164 RMS     0.007435434

 GradGradGradGradGradGradGradGradGradGradGradGradGradGradGradGradGradGrad
 Berny optimization.
 FormGI is forming the generalized inverse of G from B-inverse, IUseBI=4.
 Internal  Forces:  Max     0.025724380 RMS     0.004573142
 Search for a local minimum.
 Step number   1 out of a maximum of  294
 All quantities printed in internal units (Hartrees-Bohrs-Radians)
 Mixed Optimization -- RFO/linear search
 Second derivative matrix not updated -- first step.
 ITU=  0
     Eigenvalues ---    0.00230   0.00230   0.00230   0.00230   0.00230
     Eigenvalues ---    0.00438   0.00585   0.00822   0.01310   0.01424
     Eigenvalues ---    0.01519   0.01547   0.01629   0.01722   0.01861
     Eigenvalues ---    0.01973   0.02060   0.02069   0.02070   0.02089
     Eigenvalues ---    0.02098   0.02128   0.02128   0.02130   0.02151
     Eigenvalues ---    0.02155   0.02167   0.02172   0.02193   0.02233
     Eigenvalues ---    0.02252   0.02343   0.02406   0.02988   0.02989
     Eigenvalues ---    0.03432   0.03484   0.03722   0.03809   0.05300
     Eigenvalues ---    0.05301   0.05310   0.05312   0.05362   0.05364
     Eigenvalues ---    0.05382   0.05383   0.05758   0.06308   0.07709
     Eigenvalues ---    0.09996   0.10275   0.10896   0.11661   0.12781
     Eigenvalues ---    0.14683   0.15627   0.15997   0.15997   0.16000
     Eigenvalues ---    0.16000   0.16000   0.16000   0.16000   0.16000
     Eigenvalues ---    0.16000   0.16000   0.16000   0.16000   0.16000
     Eigenvalues ---    0.16000   0.16000   0.16000   0.16000   0.16000
     Eigenvalues ---    0.16000   0.16000   0.16000   0.17374   0.17862
     Eigenvalues ---    0.21364   0.21999   0.22001   0.22315   0.22969
     Eigenvalues ---    0.23492   0.23999   0.24554   0.24989   0.24996
     Eigenvalues ---    0.25000   0.25000   0.25000   0.25000   0.25000
     Eigenvalues ---    0.25009   0.25047   0.26303   0.27201   0.27711
     Eigenvalues ---    0.27726   0.28337   0.28337   0.29910   0.30907
     Eigenvalues ---    0.30982   0.34541   0.34692   0.34699   0.34717
     Eigenvalues ---    0.34721   0.34722   0.34726   0.34732   0.34742
     Eigenvalues ---    0.34745   0.34757   0.34799   0.34800   0.34847
     Eigenvalues ---    0.34847   0.34852   0.34854   0.35681   0.35856
     Eigenvalues ---    0.35858   0.35877   0.35919   0.36093   0.36228
     Eigenvalues ---    0.39788   0.40951   0.41763   0.41818   0.42054
     Eigenvalues ---    0.43645   0.45027   0.45392   0.45471   0.45860
     Eigenvalues ---    0.45997   0.46158   0.46484   0.46892   0.47241
     Eigenvalues ---    0.48783   0.51925   0.53047   0.55874   0.90874
 RFO step:  Lambda=-2.12872850D-02 EMin= 2.30000000D-03
 Linear search not attempted -- first point.
 Iteration  1 RMS(Cart)=  0.09913705 RMS(Int)=  0.00132627
 Iteration  2 RMS(Cart)=  0.00372392 RMS(Int)=  0.00027090
 Iteration  3 RMS(Cart)=  0.00000307 RMS(Int)=  0.00027090
 Iteration  4 RMS(Cart)=  0.00000000 RMS(Int)=  0.00027090
 Variable       Old X    -DE/DX   Delta X   Delta X   Delta X     New X
                                 (Linear)    (Quad)   (Total)
    R1        2.32533  -0.00241   0.00000  -0.00259  -0.00259   2.32274
    R2        2.54364   0.02348   0.00000   0.04049   0.04049   2.58412
    R3        2.86047  -0.00565   0.00000  -0.01708  -0.01708   2.84339
    R4        2.64135  -0.00366   0.00000  -0.00760  -0.00760   2.63375
    R5        1.89456   0.00756   0.00000   0.01532   0.01532   1.90988
    R6        2.56300  -0.01582   0.00000  -0.02958  -0.02954   2.53346
    R7        2.65293  -0.00612   0.00000  -0.01287  -0.01283   2.64010
    R8        2.56294  -0.01925   0.00000  -0.03587  -0.03587   2.52706
    R9        2.63553  -0.00400   0.00000  -0.00844  -0.00849   2.62704
   R10        2.04209   0.00405   0.00000   0.01065   0.01065   2.05275
   R11        2.64416   0.00021   0.00000   0.00191   0.00187   2.64604
   R12        2.03937   0.00410   0.00000   0.01073   0.01073   2.05009
   R13        2.88144  -0.02209   0.00000  -0.06895  -0.06895   2.81249
   R14        2.64316  -0.00604   0.00000  -0.01097  -0.01096   2.63220
   R15        2.86158  -0.00183   0.00000  -0.00226  -0.00216   2.85942
   R16        2.86154  -0.00184   0.00000  -0.00231  -0.00221   2.85933
   R17        2.06427  -0.00374   0.00000  -0.01021  -0.01021   2.05406
   R18        2.86257  -0.00740   0.00000  -0.02898  -0.02918   2.83339
   R19        2.06130  -0.00298   0.00000  -0.00807  -0.00807   2.05323
   R20        2.06178  -0.00350   0.00000  -0.00950  -0.00950   2.05228
   R21        2.06166  -0.00346   0.00000  -0.00941  -0.00941   2.05226
   R22        2.06136  -0.00300   0.00000  -0.00814  -0.00814   2.05323
   R23        2.03726   0.00265   0.00000   0.00690   0.00690   2.04416
   R24        2.65588  -0.00163   0.00000  -0.00413  -0.00413   2.65175
   R25        2.64829  -0.00368   0.00000  -0.00844  -0.00844   2.63985
   R26        2.63191   0.00059   0.00000   0.00127   0.00127   2.63318
   R27        2.04274   0.00391   0.00000   0.01030   0.01030   2.05304
   R28        2.63750   0.00550   0.00000   0.01202   0.01203   2.64953
   R29        2.04307   0.00297   0.00000   0.00782   0.00782   2.05090
   R30        2.99186  -0.01613   0.00000  -0.05943  -0.05943   2.93243
   R31        2.63713   0.00698   0.00000   0.01502   0.01502   2.65215
   R32        2.60150  -0.00143   0.00000  -0.00467  -0.00424   2.59726
   R33        2.60204  -0.00131   0.00000  -0.00444  -0.00401   2.59804
   R34        2.67554   0.02572   0.00000   0.05870   0.05864   2.73418
   R35        2.91407  -0.00929   0.00000  -0.03050  -0.03050   2.88357
   R36        2.92742  -0.01027   0.00000  -0.03441  -0.03441   2.89301
   R37        2.97170  -0.00568   0.00000  -0.01948  -0.02013   2.95157
   R38        2.06003   0.00125   0.00000   0.00339   0.00339   2.06342
   R39        2.05924   0.00369   0.00000   0.00998   0.00998   2.06923
   R40        2.06090   0.00162   0.00000   0.00440   0.00440   2.06530
   R41        2.05916   0.00350   0.00000   0.00947   0.00947   2.06864
   R42        2.06123   0.00213   0.00000   0.00578   0.00578   2.06701
   R43        2.06113   0.00091   0.00000   0.00246   0.00246   2.06358
   R44        2.92774  -0.01033   0.00000  -0.03462  -0.03462   2.89312
   R45        2.91408  -0.00928   0.00000  -0.03046  -0.03046   2.88362
   R46        2.67563   0.02569   0.00000   0.05868   0.05862   2.73424
   R47        2.05913   0.00352   0.00000   0.00952   0.00952   2.06864
   R48        2.06129   0.00210   0.00000   0.00571   0.00571   2.06700
   R49        2.06095   0.00097   0.00000   0.00263   0.00263   2.06358
   R50        2.05925   0.00369   0.00000   0.00998   0.00998   2.06922
   R51        2.06071   0.00170   0.00000   0.00461   0.00461   2.06531
   R52        2.06000   0.00127   0.00000   0.00343   0.00343   2.06343
   R53        2.63089   0.00019   0.00000   0.00034   0.00034   2.63123
   R54        2.04304   0.00286   0.00000   0.00752   0.00752   2.05055
   R55        2.04584   0.00137   0.00000   0.00362   0.00362   2.04946
    A1        2.17930  -0.00519   0.00000  -0.01889  -0.01899   2.16031
    A2        2.09634   0.00509   0.00000   0.01899   0.01889   2.11523
    A3        2.00702   0.00013   0.00000   0.00069   0.00059   2.00761
    A4        2.27892  -0.00980   0.00000  -0.04066  -0.04068   2.23824
    A5        2.01607   0.01107   0.00000   0.05430   0.05428   2.07036
    A6        1.98782  -0.00128   0.00000  -0.01387  -0.01388   1.97393
    A7        1.97182  -0.00172   0.00000  -0.00535  -0.00539   1.96643
    A8        2.18339  -0.00951   0.00000  -0.03410  -0.03414   2.14925
    A9        2.12795   0.01123   0.00000   0.03947   0.03955   2.16749
   A10        2.06775  -0.00623   0.00000  -0.03061  -0.03056   2.03719
   A11        2.14261   0.00591   0.00000   0.02143   0.02138   2.16399
   A12        2.03074  -0.00443   0.00000  -0.01886  -0.01884   2.01191
   A13        2.10984  -0.00148   0.00000  -0.00257  -0.00254   2.10729
   A14        2.07419  -0.00189   0.00000  -0.00466  -0.00475   2.06944
   A15        2.09940   0.00008   0.00000  -0.00242  -0.00238   2.09702
   A16        2.10959   0.00180   0.00000   0.00708   0.00713   2.11672
   A17        2.12136   0.00382   0.00000   0.01104   0.01106   2.13243
   A18        2.07292  -0.00345   0.00000  -0.00663  -0.00666   2.06626
   A19        2.08891  -0.00037   0.00000  -0.00442  -0.00440   2.08450
   A20        2.13957  -0.00200   0.00000  -0.01617  -0.01637   2.12320
   A21        2.13963  -0.00203   0.00000  -0.01643  -0.01662   2.12301
   A22        1.96309   0.00049   0.00000   0.00970   0.00982   1.97291
   A23        2.00515   0.00240   0.00000   0.01221   0.01223   2.01738
   A24        2.00463   0.00242   0.00000   0.01240   0.01241   2.01705
   A25        2.07208  -0.00153   0.00000  -0.00920  -0.00923   2.06284
   A26        2.06194  -0.00127   0.00000  -0.00726  -0.00725   2.05468
   A27        2.09043  -0.00313   0.00000  -0.02009  -0.02006   2.07037
   A28        2.08405  -0.00009   0.00000  -0.00470  -0.00478   2.07927
   A29        1.95231   0.00325   0.00000   0.02330   0.02331   1.97562
   A30        2.06189  -0.00129   0.00000  -0.00732  -0.00732   2.05457
   A31        2.07195  -0.00152   0.00000  -0.00910  -0.00913   2.06282
   A32        2.08430  -0.00013   0.00000  -0.00487  -0.00494   2.07936
   A33        2.09065  -0.00311   0.00000  -0.02013  -0.02010   2.07055
   A34        1.95210   0.00326   0.00000   0.02340   0.02341   1.97551
   A35        2.08095  -0.00558   0.00000  -0.01899  -0.01895   2.06200
   A36        2.12350  -0.00233   0.00000  -0.01877  -0.01880   2.10470
   A37        2.07874   0.00792   0.00000   0.03777   0.03775   2.11649
   A38        2.12418   0.00511   0.00000   0.02005   0.02003   2.14422
   A39        2.08503  -0.00831   0.00000  -0.02943  -0.02944   2.05560
   A40        2.07384   0.00319   0.00000   0.00922   0.00920   2.08304
   A41        2.10068  -0.00013   0.00000  -0.00187  -0.00189   2.09879
   A42        2.12118  -0.00230   0.00000  -0.01222  -0.01224   2.10894
   A43        2.06115   0.00243   0.00000   0.01386   0.01383   2.07498
   A44        2.10201   0.00063   0.00000   0.00402   0.00404   2.10604
   A45        2.09211   0.00002   0.00000  -0.00015  -0.00015   2.09195
   A46        2.08905  -0.00065   0.00000  -0.00388  -0.00388   2.08516
   A47        2.09897   0.00195   0.00000   0.00604   0.00603   2.10500
   A48        2.08480  -0.00449   0.00000  -0.01424  -0.01424   2.07057
   A49        2.09940   0.00254   0.00000   0.00820   0.00819   2.10759
   A50        2.16893  -0.00226   0.00000  -0.00662  -0.00661   2.16232
   A51        2.16826  -0.00216   0.00000  -0.00624  -0.00624   2.16203
   A52        1.94599   0.00441   0.00000   0.01286   0.01285   1.95884
   A53        1.87282  -0.00116   0.00000   0.00088   0.00032   1.87314
   A54        1.86749   0.00253   0.00000   0.03442   0.03434   1.90183
   A55        1.84298   0.00171   0.00000   0.03178   0.03214   1.87512
   A56        1.77310  -0.00036   0.00000   0.00772   0.00773   1.78083
   A57        1.92793   0.00095   0.00000  -0.00207  -0.00399   1.92394
   A58        2.01234   0.00021   0.00000  -0.00896  -0.00968   2.00266
   A59        2.01811  -0.00433   0.00000  -0.04868  -0.04905   1.96906
   A60        1.95662  -0.00384   0.00000  -0.02033  -0.02045   1.93617
   A61        1.93843   0.00046   0.00000   0.00249   0.00248   1.94091
   A62        1.94273  -0.00450   0.00000  -0.02562  -0.02577   1.91696
   A63        1.88153   0.00206   0.00000   0.01284   0.01286   1.89438
   A64        1.85951   0.00446   0.00000   0.02466   0.02440   1.88391
   A65        1.88116   0.00189   0.00000   0.00883   0.00880   1.88997
   A66        1.94259   0.00157   0.00000   0.01081   0.01088   1.95347
   A67        1.95168  -0.00265   0.00000  -0.01461  -0.01485   1.93683
   A68        1.94458  -0.00777   0.00000  -0.04506  -0.04530   1.89929
   A69        1.87960   0.00123   0.00000   0.01078   0.01084   1.89044
   A70        1.87480   0.00330   0.00000   0.01823   0.01830   1.89310
   A71        1.86660   0.00493   0.00000   0.02314   0.02259   1.88920
   A72        2.01795  -0.00433   0.00000  -0.04866  -0.04901   1.96894
   A73        2.01222   0.00024   0.00000  -0.00876  -0.00947   2.00275
   A74        1.77303  -0.00036   0.00000   0.00771   0.00770   1.78073
   A75        1.92783   0.00094   0.00000  -0.00209  -0.00400   1.92383
   A76        1.84316   0.00171   0.00000   0.03168   0.03205   1.87521
   A77        1.86784   0.00252   0.00000   0.03424   0.03416   1.90199
   A78        1.94248   0.00159   0.00000   0.01099   0.01106   1.95354
   A79        1.95156  -0.00263   0.00000  -0.01448  -0.01472   1.93684
   A80        1.94489  -0.00779   0.00000  -0.04526  -0.04550   1.89939
   A81        1.87915   0.00124   0.00000   0.01101   0.01106   1.89021
   A82        1.87498   0.00329   0.00000   0.01803   0.01811   1.89309
   A83        1.86681   0.00492   0.00000   0.02300   0.02245   1.88926
   A84        1.93788   0.00051   0.00000   0.00283   0.00283   1.94071
   A85        1.94283  -0.00449   0.00000  -0.02557  -0.02572   1.91711
   A86        1.95661  -0.00383   0.00000  -0.02035  -0.02047   1.93614
   A87        1.88115   0.00186   0.00000   0.00875   0.00873   1.88988
   A88        1.88149   0.00203   0.00000   0.01272   0.01275   1.89424
   A89        1.86004   0.00444   0.00000   0.02445   0.02419   1.88422
   A90        1.87211  -0.00116   0.00000   0.00108   0.00051   1.87262
   A91        2.10046   0.00194   0.00000   0.00915   0.00914   2.10960
   A92        2.09338  -0.00157   0.00000  -0.00789  -0.00788   2.08549
   A93        2.08934  -0.00037   0.00000  -0.00126  -0.00126   2.08808
   A94        2.10444  -0.00114   0.00000  -0.00633  -0.00635   2.09809
   A95        2.10098  -0.00422   0.00000  -0.02325  -0.02325   2.07773
   A96        2.07777   0.00536   0.00000   0.02959   0.02960   2.10736
    D1        0.05512  -0.00062   0.00000  -0.01446  -0.01440   0.04072
    D2       -3.05492  -0.00011   0.00000  -0.00451  -0.00426  -3.05919
    D3       -3.12148   0.00047   0.00000   0.01237   0.01212  -3.10935
    D4        0.05166   0.00097   0.00000   0.02232   0.02226   0.07392
    D5       -2.65255   0.00026   0.00000   0.00538   0.00551  -2.64703
    D6        0.47189  -0.00012   0.00000  -0.00555  -0.00537   0.46653
    D7        0.52225  -0.00055   0.00000  -0.01926  -0.01945   0.50280
    D8       -2.63650  -0.00093   0.00000  -0.03020  -0.03033  -2.66682
    D9       -3.09602  -0.00019   0.00000  -0.00511  -0.00523  -3.10126
   D10        0.05277  -0.00034   0.00000  -0.00803  -0.00810   0.04467
   D11        0.01443  -0.00050   0.00000  -0.01394  -0.01387   0.00056
   D12       -3.11997  -0.00066   0.00000  -0.01686  -0.01674  -3.13671
   D13       -3.13912   0.00005   0.00000   0.00043   0.00040  -3.13872
   D14       -0.00446   0.00010   0.00000   0.00291   0.00295  -0.00151
   D15        3.13789   0.00002   0.00000   0.00060   0.00057   3.13846
   D16       -0.00155  -0.00018   0.00000  -0.00427  -0.00422  -0.00577
   D17        0.00410  -0.00008   0.00000  -0.00235  -0.00240   0.00170
   D18       -3.13534  -0.00029   0.00000  -0.00723  -0.00720   3.14065
   D19        0.00215  -0.00008   0.00000  -0.00184  -0.00184   0.00031
   D20       -3.13920  -0.00010   0.00000  -0.00213  -0.00211  -3.14131
   D21        0.00050   0.00000   0.00000   0.00012   0.00013   0.00063
   D22       -3.14151   0.00003   0.00000   0.00070   0.00071  -3.14080
   D23       -3.14135   0.00002   0.00000   0.00041   0.00042  -3.14094
   D24       -0.00018   0.00004   0.00000   0.00099   0.00100   0.00082
   D25        3.14041   0.00005   0.00000   0.00113   0.00114   3.14155
   D26       -0.00087   0.00002   0.00000   0.00044   0.00045  -0.00042
   D27       -0.00076   0.00002   0.00000   0.00055   0.00055  -0.00021
   D28        3.14114  -0.00000   0.00000  -0.00014  -0.00013   3.14101
   D29       -0.63640   0.00237   0.00000   0.01426   0.01411  -0.62229
   D30        0.63477  -0.00240   0.00000  -0.01487  -0.01472   0.62005
   D31        3.14032  -0.00001   0.00000  -0.00032  -0.00032   3.14000
   D32        2.50488   0.00240   0.00000   0.01496   0.01481   2.51968
   D33       -2.50713  -0.00237   0.00000  -0.01418  -0.01402  -2.52116
   D34       -0.00158   0.00001   0.00000   0.00037   0.00037  -0.00121
   D35       -0.00132   0.00004   0.00000   0.00071   0.00067  -0.00065
   D36        3.13817   0.00023   0.00000   0.00539   0.00543  -3.13958
   D37        3.14058   0.00001   0.00000   0.00003   0.00000   3.14058
   D38       -0.00312   0.00020   0.00000   0.00471   0.00476   0.00164
   D39        0.03414  -0.00008   0.00000  -0.00088  -0.00081   0.03333
   D40       -2.42267  -0.00199   0.00000  -0.02009  -0.01999  -2.44266
   D41        2.52681   0.00169   0.00000   0.01288   0.01283   2.53964
   D42        0.07000  -0.00022   0.00000  -0.00633  -0.00635   0.06365
   D43        2.42244   0.00197   0.00000   0.01985   0.01975   2.44219
   D44       -0.03371   0.00005   0.00000   0.00039   0.00032  -0.03339
   D45       -0.06947   0.00022   0.00000   0.00619   0.00621  -0.06326
   D46       -2.52562  -0.00171   0.00000  -0.01326  -0.01321  -2.53883
   D47       -2.52339  -0.00115   0.00000  -0.00527  -0.00525  -2.52864
   D48        0.00024  -0.00001   0.00000  -0.00016  -0.00016   0.00008
   D49       -0.00015   0.00000   0.00000   0.00000   0.00000  -0.00015
   D50        2.52347   0.00115   0.00000   0.00512   0.00509   2.52856
   D51        3.14053  -0.00050   0.00000  -0.01133  -0.01145   3.12908
   D52        0.01905   0.00007   0.00000   0.00228   0.00208   0.02113
   D53        0.01599  -0.00001   0.00000  -0.00009  -0.00005   0.01594
   D54       -3.10550   0.00057   0.00000   0.01351   0.01349  -3.09201
   D55        3.14155   0.00007   0.00000   0.00343   0.00329  -3.13834
   D56        0.00007   0.00016   0.00000   0.00548   0.00534   0.00541
   D57       -0.01670  -0.00028   0.00000  -0.00706  -0.00707  -0.02377
   D58        3.12500  -0.00019   0.00000  -0.00501  -0.00502   3.11998
   D59       -0.00503   0.00030   0.00000   0.00659   0.00659   0.00156
   D60       -3.13920   0.00032   0.00000   0.00693   0.00696  -3.13224
   D61        3.11714  -0.00031   0.00000  -0.00685  -0.00698   3.11016
   D62       -0.01704  -0.00029   0.00000  -0.00651  -0.00660  -0.02364
   D63        3.14155  -0.00017   0.00000  -0.00388  -0.00389   3.13766
   D64       -0.00547  -0.00022   0.00000  -0.00566  -0.00566  -0.01113
   D65       -0.00745  -0.00019   0.00000  -0.00421  -0.00424  -0.01169
   D66        3.12872  -0.00023   0.00000  -0.00599  -0.00602   3.12270
   D67        3.13847  -0.00030   0.00000  -0.01219  -0.01220   3.12627
   D68       -0.00338  -0.00029   0.00000  -0.01170  -0.01171  -0.01509
   D69        0.00235  -0.00023   0.00000  -0.01033  -0.01032  -0.00797
   D70       -3.13950  -0.00022   0.00000  -0.00984  -0.00983   3.13386
   D71        0.00479  -0.00008   0.00000  -0.00153  -0.00153   0.00325
   D72       -3.13330  -0.00009   0.00000  -0.00140  -0.00143  -3.13474
   D73        3.14095  -0.00013   0.00000  -0.00332  -0.00332   3.13764
   D74        0.00286  -0.00014   0.00000  -0.00319  -0.00322  -0.00035
   D75        2.94564   0.00191   0.00000   0.01825   0.01812   2.96376
   D76       -0.19573   0.00190   0.00000   0.01782   0.01768  -0.17805
   D77        2.94083   0.00195   0.00000   0.01904   0.01891   2.95975
   D78       -0.20098   0.00197   0.00000   0.01948   0.01935  -0.18163
   D79        2.57668   0.00057   0.00000  -0.02467  -0.02528   2.55140
   D80       -1.65223   0.00372   0.00000   0.00496   0.00478  -1.64745
   D81        0.46036  -0.00057   0.00000  -0.03293  -0.03341   0.42695
   D82       -0.94663   0.00087   0.00000   0.00664   0.00685  -0.93978
   D83       -3.05270   0.00056   0.00000   0.00246   0.00276  -3.04994
   D84        1.13432   0.00088   0.00000   0.00680   0.00714   1.14146
   D85       -2.94440  -0.00303   0.00000  -0.04874  -0.04909  -2.99349
   D86        1.23271  -0.00334   0.00000  -0.05292  -0.05319   1.17953
   D87       -0.86345  -0.00301   0.00000  -0.04859  -0.04880  -0.91225
   D88        1.01061   0.00215   0.00000   0.03325   0.03317   1.04378
   D89       -1.09546   0.00184   0.00000   0.02907   0.02907  -1.06639
   D90        3.09156   0.00217   0.00000   0.03341   0.03346   3.12502
   D91       -3.10000  -0.00151   0.00000  -0.00678  -0.00725  -3.10725
   D92        1.08006  -0.00235   0.00000  -0.01802  -0.01833   1.06173
   D93       -1.00784  -0.00151   0.00000  -0.00675  -0.00740  -1.01524
   D94       -1.08680   0.00285   0.00000   0.04990   0.04968  -1.03712
   D95        3.09327   0.00202   0.00000   0.03867   0.03860   3.13187
   D96        1.00536   0.00286   0.00000   0.04993   0.04953   1.05489
   D97        1.23846  -0.00004   0.00000  -0.01223  -0.01151   1.22695
   D98       -0.86466  -0.00088   0.00000  -0.02347  -0.02259  -0.88725
   D99       -2.95256  -0.00004   0.00000  -0.01220  -0.01166  -2.96423
   D100       1.42203   0.00366   0.00000   0.06895   0.06851   1.49054
   D101      -2.57577   0.00084   0.00000   0.00593   0.00610  -2.56967
   D102      -0.56343   0.00373   0.00000   0.04765   0.04742  -0.51600
   D103      -0.58999   0.00076   0.00000   0.02709   0.02705  -0.56294
   D104       1.69539  -0.00206   0.00000  -0.03593  -0.03536   1.66003
   D105      -2.57545   0.00083   0.00000   0.00579   0.00596  -2.56949
   D106      -2.87581   0.00360   0.00000   0.09036   0.08971  -2.78610
   D107      -0.59043   0.00077   0.00000   0.02734   0.02730  -0.56313
   D108       1.42192   0.00367   0.00000   0.06906   0.06862   1.49054
   D109       1.23792  -0.00001   0.00000  -0.01174  -0.01102   1.22690
   D110      -0.86446  -0.00088   0.00000  -0.02347  -0.02260  -0.88706
   D111      -2.95275  -0.00002   0.00000  -0.01197  -0.01143  -2.96418
   D112      -1.08692   0.00286   0.00000   0.05005   0.04982  -1.03709
   D113       3.09389   0.00198   0.00000   0.03831   0.03824   3.13213
   D114       1.00560   0.00284   0.00000   0.04981   0.04941   1.05501
   D115      -3.10059  -0.00149   0.00000  -0.00636  -0.00683  -3.10742
   D116       1.08022  -0.00236   0.00000  -0.01810  -0.01841   1.06180
   D117      -1.00807  -0.00151   0.00000  -0.00660  -0.00725  -1.01532
   D118      -1.09527   0.00184   0.00000   0.02897   0.02898  -1.06630
   D119       3.09206   0.00215   0.00000   0.03313   0.03318   3.12524
   D120       1.01037   0.00216   0.00000   0.03324   0.03316   1.04353
   D121       1.23246  -0.00333   0.00000  -0.05278  -0.05304   1.17943
   D122      -0.86339  -0.00302   0.00000  -0.04862  -0.04883  -0.91222
   D123      -2.94508  -0.00301   0.00000  -0.04850  -0.04886  -2.99393
   D124      -3.05259   0.00056   0.00000   0.00239   0.00269  -3.04990
   D125       1.13474   0.00087   0.00000   0.00655   0.00690   1.14164
[...]
 Alpha virt. eigenvalues --    0.27621   0.28058   0.28390   0.28882   0.29342
 Alpha virt. eigenvalues --    0.29641   0.30170   0.30503   0.30767   0.31082
 Alpha virt. eigenvalues --    0.32340   0.32432   0.32723   0.33179   0.33693
 Alpha virt. eigenvalues --    0.33764   0.34092   0.34544   0.34892   0.35352
 Alpha virt. eigenvalues --    0.35548   0.35856   0.36036   0.36508   0.36898
 Alpha virt. eigenvalues --    0.37678   0.37814   0.38031   0.38143   0.39146
 Alpha virt. eigenvalues --    0.39341   0.39752   0.40106   0.40199   0.40449
 Alpha virt. eigenvalues --    0.40880   0.41045   0.41692   0.41999   0.42686
 Alpha virt. eigenvalues --    0.42993   0.43203   0.43402   0.43439   0.43698
 Alpha virt. eigenvalues --    0.43896   0.44169   0.44228   0.45069   0.45270
 Alpha virt. eigenvalues --    0.45382   0.45584   0.45706   0.45948   0.46294
 Alpha virt. eigenvalues --    0.46979   0.47257   0.47764   0.48068   0.48289
 Alpha virt. eigenvalues --    0.48690   0.48833   0.48989   0.49687   0.50083
 Alpha virt. eigenvalues --    0.50398   0.50769   0.50838   0.50887   0.51141
 Alpha virt. eigenvalues --    0.51300   0.51528   0.52119   0.52298   0.52612
 Alpha virt. eigenvalues --    0.53160   0.53471   0.53618   0.54276   0.54548
 Alpha virt. eigenvalues --    0.55029   0.55655   0.56112   0.56431   0.56785
 Alpha virt. eigenvalues --    0.57407   0.57535   0.57935   0.58058   0.58583
 Alpha virt. eigenvalues --    0.58972   0.59226   0.59651   0.60673   0.61651
 Alpha virt. eigenvalues --    0.61836   0.61955   0.62769   0.63422   0.63675
 Alpha virt. eigenvalues --    0.64510   0.65381   0.66145   0.66369   0.67041
 Alpha virt. eigenvalues --    0.67730   0.68293   0.68636   0.68705   0.68914
 Alpha virt. eigenvalues --    0.69098   0.69631   0.70615   0.71471   0.72214
 Alpha virt. eigenvalues --    0.72397   0.72919   0.73278   0.73519   0.74061
 Alpha virt. eigenvalues --    0.74545   0.74888   0.75573   0.76118   0.77374
 Alpha virt. eigenvalues --    0.77594   0.77854   0.78800   0.79022   0.79243
 Alpha virt. eigenvalues --    0.79504   0.79919   0.81285   0.81736   0.82214
 Alpha virt. eigenvalues --    0.82529   0.83631   0.84540   0.85331   0.85668
 Alpha virt. eigenvalues --    0.85877   0.86071   0.87970   0.88369   0.88785
 Alpha virt. eigenvalues --    0.89301   0.89629   0.89941   0.90237   0.90507
 Alpha virt. eigenvalues --    0.90918   0.91812   0.92308   0.92720   0.93592
 Alpha virt. eigenvalues --    0.93629   0.94123   0.94425   0.95044   0.95572
 Alpha virt. eigenvalues --    0.96132   0.96707   0.97570   0.98049   0.98881
 Alpha virt. eigenvalues --    0.99944   1.00777   1.00829   1.01625   1.01819
 Alpha virt. eigenvalues --    1.01974   1.02588   1.03107   1.03388   1.03895
 Alpha virt. eigenvalues --    1.05335   1.05648   1.06047   1.06547   1.07184
 Alpha virt. eigenvalues --    1.08073   1.09068   1.09612   1.10462   1.10674
 Alpha virt. eigenvalues --    1.10873   1.12387   1.13099   1.13319   1.13614
 Alpha virt. eigenvalues --    1.14690   1.15505   1.15803   1.16707   1.17165
 Alpha virt. eigenvalues --    1.17409   1.17699   1.18172   1.18654   1.19340
 Alpha virt. eigenvalues --    1.20184   1.20295   1.21227   1.21861   1.22650
 Alpha virt. eigenvalues --    1.23017   1.23952   1.24915   1.25337   1.25758
 Alpha virt. eigenvalues --    1.26679   1.27121   1.27713   1.28223   1.28619
 Alpha virt. eigenvalues --    1.29713   1.30153   1.30524   1.30963   1.31916
 Alpha virt. eigenvalues --    1.32802   1.33035   1.33932   1.34360   1.35232
 Alpha virt. eigenvalues --    1.35696   1.36474   1.36948   1.37398   1.39518
 Alpha virt. eigenvalues --    1.40115   1.41303   1.42044   1.42532   1.43545
 Alpha virt. eigenvalues --    1.44586   1.45590   1.45984   1.46470   1.47283
 Alpha virt. eigenvalues --    1.48280   1.49710   1.50228   1.51388   1.52097
 Alpha virt. eigenvalues --    1.52268   1.52585   1.52686   1.52964   1.53554
 Alpha virt. eigenvalues --    1.54005   1.54047   1.54724   1.55657   1.56362
 Alpha virt. eigenvalues --    1.57124   1.57515   1.58163   1.58621   1.58976
 Alpha virt. eigenvalues --    1.59237   1.59753   1.60400   1.60727   1.60799
 Alpha virt. eigenvalues --    1.61730   1.62052   1.62644   1.62944   1.63669
 Alpha virt. eigenvalues --    1.63901   1.64369   1.64722   1.65195   1.65662
 Alpha virt. eigenvalues --    1.66316   1.66491   1.66504   1.67042   1.67303
 Alpha virt. eigenvalues --    1.68236   1.68854   1.69967   1.70411   1.70768
 Alpha virt. eigenvalues --    1.71036   1.71566   1.72432   1.73103   1.73241
 Alpha virt. eigenvalues --    1.73451   1.73737   1.74472   1.75815   1.76175
 Alpha virt. eigenvalues --    1.76915   1.78307   1.78399   1.79363   1.79779
 Alpha virt. eigenvalues --    1.79978   1.80456   1.81895   1.82406   1.82591
 Alpha virt. eigenvalues --    1.82829   1.83083   1.84172   1.85022   1.85792
 Alpha virt. eigenvalues --    1.86597   1.87129   1.88280   1.89018   1.89602
 Alpha virt. eigenvalues --    1.90806   1.91317   1.91416   1.92145   1.92358
 Alpha virt. eigenvalues --    1.93643   1.93870   1.93974   1.95604   1.95798
 Alpha virt. eigenvalues --    1.96153   1.96887   1.97374   1.97719   1.97838
 Alpha virt. eigenvalues --    1.99102   2.00069   2.01461   2.01947   2.03684
 Alpha virt. eigenvalues --    2.03925   2.04480   2.05181   2.05913   2.06946
 Alpha virt. eigenvalues --    2.07436   2.08482   2.08743   2.09672   2.10461
 Alpha virt. eigenvalues --    2.11350   2.11847   2.12377   2.13200   2.14412
 Alpha virt. eigenvalues --    2.14692   2.15445   2.15758   2.16200   2.16778
 Alpha virt. eigenvalues --    2.17468   2.17642   2.18991   2.19181   2.19573
 Alpha virt. eigenvalues --    2.20227   2.20796   2.21307   2.22119   2.22681
 Alpha virt. eigenvalues --    2.23701   2.25426   2.25692   2.27899   2.28460
 Alpha virt. eigenvalues --    2.29046   2.29604   2.30884   2.31400   2.32136
 Alpha virt. eigenvalues --    2.32461   2.32632   2.33266   2.34246   2.34505
 Alpha virt. eigenvalues --    2.35533   2.35639   2.36919   2.37278   2.38079
 Alpha virt. eigenvalues --    2.38475   2.38548   2.38882   2.39136   2.39428
 Alpha virt. eigenvalues --    2.39927   2.40695   2.40771   2.41747   2.42278
 Alpha virt. eigenvalues --    2.42541   2.43107   2.44264   2.44954   2.45870
 Alpha virt. eigenvalues --    2.46441   2.47018   2.48393   2.48833   2.49667
 Alpha virt. eigenvalues --    2.50040   2.50850   2.51208   2.51672   2.52484
 Alpha virt. eigenvalues --    2.53209   2.53502   2.53975   2.54746   2.55549
 Alpha virt. eigenvalues --    2.56241   2.56873   2.57571   2.58086   2.58784
 Alpha virt. eigenvalues --    2.59010   2.59180   2.60174   2.60690   2.61169
 Alpha virt. eigenvalues --    2.61311   2.62276   2.62820   2.63194   2.63518
 Alpha virt. eigenvalues --    2.63948   2.64383   2.64832   2.65863   2.66828
 Alpha virt. eigenvalues --    2.67190   2.67815   2.68510   2.68910   2.69225
 Alpha virt. eigenvalues --    2.69465   2.70407   2.70664   2.71364   2.71433
 Alpha virt. eigenvalues --    2.71831   2.71993   2.72819   2.72939   2.73439
 Alpha virt. eigenvalues --    2.73813   2.74265   2.75717   2.75965   2.76909
 Alpha virt. eigenvalues --    2.77117   2.77748   2.77968   2.78284   2.79048
 Alpha virt. eigenvalues --    2.79487   2.79829   2.80727   2.81497   2.81670
 Alpha virt. eigenvalues --    2.82765   2.83348   2.84254   2.84984   2.85227
 Alpha virt. eigenvalues --    2.86251   2.86873   2.88286   2.88982   2.89279
 Alpha virt. eigenvalues --    2.89575   2.90027   2.90285   2.90734   2.91109
 Alpha virt. eigenvalues --    2.91793   2.92423   2.93133   2.93766   2.94109
 Alpha virt. eigenvalues --    2.95341   2.96521   2.96934   2.97161   2.97882
 Alpha virt. eigenvalues --    2.98730   2.99647   3.00414   3.01637   3.02250
 Alpha virt. eigenvalues --    3.02538   3.03224   3.04185   3.04434   3.05346
 Alpha virt. eigenvalues --    3.05772   3.06013   3.06527   3.07105   3.07343
 Alpha virt. eigenvalues --    3.07703   3.07937   3.08754   3.09522   3.10305
 Alpha virt. eigenvalues --    3.11552   3.11683   3.12095   3.12709   3.13205
 Alpha virt. eigenvalues --    3.13335   3.14128   3.14362   3.15040   3.15495
 Alpha virt. eigenvalues --    3.16011   3.16677   3.16830   3.17072   3.17194
 Alpha virt. eigenvalues --    3.17593   3.18701   3.18851   3.19579   3.20318
 Alpha virt. eigenvalues --    3.20483   3.21266   3.21644   3.22206   3.22415
 Alpha virt. eigenvalues --    3.23138   3.23654   3.23737   3.24105   3.24882
 Alpha virt. eigenvalues --    3.26128   3.26596   3.27171   3.27496   3.27542
 Alpha virt. eigenvalues --    3.28224   3.28695   3.28911   3.30032   3.30642
 Alpha virt. eigenvalues --    3.31159   3.31943   3.32174   3.32705   3.33378
 Alpha virt. eigenvalues --    3.34385   3.35047   3.35548   3.35904   3.36165
 Alpha virt. eigenvalues --    3.36965   3.37217   3.37788   3.37920   3.38325
 Alpha virt. eigenvalues --    3.38895   3.39207   3.39463   3.39653   3.39854
 Alpha virt. eigenvalues --    3.40896   3.41426   3.41882   3.43315   3.43469
 Alpha virt. eigenvalues --    3.43997   3.44578   3.45744   3.46600   3.46732
 Alpha virt. eigenvalues --    3.47431   3.47653   3.48221   3.48755   3.49252
 Alpha virt. eigenvalues --    3.49534   3.50431   3.51563   3.51962   3.52972
 Alpha virt. eigenvalues --    3.53752   3.54035   3.54435   3.54961   3.55205
 Alpha virt. eigenvalues --    3.55362   3.56102   3.57449   3.58034   3.59009
 Alpha virt. eigenvalues --    3.59234   3.59666   3.60140   3.60490   3.62802
 Alpha virt. eigenvalues --    3.63160   3.63538   3.65196   3.66223   3.66678
 Alpha virt. eigenvalues --    3.67693   3.68819   3.69850   3.71111   3.72242
 Alpha virt. eigenvalues --    3.73790   3.74010   3.75932   3.76347   3.76788
 Alpha virt. eigenvalues --    3.78165   3.78427   3.78622   3.79905   3.80830
 Alpha virt. eigenvalues --    3.81283   3.83510   3.83844   3.84708   3.85179
 Alpha virt. eigenvalues --    3.86731   3.89038   3.89644   3.91482   3.92651
 Alpha virt. eigenvalues --    3.93493   3.94898   3.95445   3.96288   3.96691
 Alpha virt. eigenvalues --    3.97507   3.99264   4.00366   4.00801   4.01158
 Alpha virt. eigenvalues --    4.01601   4.01965   4.03778   4.04575   4.04897
 Alpha virt. eigenvalues --    4.05576   4.05739   4.06000   4.07399   4.07908
 Alpha virt. eigenvalues --    4.08301   4.08873   4.10455   4.10699   4.11669
 Alpha virt. eigenvalues --    4.12125   4.12466   4.14190   4.14987   4.15477
 Alpha virt. eigenvalues --    4.15905   4.16109   4.16437   4.17225   4.17297
 Alpha virt. eigenvalues --    4.18487   4.19882   4.20816   4.21981   4.22724
 Alpha virt. eigenvalues --    4.24067   4.25206   4.25892   4.25940   4.27060
 Alpha virt. eigenvalues --    4.28660   4.29130   4.29821   4.31282   4.33640
 Alpha virt. eigenvalues --    4.34717   4.36251   4.37048   4.38610   4.39114
 Alpha virt. eigenvalues --    4.40202   4.40757   4.41667   4.41944   4.42628
 Alpha virt. eigenvalues --    4.43380   4.44481   4.46567   4.46848   4.47333
 Alpha virt. eigenvalues --    4.48459   4.49446   4.50817   4.52119   4.53936
 Alpha virt. eigenvalues --    4.54657   4.54932   4.55834   4.56685   4.58417
 Alpha virt. eigenvalues --    4.58994   4.59475   4.61367   4.62125   4.66179
 Alpha virt. eigenvalues --    4.67991   4.70294   4.71317   4.74880   4.76595
 Alpha virt. eigenvalues --    4.77013   4.78878   4.80272   4.80946   4.84952
 Alpha virt. eigenvalues --    4.85498   4.86143   4.87073   4.87452   4.88391
 Alpha virt. eigenvalues --    4.88583   4.89617   4.91015   4.94327   4.95312
 Alpha virt. eigenvalues --    4.96213   4.97908   5.01545   5.01982   5.05380
 Alpha virt. eigenvalues --    5.05788   5.07420   5.07707   5.08980   5.11486
 Alpha virt. eigenvalues --    5.16567   5.17796   5.19817   5.21047   5.21292
 Alpha virt. eigenvalues --    5.26414   5.28477   5.29034   5.29917   5.30848
 Alpha virt. eigenvalues --    5.32300   5.35178   5.40371   5.40641   5.42485
 Alpha virt. eigenvalues --    5.44254   5.46554   5.48206   5.52235   5.54825
 Alpha virt. eigenvalues --    5.58024   5.59755   5.60268   5.64106   5.65572
 Alpha virt. eigenvalues --    5.67352   5.68781   5.73589   5.74123   5.79705
 Alpha virt. eigenvalues --    5.81398   5.85400   5.86875   5.92850   5.95676
 Alpha virt. eigenvalues --    6.04997   6.11662   6.15329   6.16396   6.20050
 Alpha virt. eigenvalues --    6.36703   6.41705   6.52842   6.62840   6.75664
 Alpha virt. eigenvalues --    6.77972   6.79139   6.80848   6.83322   6.88416
 Alpha virt. eigenvalues --    6.94962   6.96179   7.10372   7.15426   7.19328
 Alpha virt. eigenvalues --    7.23669   7.37118   7.46132  16.36938  22.35983
 Alpha virt. eigenvalues --   22.48769  22.49846  22.52990  22.53477  22.57184
 Alpha virt. eigenvalues --   22.57739  22.58550  22.76764  22.77783  22.81796
 Alpha virt. eigenvalues --   22.82284  22.82866  22.84244  22.84736  22.90496
 Alpha virt. eigenvalues --   23.04323  23.16349  23.31809  23.37908  23.55445
 Alpha virt. eigenvalues --   32.59355  32.85769  44.12341  44.39589  44.43431
          Condensed to atoms (all electrons):
 Mulliken charges:
               1
     1  O   -0.411005
     2  C    0.356885
     3  N   -0.329962
     4  C    0.302631
     5  N   -0.312977
     6  C   -0.095680
     7  C   -0.258678
     8  C    0.238678
     9  C   -0.233161
    10  C   -0.240915
    11  C   -0.240333
    12  C   -0.293295
    13  C    0.077864
    14  C   -0.189081
    15  C   -0.210392
    16  C   -0.042928
    17  B    0.428951
    18  O   -0.334483
    19  C    0.129767
    20  C   -0.432649
    21  C   -0.499303
    22  C    0.130508
    23  C   -0.499566
    24  C   -0.432728
    25  O   -0.336252
    26  C   -0.172655
    27  C   -0.162733
    28  H    0.246647
    29  H    0.140281
    30  H    0.161364
    31  H    0.132038
    32  H    0.147321
    33  H    0.141194
    34  H    0.141252
    35  H    0.147186
    36  H    0.215484
    37  H    0.157597
    38  H    0.158932
    39  H    0.158937
    40  H    0.155687
    41  H    0.159450
    42  H    0.164068
    43  H    0.166244
    44  H    0.165874
    45  H    0.164171
    46  H    0.167047
    47  H    0.165131
    48  H    0.155930
    49  H    0.158941
    50  H    0.158703
    51  H    0.159059
    52  H    0.174953
 Sum of Mulliken charges =  -0.00000
 Mulliken charges with hydrogens summed into heavy atoms:
               1
     1  O   -0.411005
     2  C    0.356885
     3  N   -0.083315
     4  C    0.302631
     5  N   -0.312977
     6  C    0.044601
     7  C   -0.097315
     8  C    0.238678
     9  C   -0.101123
    10  C    0.047600
    11  C    0.048105
    12  C   -0.077811
    13  C    0.077864
    14  C   -0.031484
    15  C   -0.051460
    16  C   -0.042928
    17  B    0.428951
    18  O   -0.334483
    19  C    0.129767
    20  C    0.041426
    21  C   -0.003118
    22  C    0.130508
    23  C   -0.003217
    24  C    0.040846
    25  O   -0.336252
    26  C   -0.013596
    27  C    0.012220
 Electronic spatial extent (au):  <R**2>=          21262.4320
 Charge=              0.0000 electrons
 Dipole moment (field-independent basis, Debye):
    X=              2.2887    Y=              1.0354    Z=             -0.0831  Tot=              2.5134
 Quadrupole moment (field-independent basis, Debye-Ang):
   XX=           -105.7614   YY=           -159.9837   ZZ=           -162.2357
   XY=              1.1829   XZ=             -0.8063   YZ=              1.4516
 Traceless Quadrupole moment (field-independent basis, Debye-Ang):
   XX=             36.8989   YY=            -17.3235   ZZ=            -19.5754
   XY=              1.1829   XZ=             -0.8063   YZ=              1.4516
 Octapole moment (field-independent basis, Debye-Ang**2):
  XXX=             42.9381  YYY=             -3.3718  ZZZ=              1.7016  XYY=             -5.0360
  XXY=            -10.0265  XXZ=              4.5843  XZZ=             26.1301  YZZ=             -2.5887
  YYZ=             -1.7108  XYZ=             10.3844
 Hexadecapole moment (field-independent basis, Debye-Ang**3):
 XXXX=         -23293.9214 YYYY=          -1553.6451 ZZZZ=           -680.8345 XXXY=            168.0369
 XXXZ=            -42.4162 YYYX=             10.6052 YYYZ=             12.5814 ZZZX=            -12.9475
 ZZZY=             -1.5699 XXYY=          -4573.8922 XXZZ=          -4616.2019 YYZZ=           -377.7147
 XXYZ=            -42.8883 YYXZ=              4.3221 ZZXY=             19.6150
 N-N= 2.224367298064D+03 E-N=-7.184295884130D+03  KE= 1.169133528432D+03
 Unable to Open any file for archive entry.
 1\1\GINC-COMPUTE-0-30\SP\RM062X\def2TZVP\C21H25B1N2O3\ZTAN64\14-Aug-20
 24\0\\# M062X/def2tzvp int=(grid=ultrafine) nmr=giao guess=read geom=c
 heck\\pyrd4.xyz\\0,1\O,0,2.6945872426,0.7701643382,1.8513804056\C,0,1.
 8573369996,0.9253225797,2.7349596264\N,0,2.1737226228,1.2474049502,4.0
 347482455\C,0,3.4301132779,1.4924736257,4.6041542672\N,0,3.3597433033,
 1.7185879598,5.9235205472\C,0,4.5106234406,1.970264182,6.5563287002\C,
 0,5.7500606899,2.0101035089,5.9303082931\C,0,5.8163149993,1.7715299948
 ,4.5482689548\C,0,7.0927054325,1.790511332,3.7911963341\C,0,8.20263921
 04,2.7581504936,4.1614659042\C,0,8.3805681636,1.2945691424,4.424194168
 5\C,0,4.6238002257,1.505805852,3.8722263463\C,0,0.3910951044,0.7545287
 732,2.4654502852\C,0,-0.6145324913,1.3327785838,3.2531406137\C,0,-1.95
 38820121,1.1345579064,2.9314503931\C,0,-2.3248333735,0.3553440521,1.82
 42047726\B,0,-3.8203086233,0.1319863011,1.4758217307\O,0,-4.2405491196
 ,-0.5598169851,0.3678327781\C,0,-5.6763849203,-0.7559517689,0.50710752
 81\C,0,-6.3138760788,-0.6832673298,-0.8742865644\C,0,-5.8706686527,-2.
 1487839994,1.112481121\C,0,-6.0779468687,0.4065429755,1.4869356629\C,0
 ,-6.368264718,1.726970397,0.7684458597\C,0,-7.2027844835,0.0709838949,
 2.457522631\O,0,-4.8520736315,0.6069739052,2.2464554778\C,0,-1.3068519
 904,-0.2081997447,1.0363504442\C,0,0.0330273558,-0.0059650537,1.344887
 0472\H,0,1.4377713337,1.2508551089,4.7270749986\H,0,4.4317869933,2.150
 2208898,7.6264838622\H,0,6.6401315665,2.2215058537,6.5129752951\H,0,6.
 9756865904,1.5858993434,2.7313421965\H,0,8.0221573095,3.4168876931,5.0
 051427688\H,0,8.7602377867,3.213162918,3.3493024975\H,0,9.0618545371,0
 .731434792,3.7946873104\H,0,8.3231605545,0.9422976465,5.4493192398\H,0
 ,4.6013096774,1.3064772815,2.8107010754\H,0,-0.3618761123,1.9706647868
 ,4.095089204\H,0,-2.7281575994,1.5930310882,3.5388092928\H,0,-6.056791
 2558,0.2449614601,-1.3860057857\H,0,-7.4036490167,-0.7538186278,-0.800
 0684104\H,0,-5.9602735549,-1.517303071,-1.4860477162\H,0,-6.9297758397
 ,-2.4094816762,1.1896347893\H,0,-5.4224604397,-2.2119417075,2.10751362
 53\H,0,-5.378651277,-2.8840226848,0.4710838586\H,0,-7.3153432392,1.688
 0479913,0.2233695373\H,0,-5.570354465,1.9759408471,0.0639710298\H,0,-6
 .4281433843,2.5269113803,1.5104695707\H,0,-8.1247175504,-0.1591939414,
 1.9142622471\H,0,-7.3961198093,0.9291338553,3.1064919919\H,0,-6.946438
 1537,-0.7804960575,3.0890692245\H,0,-1.5787245498,-0.8086925694,0.1736
 401615\H,0,0.8254987936,-0.4257524672,0.7357365615\\Version=ES64L-G16R
 evC.01\State=1-A\HF=-1175.4032992\RMSD=2.959e-09\Dipole=-0.982576,-0.0
 304971,0.1069266\Quadrupole=23.5198906,-12.5269237,-10.992967,6.002328
 7,10.312891,3.0953504\PG=C01 [X(C21H25B1N2O3)]\\@
 The archive entry for this job was punched.


    WHAT WE HAVE LEARNED
 IS LIKE A HANDFUL OF EARTH;
  WHAT WE HAVE YET TO LEARN
   IS LIKE THE WHOLE WORLD.

         -- AVVAYIAR
 Job cpu time:       0 days  5 hours 32 minutes 22.9 seconds.
 Elapsed time:       0 days  0 hours 22 minutes 11.9 seconds.
 File lengths (MBytes):  RWF=    543 Int=      0 D2E=      0 Chk=     88 Scr=      1
 Normal termination of Gaussian 16 at Wed Aug 14 20:43:53 2024.
 
 
-----Kestrel cluster job statistics-----
Time info:

real	107m18.759s
user	1689m45.163s
sys	1m3.383s
 
Disk space usage:
88M	/scratch/362966.kestrel.chem.wisc.edu
