 Entering Gaussian System, Link 0=/share/apps/gaussian/g16/g16
 Initial command:
 /share/apps/gaussian/g16/l1.exe "/scratch/362991.kestrel.chem.wisc.edu/Gau-111725.inp" -scrdir="/scratch/362991.kestrel.chem.wisc.edu/"
 Entering Link 1 = /share/apps/gaussian/g16/l1.exe PID=    111726.
  
 Copyright (c) 1988-2019, Gaussian, Inc.  All Rights Reserved.
  
 This is part of the Gaussian(R) 16 program.  It is based on
 the Gaussian(R) 09 system (copyright 2009, Gaussian, Inc.),
 the Gaussian(R) 03 system (copyright 2003, Gaussian, Inc.),
 the Gaussian(R) 98 system (copyright 1998, Gaussian, Inc.),
 the Gaussian(R) 94 system (copyright 1995, Gaussian, Inc.),
 the Gaussian 92(TM) system (copyright 1992, Gaussian, Inc.),
 the Gaussian 90(TM) system (copyright 1990, Gaussian, Inc.),
 the Gaussian 88(TM) system (copyright 1988, Gaussian, Inc.),
 the Gaussian 86(TM) system (copyright 1986, Carnegie Mellon
 University), and the Gaussian 82(TM) system (copyright 1983,
 Carnegie Mellon University). Gaussian is a federally registered
 trademark of Gaussian, Inc.
  
 This software contains proprietary and confidential information,
 including trade secrets, belonging to Gaussian, Inc.
  
 This software is provided under written license and may be
 used, copied, transmitted, or stored only in accord with that
 written license.
  
 The following legend is applicable only to US Government
 contracts under FAR:
  
                    RESTRICTED RIGHTS LEGEND
  
 Use, reproduction and disclosure by the US Government is
 subject to restrictions as set forth in subparagraphs (a)
 and (c) of the Commercial Computer Software - Restricted
 Rights clause in FAR 52.227-19.
  
 Gaussian, Inc.
 340 Quinnipiac St., Bldg. 40, Wallingford CT 06492
  
  
 ---------------------------------------------------------------
 Warning -- This program may not be used in any manner that
 competes with the business of Gaussian, Inc. or will provide
 assistance to any competitor of Gaussian, Inc.  The licensee
 of this program is prohibited from giving any competitor of
 Gaussian, Inc. access to this program.  By using this program,
 the user acknowledges that Gaussian, Inc. is engaged in the
 business of creating and licensing software in the field of
 computational chemistry and represents and warrants to the
 licensee that it is not a competitor of Gaussian, Inc. and that
 it will not use this program in any manner prohibited above.
 ---------------------------------------------------------------
  

 Cite this work as:
 Gaussian 16, Revision C.01,
 M. J. Frisch, G. W. Trucks, H. B. Schlegel, G. E. Scuseria, 
 M. A. Robb, J. R. Cheeseman, G. Scalmani, V. Barone, 
 G. A. Petersson, H. Nakatsuji, X. Li, M. Caricato, A. V. Marenich, 
 J. Bloino, B. G. Janesko, R. Gomperts, B. Mennucci, H. P. Hratchian, 
 J. V. Ortiz, A. F. Izmaylov, J. L. Sonnenberg, D. Williams-Young, 
 F. Ding, F. Lipparini, F. Egidi, J. Goings, B. Peng, A. Petrone, 
 T. Henderson, D. Ranasinghe, V. G. Zakrzewski, J. Gao, N. Rega, 
 G. Zheng, W. Liang, M. Hada, M. Ehara, K. Toyota, R. Fukuda, 
 J. Hasegawa, M. Ishida, T. Nakajima, Y. Honda, O. Kitao, H. Nakai, 
 T. Vreven, K. Throssell, J. A. Montgomery, Jr., J. E. Peralta, 
 F. Ogliaro, M. J. Bearpark, J. J. Heyd, E. N. Brothers, K. N. Kudin, 
 V. N. Staroverov, T. A. Keith, R. Kobayashi, J. Normand, 
 K. Raghavachari, A. P. Rendell, J. C. Burant, S. S. Iyengar, 
 J. Tomasi, M. Cossi, J. M. Millam, M. Klene, C. Adamo, R. Cammi, 
 J. W. Ochterski, R. L. Martin, K. Morokuma, O. Farkas, 
 J. B. Foresman, and D. J. Fox, Gaussian, Inc., Wallingford CT, 2019.
 
 ******************************************
 Gaussian 16:  ES64L-G16RevC.01  3-Jul-2019
                14-Aug-2024 
 ******************************************
 %nprocs=16
 Will use up to   16 processors via shared memory.
 %mem=16GB
 %chk=pyrmd3_conf-1.chk
 ----------------------------------------------------------------------
 # B3LYP/6-31G(d,p) symmetry=loose empiricaldispersion=GD3BJ int=(grid=
 ultrafine) opt freq=noraman
 ----------------------------------------------------------------------
 1/18=20,19=15,26=4,38=1/1,3;
 2/9=110,12=2,17=4,18=3,40=1/2;
 3/5=1,6=6,7=101,11=2,25=1,30=1,71=1,74=-5,75=-5,124=41/1,2,3;
 4//1;
 5/5=2,38=5/2;
 6/7=2,8=2,9=2,10=2,28=1/1;
 7//1,2,3,16;
 1/18=20,19=15,26=4/3(2);
 2/9=110/2;
 99//99;
 2/9=110/2;
 3/5=1,6=6,7=101,11=2,25=1,30=1,71=1,74=-5,75=-5,124=41/1,2,3;
 4/5=5,16=3,69=1/1;
 5/5=2,38=5/2;
 7//1,2,3,16;
 1/18=20,19=15,26=4/3(-5);
 2/9=110/2;
 6/7=2,8=2,9=2,10=2,19=2,28=1/1;
 99/9=1/99;
 ----------
 pyrmd3.xyz
 ----------
 Symbolic Z-matrix:
 Charge =  0 Multiplicity = 1
 Cl                    4.2892    1.2621   -0.5842 
 C                     2.6957    0.6592   -0.3167 
 N                     2.1457    0.8656    0.909 
 C                     0.8905    0.3847    1.1045 
 C                     0.1832   -0.293     0.1057 
 C                    -1.222    -0.8208    0.3402 
 C                    -2.2991    0.2116   -0.0213 
 C                     0.8339   -0.4537   -1.1223 
 N                     2.0883    0.0156   -1.3484 
 H                     0.4599    0.5568    2.0804 
 H                    -1.366    -1.7346   -0.2395 
 H                    -1.3248   -1.1231    1.3841 
 H                    -3.2989   -0.1868    0.1541 
 H                    -2.1956    1.1187    0.5756 
 H                    -2.2375    0.4982   -1.072 
 H                     0.3575   -0.9605   -1.9491 
 

 GradGradGradGradGradGradGradGradGradGradGradGradGradGradGradGradGradGrad
 Berny optimization.
 Initialization pass.
                           ----------------------------
                           !    Initial Parameters    !
                           ! (Angstroms and Degrees)  !
 --------------------------                            --------------------------
 ! Name  Definition              Value          Derivative Info.                !
 --------------------------------------------------------------------------------
 ! R1    R(1,2)                  1.7246         estimate D2E/DX2                !
 ! R2    R(2,3)                  1.3592         estimate D2E/DX2                !
 ! R3    R(2,9)                  1.3593         estimate D2E/DX2                !
 ! R4    R(3,4)                  1.3583         estimate D2E/DX2                !
 ! R5    R(4,5)                  1.399          estimate D2E/DX2                !
 ! R6    R(4,10)                 1.0805         estimate D2E/DX2                !
 ! R7    R(5,6)                  1.5193         estimate D2E/DX2                !
 ! R8    R(5,8)                  1.399          estimate D2E/DX2                !
 ! R9    R(6,7)                  1.5351         estimate D2E/DX2                !
 ! R10   R(6,11)                 1.0917         estimate D2E/DX2                !
 ! R11   R(6,12)                 1.0916         estimate D2E/DX2                !
 ! R12   R(7,13)                 1.0905         estimate D2E/DX2                !
 ! R13   R(7,14)                 1.0908         estimate D2E/DX2                !
 ! R14   R(7,15)                 1.0908         estimate D2E/DX2                !
 ! R15   R(8,9)                  1.3583         estimate D2E/DX2                !
 ! R16   R(8,16)                 1.0805         estimate D2E/DX2                !
 ! A1    A(1,2,3)              117.4304         estimate D2E/DX2                !
 ! A2    A(1,2,9)              117.4316         estimate D2E/DX2                !
 ! A3    A(3,2,9)              125.138          estimate D2E/DX2                !
 ! A4    A(2,3,4)              116.7411         estimate D2E/DX2                !
 ! A5    A(3,4,5)              122.4084         estimate D2E/DX2                !
 ! A6    A(3,4,10)             116.2241         estimate D2E/DX2                !
 ! A7    A(5,4,10)             121.3672         estimate D2E/DX2                !
 ! A8    A(4,5,6)              121.7166         estimate D2E/DX2                !
 ! A9    A(4,5,8)              116.5622         estimate D2E/DX2                !
 ! A10   A(6,5,8)              121.7205         estimate D2E/DX2                !
 ! A11   A(5,6,7)              112.2699         estimate D2E/DX2                !
 ! A12   A(5,6,11)             109.3193         estimate D2E/DX2                !
 ! A13   A(5,6,12)             109.3238         estimate D2E/DX2                !
 ! A14   A(7,6,11)             110.2018         estimate D2E/DX2                !
 ! A15   A(7,6,12)             110.2028         estimate D2E/DX2                !
 ! A16   A(11,6,12)            105.2817         estimate D2E/DX2                !
 ! A17   A(6,7,13)             111.0829         estimate D2E/DX2                !
 ! A18   A(6,7,14)             111.3351         estimate D2E/DX2                !
 ! A19   A(6,7,15)             111.3393         estimate D2E/DX2                !
 ! A20   A(13,7,14)            107.626          estimate D2E/DX2                !
 ! A21   A(13,7,15)            107.6199         estimate D2E/DX2                !
 ! A22   A(14,7,15)            107.6521         estimate D2E/DX2                !
 ! A23   A(5,8,9)              122.4101         estimate D2E/DX2                !
 ! A24   A(5,8,16)             121.3651         estimate D2E/DX2                !
 ! A25   A(9,8,16)             116.2245         estimate D2E/DX2                !
 ! A26   A(2,9,8)              116.7401         estimate D2E/DX2                !
 ! D1    D(1,2,3,4)           -179.9822         estimate D2E/DX2                !
 ! D2    D(9,2,3,4)              0.0539         estimate D2E/DX2                !
 ! D3    D(1,2,9,8)            179.985          estimate D2E/DX2                !
 ! D4    D(3,2,9,8)             -0.0511         estimate D2E/DX2                !
 ! D5    D(2,3,4,5)              0.0406         estimate D2E/DX2                !
 ! D6    D(2,3,4,10)          -179.7667         estimate D2E/DX2                !
 ! D7    D(3,4,5,6)           -179.8141         estimate D2E/DX2                !
 ! D8    D(3,4,5,8)             -0.1272         estimate D2E/DX2                !
 ! D9    D(10,4,5,6)            -0.0165         estimate D2E/DX2                !
 ! D10   D(10,4,5,8)           179.6703         estimate D2E/DX2                !
 ! D11   D(4,5,6,7)             89.8429         estimate D2E/DX2                !
 ! D12   D(4,5,6,11)          -147.5419         estimate D2E/DX2                !
 ! D13   D(4,5,6,12)           -32.7769         estimate D2E/DX2                !
 ! D14   D(8,5,6,7)            -89.8279         estimate D2E/DX2                !
 ! D15   D(8,5,6,11)            32.7874         estimate D2E/DX2                !
 ! D16   D(8,5,6,12)           147.5524         estimate D2E/DX2                !
 ! D17   D(4,5,8,9)              0.1302         estimate D2E/DX2                !
 ! D18   D(4,5,8,16)          -179.6803         estimate D2E/DX2                !
 ! D19   D(6,5,8,9)            179.817          estimate D2E/DX2                !
 ! D20   D(6,5,8,16)             0.0066         estimate D2E/DX2                !
 ! D21   D(5,6,7,13)           179.9968         estimate D2E/DX2                !
 ! D22   D(5,6,7,14)           -60.0704         estimate D2E/DX2                !
 ! D23   D(5,6,7,15)            60.0688         estimate D2E/DX2                !
 ! D24   D(11,6,7,13)           57.8818         estimate D2E/DX2                !
 ! D25   D(11,6,7,14)          177.8146         estimate D2E/DX2                !
 ! D26   D(11,6,7,15)          -62.0461         estimate D2E/DX2                !
 ! D27   D(12,6,7,13)          -57.8817         estimate D2E/DX2                !
 ! D28   D(12,6,7,14)           62.0511         estimate D2E/DX2                !
 ! D29   D(12,6,7,15)         -177.8097         estimate D2E/DX2                !
 ! D30   D(5,8,9,2)             -0.0463         estimate D2E/DX2                !
 ! D31   D(16,8,9,2)           179.7733         estimate D2E/DX2                !
 --------------------------------------------------------------------------------
 Trust Radius=3.00D-01 FncErr=1.00D-07 GrdErr=1.00D-06 EigMax=2.50D+02 EigMin=1.00D-04
 Number of steps in this run=     83 maximum allowed number of steps=    100.
 GradGradGradGradGradGradGradGradGradGradGradGradGradGradGradGradGradGrad

                          Input orientation:                          
 ---------------------------------------------------------------------
 Center     Atomic      Atomic             Coordinates (Angstroms)
 Number     Number       Type             X           Y           Z
 ---------------------------------------------------------------------
      1         17           0        4.289200    1.262100   -0.584200
      2          6           0        2.695700    0.659200   -0.316700
      3          7           0        2.145700    0.865600    0.909000
      4          6           0        0.890500    0.384700    1.104500
      5          6           0        0.183200   -0.293000    0.105700
      6          6           0       -1.222000   -0.820800    0.340200
      7          6           0       -2.299100    0.211600   -0.021300
      8          6           0        0.833900   -0.453700   -1.122300
      9          7           0        2.088300    0.015600   -1.348400
     10          1           0        0.459900    0.556800    2.080400
     11          1           0       -1.366000   -1.734600   -0.239500
     12          1           0       -1.324800   -1.123100    1.384100
     13          1           0       -3.298900   -0.186800    0.154100
     14          1           0       -2.195600    1.118700    0.575600
     15          1           0       -2.237500    0.498200   -1.072000
     16          1           0        0.357500   -0.960500   -1.949100
 ---------------------------------------------------------------------
                    Distance matrix (angstroms):
                    1          2          3          4          5
     1  Cl   0.000000
     2  C    1.724612   0.000000
     3  N    2.642244   1.359206   0.000000
     4  C    3.895215   2.313851   1.358312   0.000000
     5  C    4.444495   2.719883   2.416413   1.398982   0.000000
     6  C    5.963750   4.239138   3.809053   2.549518   1.519260
     7  C    6.695230   5.023508   4.587965   3.386877   2.536250
     8  C    3.895205   2.313836   2.754551   2.380075   1.399006
     9  N    2.642295   1.359250   2.412809   2.754574   2.416412
    10  H    4.718165   3.279539   2.075923   1.080470   2.167525
    11  H    6.409393   4.715257   4.517978   3.374842   2.144154
    12  H    6.409398   4.715266   4.028029   2.694289   2.144163
    13  H    7.760390   6.072281   5.596525   4.333699   3.484055
    14  H    6.589259   4.993211   4.361433   3.215976   2.805778
    15  H    6.589333   4.993282   4.824084   3.812403   2.805844
    16  H    4.718174   3.279533   3.834193   3.379072   2.167519
                    6          7          8          9         10
     6  C    0.000000
     7  C    1.535147   0.000000
     8  C    2.549587   3.386815   0.000000
     9  N    3.809071   4.587907   1.358265   0.000000
    10  H    2.784756   3.485454   3.379094   3.834221   0.000000
    11  H    1.091704   2.169327   2.694365   4.028033   3.737159
    12  H    1.091641   2.169293   3.374926   4.518013   2.547951
    13  H    2.179473   1.090453   4.333644   5.596463   4.288607
    14  H    2.182881   1.090794   3.812240   4.823941   3.103520
    15  H    2.182959   1.090827   3.215920   4.361404   4.149340
    16  H    2.784822   3.485363   1.080464   2.075881   4.306919
                   11         12         13         14         15
    11  H    0.000000
    12  H    1.735427   0.000000
    13  H    2.507331   2.507315   0.000000
    14  H    3.081225   2.537249   1.760472   0.000000
    15  H    2.537314   3.081244   1.760431   1.761068   0.000000
    16  H    2.548022   3.737217   4.288511   4.149157   3.103407
                   16
    16  H    0.000000
 Stoichiometry    C6H7ClN2
 Framework group  C1[X(C6H7ClN2)]
 Deg. of freedom    42
 Full point group                 C1      NOp   1
 Largest Abelian subgroup         C1      NOp   1
 Largest concise Abelian subgroup C1      NOp   1
                         Standard orientation:                         
 ---------------------------------------------------------------------
 Center     Atomic      Atomic             Coordinates (Angstroms)
 Number     Number       Type             X           Y           Z
 ---------------------------------------------------------------------
      1         17           0       -3.114327   -0.000011    0.202940
      2          6           0       -1.402251   -0.000004   -0.004625
      3          7           0       -0.780613    1.206390   -0.079596
      4          6           0        0.567682    1.190053   -0.243442
      5          6           0        1.297670    0.000032   -0.333549
      6          6           0        2.806337    0.000096   -0.512637
      7          6           0        3.551519   -0.000077    0.829518
      8          6           0        0.567686   -1.190021   -0.243462
      9          7           0       -0.780568   -1.206419   -0.079682
     10          1           0        1.053706    2.153491   -0.298072
     11          1           0        3.099556   -0.867584   -1.106752
     12          1           0        3.099568    0.867843   -1.106532
     13          1           0        4.631474   -0.000085    0.678572
     14          1           0        3.300927    0.880372    1.422684
     15          1           0        3.300993   -0.880696    1.422520
     16          1           0        1.053736   -2.153428   -0.298272
 ---------------------------------------------------------------------
 Rotational constants (GHZ):           4.5899558           0.6845576           0.6297521
 Standard basis: 6-31G(d,p) (6D, 7F)
 There are   174 symmetry adapted cartesian basis functions of A   symmetry.
 There are   174 symmetry adapted basis functions of A   symmetry.
   174 basis functions,   325 primitive gaussians,   174 cartesian basis functions
    37 alpha electrons       37 beta electrons
       nuclear repulsion energy       478.9402564250 Hartrees.
 NAtoms=   16 NActive=   16 NUniq=   16 SFac= 1.00D+00 NAtFMM=   60 NAOKFM=F Big=F
 Integral buffers will be    131072 words long.
 Raffenetti 2 integral format.
 Two-electron integral symmetry is turned on.
 Nuclear repulsion after empirical dispersion term =      478.9111978372 Hartrees.
 One-electron integrals computed using PRISM.
 NBasis=   174 RedAO= T EigKep=  1.26D-03  NBF=   174
 NBsUse=   174 1.00D-06 EigRej= -1.00D+00 NBFU=   174
 ExpMin= 1.43D-01 ExpMax= 2.52D+04 ExpMxC= 3.78D+03 IAcc=3 IRadAn=         5 AccDes= 0.00D+00
 Harris functional with IExCor=  402 and IRadAn=       5 diagonalized for initial guess.
 HarFok:  IExCor=  402 AccDes= 0.00D+00 IRadAn=         5 IDoV= 1 UseB2=F ITyADJ=14
 ICtDFT=  3500011 ScaDFX=  1.000000  1.000000  1.000000  1.000000
 FoFCou: FMM=F IPFlag=           0 FMFlag=      100000 FMFlg1=           0
         NFxFlg=           0 DoJE=T BraDBF=F KetDBF=T FulRan=T
         wScrn=  0.000000 ICntrl=       500 IOpCl=  0 I1Cent=   200000004 NGrid=           0
         NMat0=    1 NMatS0=      1 NMatT0=    0 NMatD0=    1 NMtDS0=    0 NMtDT0=    0
 Petite list used in FoFCou.
 Requested convergence on RMS density matrix=1.00D-08 within 128 cycles.
 Requested convergence on MAX density matrix=1.00D-06.
 Requested convergence on             energy=1.00D-06.
 No special actions if energy rises.
 Integral accuracy reduced to 1.0D-05 until final iterations.
 Initial convergence to 1.0D-05 achieved.  Increase integral accuracy.
 SCF Done:  E(RB3LYP) =  -802.587626897     A.U. after   13 cycles
            NFock= 13  Conv=0.91D-08     -V/T= 2.0061

 **********************************************************************

            Population analysis using the SCF Density.

 **********************************************************************

 Orbital symmetries:
       Occupied  (A) (A) (A) (A) (A) (A) (A) (A) (A) (A) (A) (A)
                 (A) (A) (A) (A) (A) (A) (A) (A) (A) (A) (A) (A)
                 (A) (A) (A) (A) (A) (A) (A) (A) (A) (A) (A) (A)
                 (A)
       Virtual   (A) (A) (A) (A) (A) (A) (A) (A) (A) (A) (A) (A)
                 (A) (A) (A) (A) (A) (A) (A) (A) (A) (A) (A) (A)
                 (A) (A) (A) (A) (A) (A) (A) (A) (A) (A) (A) (A)
                 (A) (A) (A) (A) (A) (A) (A) (A) (A) (A) (A) (A)
                 (A) (A) (A) (A) (A) (A) (A) (A) (A) (A) (A) (A)
                 (A) (A) (A) (A) (A) (A) (A) (A) (A) (A) (A) (A)
                 (A) (A) (A) (A) (A) (A) (A) (A) (A) (A) (A) (A)
                 (A) (A) (A) (A) (A) (A) (A) (A) (A) (A) (A) (A)
                 (A) (A) (A) (A) (A) (A) (A) (A) (A) (A) (A) (A)
                 (A) (A) (A) (A) (A) (A) (A) (A) (A) (A) (A) (A)
                 (A) (A) (A) (A) (A) (A) (A) (A) (A) (A) (A) (A)
                 (A) (A) (A) (A) (A)
 The electronic state is 1-A.
 Alpha  occ. eigenvalues -- -101.55417 -14.35740 -14.35739 -10.31874 -10.25406
 Alpha  occ. eigenvalues --  -10.25406 -10.22443 -10.21251 -10.19514  -9.47133
 Alpha  occ. eigenvalues --   -7.23541  -7.22578  -7.22471  -0.99608  -0.89358
 Alpha  occ. eigenvalues --   -0.87103  -0.81994  -0.74939  -0.67521  -0.66057
 Alpha  occ. eigenvalues --   -0.61417  -0.53630  -0.53008  -0.46901  -0.45213
 Alpha  occ. eigenvalues --   -0.44353  -0.43168  -0.43061  -0.40413  -0.38279
 Alpha  occ. eigenvalues --   -0.36575  -0.34287  -0.32242  -0.31985  -0.31640
 Alpha  occ. eigenvalues --   -0.26798  -0.25939
 Alpha virt. eigenvalues --   -0.05580  -0.03854   0.04161   0.08356   0.10669
 Alpha virt. eigenvalues --    0.12211   0.12276   0.14044   0.15322   0.15811
 Alpha virt. eigenvalues --    0.17077   0.20807   0.23637   0.24180   0.24512
 Alpha virt. eigenvalues --    0.31146   0.32985   0.34339   0.38124   0.40594
 Alpha virt. eigenvalues --    0.42913   0.45053   0.45793   0.48053   0.49314
 Alpha virt. eigenvalues --    0.52123   0.53294   0.56982   0.57243   0.57813
 Alpha virt. eigenvalues --    0.58966   0.60502   0.60977   0.62109   0.64117
 Alpha virt. eigenvalues --    0.65506   0.74119   0.75698   0.77757   0.79151
 Alpha virt. eigenvalues --    0.79646   0.80842   0.81332   0.82336   0.83764
 Alpha virt. eigenvalues --    0.85500   0.86122   0.87433   0.87549   0.89083
 Alpha virt. eigenvalues --    0.90478   0.93408   0.94411   0.96439   0.97245
 Alpha virt. eigenvalues --    0.99572   1.04421   1.08216   1.09781   1.15518
 Alpha virt. eigenvalues --    1.15581   1.18539   1.22582   1.26569   1.34487
 Alpha virt. eigenvalues --    1.38863   1.39492   1.43731   1.48004   1.49296
 Alpha virt. eigenvalues --    1.52981   1.55922   1.57963   1.59643   1.61074
 Alpha virt. eigenvalues --    1.75284   1.76935   1.78366   1.78419   1.81566
 Alpha virt. eigenvalues --    1.82835   1.84595   1.87160   1.98834   2.02007
 Alpha virt. eigenvalues --    2.03855   2.05075   2.06762   2.07501   2.11906
 Alpha virt. eigenvalues --    2.13405   2.15703   2.17869   2.19203   2.23044
 Alpha virt. eigenvalues --    2.23637   2.29187   2.30886   2.32783   2.34387
 Alpha virt. eigenvalues --    2.38823   2.42868   2.49045   2.49980   2.50736
 Alpha virt. eigenvalues --    2.52919   2.55194   2.64114   2.65163   2.65773
 Alpha virt. eigenvalues --    2.67243   2.71256   2.76185   2.77079   2.81545
 Alpha virt. eigenvalues --    2.86491   2.89264   2.92305   2.95733   3.15977
 Alpha virt. eigenvalues --    3.18290   3.18536   3.28298   3.36099   3.39359
 Alpha virt. eigenvalues --    3.45111   3.52930   3.60229   3.94749   4.01959
 Alpha virt. eigenvalues --    4.16840   4.18622   4.26640   4.33749   4.37789
 Alpha virt. eigenvalues --    4.60540   4.65854
          Condensed to atoms (all electrons):
               1          2          3          4          5          6
     1  Cl  16.808888   0.291507  -0.079284   0.004308   0.000337   0.000011
     2  C    0.291507   4.826943   0.392920  -0.061165  -0.034049   0.000623
     3  N   -0.079284   0.392920   6.803757   0.439919  -0.020011   0.004898
     4  C    0.004308  -0.061165   0.439919   4.794604   0.468808  -0.045999
     5  C    0.000337  -0.034049  -0.020011   0.468808   4.946361   0.344652
     6  C    0.000011   0.000623   0.004898  -0.045999   0.344652   4.974922
     7  C   -0.000000   0.000027  -0.000059  -0.002498  -0.047419   0.360591
     8  C    0.004308  -0.061166  -0.039853  -0.039572   0.468776  -0.045997
     9  N   -0.079276   0.392883  -0.052860  -0.039855  -0.020008   0.004897
    10  H   -0.000179   0.005445  -0.049596   0.394122  -0.068116  -0.003643
    11  H   -0.000000   0.000007  -0.000160   0.003299  -0.031620   0.379104
    12  H   -0.000000   0.000007   0.000069  -0.005465  -0.031619   0.379118
    13  H    0.000000  -0.000000   0.000002   0.000038   0.004389  -0.027307
    14  H   -0.000000  -0.000005  -0.000075   0.002851  -0.003793  -0.035237
    15  H   -0.000000  -0.000005  -0.000002  -0.000164  -0.003795  -0.035229
    16  H   -0.000179   0.005446  -0.000372   0.004072  -0.068121  -0.003642
               7          8          9         10         11         12
     1  Cl  -0.000000   0.004308  -0.079276  -0.000179  -0.000000  -0.000000
     2  C    0.000027  -0.061166   0.392883   0.005445   0.000007   0.000007
     3  N   -0.000059  -0.039853  -0.052860  -0.049596  -0.000160   0.000069
     4  C   -0.002498  -0.039572  -0.039855   0.394122   0.003299  -0.005465
     5  C   -0.047419   0.468776  -0.020008  -0.068116  -0.031620  -0.031619
     6  C    0.360591  -0.045997   0.004897  -0.003643   0.379104   0.379118
     7  C    4.919716  -0.002498  -0.000059   0.000442  -0.035780  -0.035779
     8  C   -0.002498   4.794571   0.439955   0.004072  -0.005465   0.003299
     9  N   -0.000059   0.439955   6.803755  -0.000372   0.000069  -0.000160
    10  H    0.000442   0.004072  -0.000372   0.595237  -0.000069   0.004081
    11  H   -0.035780  -0.005465   0.000069  -0.000069   0.612228  -0.037639
    12  H   -0.035779   0.003299  -0.000160   0.004081  -0.037639   0.612200
    13  H    0.377431   0.000038   0.000002  -0.000035  -0.003265  -0.003265
    14  H    0.388711  -0.000164  -0.000002   0.000370   0.005242  -0.004664
    15  H    0.388708   0.002851  -0.000075   0.000014  -0.004664   0.005241
    16  H    0.000442   0.394121  -0.049599  -0.000173   0.004082  -0.000069
              13         14         15         16
     1  Cl   0.000000  -0.000000  -0.000000  -0.000179
     2  C   -0.000000  -0.000005  -0.000005   0.005446
     3  N    0.000002  -0.000075  -0.000002  -0.000372
     4  C    0.000038   0.002851  -0.000164   0.004072
     5  C    0.004389  -0.003793  -0.003795  -0.068121
     6  C   -0.027307  -0.035237  -0.035229  -0.003642
     7  C    0.377431   0.388711   0.388708   0.000442
     8  C    0.000038  -0.000164   0.002851   0.394121
     9  N    0.000002  -0.000002  -0.000075  -0.049599
    10  H   -0.000035   0.000370   0.000014  -0.000173
    11  H   -0.003265   0.005242  -0.004664   0.004082
    12  H   -0.003265  -0.004664   0.005241  -0.000069
    13  H    0.598099  -0.029992  -0.029999  -0.000035
    14  H   -0.029992   0.592857  -0.031902   0.000014
    15  H   -0.029999  -0.031902   0.592866   0.000370
    16  H   -0.000035   0.000014   0.000370   0.595246
 Mulliken charges:
               1
     1  Cl   0.049557
     2  C    0.240582
     3  N   -0.399293
     4  C    0.082698
     5  C    0.095226
     6  C   -0.251763
     7  C   -0.311978
     8  C    0.082723
     9  N   -0.399298
    10  H    0.118400
    11  H    0.114632
    12  H    0.114645
    13  H    0.113899
    14  H    0.115790
    15  H    0.115783
    16  H    0.118397
 Sum of Mulliken charges =  -0.00000
 Mulliken charges with hydrogens summed into heavy atoms:
               1
     1  Cl   0.049557
     2  C    0.240582
     3  N   -0.399293
     4  C    0.201098
     5  C    0.095226
     6  C   -0.022487
     7  C    0.033494
     8  C    0.201119
     9  N   -0.399298
 Electronic spatial extent (au):  <R**2>=           1743.8722
 Charge=             -0.0000 electrons
 Dipole moment (field-independent basis, Debye):
    X=              4.2565    Y=              0.0001    Z=             -0.3834  Tot=              4.2737
 Quadrupole moment (field-independent basis, Debye-Ang):
   XX=            -56.8842   YY=            -60.6507   ZZ=            -59.3676
   XY=              0.0001   XZ=             -0.6894   YZ=             -0.0001
 Traceless Quadrupole moment (field-independent basis, Debye-Ang):
   XX=              2.0833   YY=             -1.6832   ZZ=             -0.4001
   XY=              0.0001   XZ=             -0.6894   YZ=             -0.0001
 Octapole moment (field-independent basis, Debye-Ang**2):
  XXX=              0.9002  YYY=              0.0012  ZZZ=              1.1092  XYY=             10.4116
  XXY=             -0.0001  XXZ=             -0.5712  XZZ=             -3.6527  YZZ=             -0.0002
  YYZ=             -1.0385  XYZ=              0.0002
 Hexadecapole moment (field-independent basis, Debye-Ang**3):
 XXXX=          -1782.2229 YYYY=           -291.7639 ZZZZ=           -132.7732 XXXY=             -0.0012
 XXXZ=            -12.1478 YYYX=              0.0011 YYYZ=              0.0003 ZZZX=             -3.0221
 ZZZY=              0.0006 XXYY=           -365.6175 XXZZ=           -333.8190 YYZZ=            -70.7452
 XXYZ=             -0.0019 YYXZ=             -3.1736 ZZXY=             -0.0003
 N-N= 4.789111978372D+02 E-N=-2.845178069770D+03  KE= 7.976840482294D+02
 Calling FoFJK, ICntrl=      2127 FMM=F ISym2X=0 I1Cent= 0 IOpClX= 0 NMat=1 NMatS=1 NMatT=0.
 ***** Axes restored to original set *****
 -------------------------------------------------------------------
 Center     Atomic                   Forces (Hartrees/Bohr)
 Number     Number              X              Y              Z
 -------------------------------------------------------------------
      1       17           0.003835754    0.001339580   -0.000605432
      2        6          -0.048337947   -0.018121902    0.008042376
      3        7           0.000561901   -0.004414655   -0.013688847
      4        6           0.024024811    0.003931738   -0.020403548
      5        6          -0.008209654   -0.005491615    0.002284792
      6        6           0.005721885    0.003773364   -0.001616855
      7        6          -0.000877511   -0.001335568    0.000506657
      8        6           0.024818438    0.015974254    0.011670532
      9        7           0.001272577    0.005718021    0.013169224
     10        1          -0.001116601    0.000517072    0.004649366
     11        1          -0.000445787   -0.001164490   -0.003245701
     12        1          -0.000280335    0.001264857    0.003261340
     13        1          -0.002123286   -0.001644572    0.000679090
     14        1           0.001287562    0.001837237    0.001338258
     15        1           0.001204987    0.000470190   -0.002252679
     16        1          -0.001336794   -0.002653513   -0.003788572
 -------------------------------------------------------------------
 Cartesian Forces:  Max     0.048337947 RMS     0.010631005

 GradGradGradGradGradGradGradGradGradGradGradGradGradGradGradGradGradGrad
 Berny optimization.
 FormGI is forming the generalized inverse of G from B-inverse, IUseBI=4.
 Internal  Forces:  Max     0.027773335 RMS     0.006892129
 Search for a local minimum.
 Step number   1 out of a maximum of   83
 All quantities printed in internal units (Hartrees-Bohrs-Radians)
 Mixed Optimization -- RFO/linear search
 Second derivative matrix not updated -- first step.
 ITU=  0
     Eigenvalues ---    0.00301   0.00511   0.01418   0.02113   0.02141
     Eigenvalues ---    0.02151   0.02207   0.02231   0.02235   0.03994
     Eigenvalues ---    0.05297   0.05418   0.05449   0.09361   0.12829
     Eigenvalues ---    0.16000   0.16000   0.16000   0.16000   0.16000
     Eigenvalues ---    0.21876   0.23167   0.23431   0.25000   0.25000
     Eigenvalues ---    0.25000   0.28953   0.30438   0.33084   0.34616
     Eigenvalues ---    0.34624   0.34717   0.34721   0.34760   0.35938
     Eigenvalues ---    0.35938   0.43339   0.44759   0.50150   0.51140
     Eigenvalues ---    0.53139   0.53295
 RFO step:  Lambda=-8.02047449D-03 EMin= 3.01019630D-03
 Linear search not attempted -- first point.
 Iteration  1 RMS(Cart)=  0.02440553 RMS(Int)=  0.00035070
 Iteration  2 RMS(Cart)=  0.00039427 RMS(Int)=  0.00008832
 Iteration  3 RMS(Cart)=  0.00000018 RMS(Int)=  0.00008832
 Variable       Old X    -DE/DX   Delta X   Delta X   Delta X     New X
                                 (Linear)    (Quad)   (Total)
    R1        3.25904   0.00411   0.00000   0.01212   0.01212   3.27116
    R2        2.56853  -0.02776   0.00000  -0.05353  -0.05339   2.51513
    R3        2.56861  -0.02777   0.00000  -0.05357  -0.05343   2.51518
    R4        2.56684  -0.02291   0.00000  -0.04233  -0.04233   2.52451
    R5        2.64369  -0.00581   0.00000  -0.01021  -0.01034   2.63335
    R6        2.04179   0.00473   0.00000   0.01287   0.01287   2.05466
    R7        2.87098  -0.00547   0.00000  -0.01750  -0.01750   2.85348
    R8        2.64374  -0.00582   0.00000  -0.01023  -0.01036   2.63338
    R9        2.90101  -0.00016   0.00000  -0.00054  -0.00054   2.90047
   R10        2.06302   0.00276   0.00000   0.00778   0.00778   2.07081
   R11        2.06290   0.00279   0.00000   0.00789   0.00789   2.07079
   R12        2.06066   0.00266   0.00000   0.00747   0.00747   2.06813
   R13        2.06130   0.00238   0.00000   0.00671   0.00671   2.06801
   R14        2.06137   0.00236   0.00000   0.00665   0.00665   2.06801
   R15        2.56675  -0.02289   0.00000  -0.04228  -0.04228   2.52447
   R16        2.04178   0.00473   0.00000   0.01288   0.01288   2.05466
    A1        2.04955  -0.00849   0.00000  -0.02893  -0.02906   2.02049
    A2        2.04957  -0.00851   0.00000  -0.02898  -0.02910   2.02047
    A3        2.18407   0.01700   0.00000   0.05791   0.05814   2.24221
    A4        2.03752  -0.00714   0.00000  -0.03395  -0.03377   2.00375
    A5        2.13643   0.00287   0.00000   0.01714   0.01701   2.15344
    A6        2.02849  -0.00208   0.00000  -0.01244  -0.01238   2.01611
    A7        2.11826  -0.00078   0.00000  -0.00469  -0.00463   2.11363
    A8        2.12435   0.00423   0.00000   0.01212   0.01220   2.13655
    A9        2.03439  -0.00845   0.00000  -0.02428  -0.02461   2.00979
   A10        2.12442   0.00421   0.00000   0.01206   0.01214   2.13656
   A11        1.95948   0.00110   0.00000   0.00142   0.00141   1.96089
   A12        1.90798  -0.00031   0.00000  -0.00211  -0.00213   1.90586
   A13        1.90806  -0.00031   0.00000  -0.00219  -0.00220   1.90586
   A14        1.92338  -0.00097   0.00000  -0.00725  -0.00725   1.91613
   A15        1.92340  -0.00096   0.00000  -0.00726  -0.00727   1.91614
   A16        1.83751   0.00147   0.00000   0.01844   0.01844   1.85595
   A17        1.93876  -0.00053   0.00000  -0.00140  -0.00140   1.93736
   A18        1.94316  -0.00099   0.00000  -0.00680  -0.00683   1.93634
   A19        1.94324  -0.00101   0.00000  -0.00687  -0.00690   1.93634
   A20        1.87843   0.00102   0.00000   0.00769   0.00769   1.88612
   A21        1.87832   0.00103   0.00000   0.00776   0.00776   1.88609
   A22        1.87888   0.00065   0.00000   0.00061   0.00055   1.87944
   A23        2.13646   0.00286   0.00000   0.01712   0.01699   2.15345
   A24        2.11822  -0.00078   0.00000  -0.00468  -0.00462   2.11361
   A25        2.02850  -0.00208   0.00000  -0.01243  -0.01237   2.01613
   A26        2.03750  -0.00714   0.00000  -0.03394  -0.03376   2.00374
    D1       -3.14128   0.00016   0.00000   0.00525   0.00525  -3.13603
    D2        0.00094  -0.00009   0.00000  -0.00249  -0.00255  -0.00161
    D3        3.14133  -0.00016   0.00000  -0.00532  -0.00532   3.13601
    D4       -0.00089   0.00009   0.00000   0.00243   0.00249   0.00159
    D5        0.00071   0.00000   0.00000   0.00065   0.00057   0.00128
    D6       -3.13752  -0.00015   0.00000  -0.00450  -0.00455   3.14111
    D7       -3.13835   0.00053   0.00000   0.02089   0.02080  -3.11755
    D8       -0.00222   0.00011   0.00000   0.00109   0.00116  -0.00106
    D9       -0.00029   0.00068   0.00000   0.02629   0.02619   0.02590
   D10        3.13584   0.00026   0.00000   0.00649   0.00654  -3.14080
   D11        1.56805  -0.00024   0.00000  -0.01049  -0.01061   1.55744
   D12       -2.57509  -0.00094   0.00000  -0.02027  -0.02039  -2.59548
   D13       -0.57206   0.00046   0.00000  -0.00063  -0.00075  -0.57282
   D14       -1.56779   0.00024   0.00000   0.01044   0.01056  -1.55723
   D15        0.57225  -0.00046   0.00000   0.00066   0.00078   0.57303
   D16        2.57528   0.00095   0.00000   0.02030   0.02042   2.59570
   D17        0.00227  -0.00011   0.00000  -0.00116  -0.00123   0.00104
   D18       -3.13601  -0.00025   0.00000  -0.00630  -0.00635   3.14082
   D19        3.13840  -0.00053   0.00000  -0.02096  -0.02087   3.11753
   D20        0.00011  -0.00068   0.00000  -0.02610  -0.02599  -0.02588
   D21        3.14154   0.00000   0.00000   0.00005   0.00005   3.14159
   D22       -1.04843   0.00027   0.00000   0.00428   0.00426  -1.04416
   D23        1.04840  -0.00026   0.00000  -0.00422  -0.00421   1.04419
   D24        1.01023   0.00033   0.00000   0.00696   0.00695   1.01718
   D25        3.10345   0.00059   0.00000   0.01118   0.01116   3.11461
   D26       -1.08291   0.00006   0.00000   0.00268   0.00269  -1.08022
   D27       -1.01023  -0.00033   0.00000  -0.00696  -0.00696  -1.01718
   D28        1.08300  -0.00006   0.00000  -0.00273  -0.00274   1.08025
   D29       -3.10336  -0.00059   0.00000  -0.01124  -0.01122  -3.11458
   D30       -0.00081   0.00000   0.00000  -0.00052  -0.00043  -0.00124
   D31        3.13764   0.00014   0.00000   0.00438   0.00443  -3.14112
         Item               Value     Threshold  Converged?
 Maximum Force            0.027773     0.000450     NO 
 RMS     Force            0.006892     0.000300     NO 
 Maximum Displacement     0.116685     0.001800     NO 
 RMS     Displacement     0.024347     0.001200     NO 
 Predicted change in Energy=-4.110823D-03
 GradGradGradGradGradGradGradGradGradGradGradGradGradGradGradGradGradGrad

                          Input orientation:                          
 ---------------------------------------------------------------------
 Center     Atomic      Atomic             Coordinates (Angstroms)
 Number     Number       Type             X           Y           Z
 ---------------------------------------------------------------------
      1         17           0        4.229633    1.264329   -0.583561
      2          6           0        2.633953    0.650753   -0.311942
      3          7           0        2.130613    0.864686    0.901447
      4          6           0        0.901391    0.377568    1.092212
      5          6           0        0.186372   -0.305449    0.110321
      6          6           0       -1.214344   -0.820597    0.339906
      7          6           0       -2.284915    0.217363   -0.023858
      8          6           0        0.845439   -0.451175   -1.108822
      9          7           0        2.073569    0.020195   -1.341439
     10          1           0        0.479139    0.545515    2.079973
     11          1           0       -1.364700   -1.731241   -0.250813
     12          1           0       -1.323041   -1.113109    1.390351
     13          1           0       -3.290236   -0.178345    0.150698
     14          1           0       -2.168870    1.125569    0.575544
     15          1           0       -2.210858    0.502869   -1.077705
     16          1           0        0.376854   -0.968931   -1.942211
 ---------------------------------------------------------------------
                    Distance matrix (angstroms):
                    1          2          3          4          5
     1  Cl   0.000000
     2  C    1.731025   0.000000
     3  N    2.602085   1.330952   0.000000
     4  C    3.830372   2.246787   1.335912   0.000000
     5  C    4.392452   2.661443   2.403158   1.393511   0.000000
     6  C    5.902253   4.171230   3.787379   2.545171   1.509997
     7  C    6.621838   4.946320   4.557642   3.379914   2.529545
     8  C    3.830356   2.246786   2.724765   2.352550   1.393526
     9  N    2.602087   1.330976   2.397281   2.724770   2.403157
    10  H    4.655889   3.221111   2.053815   1.087278   2.165498
    11  H    6.354583   4.654768   4.503749   3.374309   2.137552
    12  H    6.354583   4.654762   4.009791   2.694272   2.137549
    13  H    7.692131   5.999788   5.571099   4.331884   3.479165
    14  H    6.504123   4.907157   4.319702   3.202023   2.794890
    15  H    6.504147   4.907184   4.785011   3.796094   2.794906
    16  H    4.655887   3.221125   3.811064   3.360940   2.165497
                    6          7          8          9         10
     6  C    0.000000
     7  C    1.534864   0.000000
     8  C    2.545189   3.379823   0.000000
     9  N    3.787377   4.557552   1.335892   0.000000
    10  H    2.786033   3.489095   3.360949   3.811066   0.000000
    11  H    1.095824   2.166878   2.694339   4.009825   3.743785
    12  H    1.095816   2.166874   3.374362   4.503778   2.544497
    13  H    2.181196   1.094406   4.331816   5.571023   4.295843
    14  H    2.180415   1.094343   3.795954   4.784868   3.100278
    15  H    2.180419   1.094346   3.201893   4.319589   4.148353
    16  H    2.786031   3.488895   1.087281   2.053811   4.299066
                   11         12         13         14         15
    11  H    0.000000
    12  H    1.754207   0.000000
    13  H    2.506070   2.506068   0.000000
    14  H    3.080734   2.528046   1.771482   0.000000
    15  H    2.528040   3.080731   1.771464   1.767130   0.000000
    16  H    2.544594   3.743848   4.295677   4.148100   3.099971
                   16
    16  H    0.000000
 Stoichiometry    C6H7ClN2
 Framework group  C1[X(C6H7ClN2)]
 Deg. of freedom    42
 Full point group                 C1      NOp   1
 Largest Abelian subgroup         C1      NOp   1
 Largest concise Abelian subgroup C1      NOp   1
                         Standard orientation:                         
 ---------------------------------------------------------------------
 Center     Atomic      Atomic             Coordinates (Angstroms)
 Number     Number       Type             X           Y           Z
 ---------------------------------------------------------------------
      1         17           0       -3.073902   -0.000039    0.208105
      2          6           0       -1.356034    0.000010   -0.004914
      3          7           0       -0.782371    1.198650   -0.079774
      4          6           0        0.542364    1.176312   -0.250772
      5          6           0        1.283315    0.000055   -0.347132
      6          6           0        2.784505    0.000084   -0.509987
      7          6           0        3.517877   -0.000120    0.838335
      8          6           0        0.542383   -1.176239   -0.250876
      9          7           0       -0.782328   -1.198631   -0.079863
     10          1           0        1.022914    2.149583   -0.313934
     11          1           0        3.083503   -0.876934   -1.095025
     12          1           0        3.083500    0.877274   -1.094755
     13          1           0        4.602820   -0.000100    0.694730
     14          1           0        3.253513    0.883347    1.427560
     15          1           0        3.253541   -0.883784    1.427281
     16          1           0        1.022982   -2.149483   -0.314109
 ---------------------------------------------------------------------
 Rotational constants (GHZ):           4.6261784           0.7000576           0.6442616
 Standard basis: 6-31G(d,p) (6D, 7F)
 There are   174 symmetry adapted cartesian basis functions of A   symmetry.
 There are   174 symmetry adapted basis functions of A   symmetry.
   174 basis functions,   325 primitive gaussians,   174 cartesian basis functions
    37 alpha electrons       37 beta electrons
       nuclear repulsion energy       483.4636625044 Hartrees.
 NAtoms=   16 NActive=   16 NUniq=   16 SFac= 1.00D+00 NAtFMM=   60 NAOKFM=F Big=F
 Integral buffers will be    131072 words long.
 Raffenetti 2 integral format.
 Two-electron integral symmetry is turned on.
 Nuclear repulsion after empirical dispersion term =      483.4345213207 Hartrees.
 One-electron integrals computed using PRISM.
 NBasis=   174 RedAO= T EigKep=  1.19D-03  NBF=   174
 NBsUse=   174 1.00D-06 EigRej= -1.00D+00 NBFU=   174
 Initial guess from the checkpoint file:  "pyrmd3_conf-1.chk"
 B after Tr=     0.000000   -0.000000   -0.000000
         Rot=    1.000000   -0.000011   -0.000111   -0.000000 Ang=  -0.01 deg.
 ExpMin= 1.43D-01 ExpMax= 2.52D+04 ExpMxC= 3.78D+03 IAcc=3 IRadAn=         5 AccDes= 0.00D+00
 Harris functional with IExCor=  402 and IRadAn=       5 diagonalized for initial guess.
 HarFok:  IExCor=  402 AccDes= 0.00D+00 IRadAn=         5 IDoV= 1 UseB2=F ITyADJ=14
 ICtDFT=  3500011 ScaDFX=  1.000000  1.000000  1.000000  1.000000
 FoFCou: FMM=F IPFlag=           0 FMFlag=      100000 FMFlg1=           0
         NFxFlg=           0 DoJE=T BraDBF=F KetDBF=T FulRan=T
         wScrn=  0.000000 ICntrl=       500 IOpCl=  0 I1Cent=   200000004 NGrid=           0
         NMat0=    1 NMatS0=      1 NMatT0=    0 NMatD0=    1 NMtDS0=    0 NMtDT0=    0
 Petite list used in FoFCou.
 Requested convergence on RMS density matrix=1.00D-08 within 128 cycles.
 Requested convergence on MAX density matrix=1.00D-06.
 Requested convergence on             energy=1.00D-06.
 No special actions if energy rises.
 Integral accuracy reduced to 1.0D-05 until final iterations.
 Initial convergence to 1.0D-05 achieved.  Increase integral accuracy.
 SCF Done:  E(RB3LYP) =  -802.591477828     A.U. after   12 cycles
            NFock= 12  Conv=0.44D-08     -V/T= 2.0058
 Calling FoFJK, ICntrl=      2127 FMM=F ISym2X=0 I1Cent= 0 IOpClX= 0 NMat=1 NMatS=1 NMatT=0.
 ***** Axes restored to original set *****
 -------------------------------------------------------------------
 Center     Atomic                   Forces (Hartrees/Bohr)
 Number     Number              X              Y              Z
 -------------------------------------------------------------------
      1       17           0.009057677    0.003680215   -0.001615567
      2        6          -0.004196042   -0.002028820    0.000859331
      3        7           0.000751153   -0.000956837   -0.004033441
      4        6           0.000606714    0.001506603    0.002221978
      5        6          -0.005977366   -0.002880259    0.001235270
      6        6           0.002200052   -0.000325742    0.000061627
      7        6          -0.001194715    0.000521594   -0.000169148
      8        6           0.000465259   -0.000343343   -0.002683956
      9        7           0.000960366    0.001933549    0.003632290
     10        1          -0.001447774   -0.000687497    0.000833080
     11        1          -0.000170366    0.000223707   -0.000282948
     12        1          -0.000161150    0.000356543    0.000076627
     13        1           0.000306566   -0.000103306    0.000032786
     14        1           0.000133144    0.000065396   -0.000049910
     15        1           0.000135930    0.000080220   -0.000010422
     16        1          -0.001469448   -0.001042021   -0.000107598
 -------------------------------------------------------------------
 Cartesian Forces:  Max     0.009057677 RMS     0.002191814

 GradGradGradGradGradGradGradGradGradGradGradGradGradGradGradGradGradGrad
 Berny optimization.
 Using GEDIIS/GDIIS optimizer.
 FormGI is forming the generalized inverse of G from B-inverse, IUseBI=4.
 Internal  Forces:  Max     0.009907427 RMS     0.001635331
 Search for a local minimum.
 Step number   2 out of a maximum of   83
 All quantities printed in internal units (Hartrees-Bohrs-Radians)
 Mixed Optimization -- RFO/linear search
 Update second derivatives using D2CorX and points    1    2
 DE= -3.85D-03 DEPred=-4.11D-03 R= 9.37D-01
 TightC=F SS=  1.41D+00  RLast= 1.56D-01 DXNew= 5.0454D-01 4.6751D-01
 Trust test= 9.37D-01 RLast= 1.56D-01 DXMaxT set to 4.68D-01
 ITU=  1  0
 Use linear search instead of GDIIS.
     Eigenvalues ---    0.00301   0.00511   0.01406   0.02110   0.02141
     Eigenvalues ---    0.02150   0.02206   0.02233   0.02235   0.04035
     Eigenvalues ---    0.05331   0.05473   0.05498   0.09309   0.12809
     Eigenvalues ---    0.15933   0.16000   0.16000   0.16000   0.16065
     Eigenvalues ---    0.21907   0.22962   0.23160   0.24991   0.25000
     Eigenvalues ---    0.26985   0.28974   0.29948   0.32054   0.34620
     Eigenvalues ---    0.34656   0.34719   0.34739   0.34879   0.35867
     Eigenvalues ---    0.35938   0.42569   0.44709   0.50184   0.50559
     Eigenvalues ---    0.53136   0.59233
 RFO step:  Lambda=-5.44075989D-04 EMin= 3.01019630D-03
 Quartic linear search produced a step of -0.05596.
 Iteration  1 RMS(Cart)=  0.01102284 RMS(Int)=  0.00005126
 Iteration  2 RMS(Cart)=  0.00007125 RMS(Int)=  0.00001264
 Iteration  3 RMS(Cart)=  0.00000000 RMS(Int)=  0.00001264
 Variable       Old X    -DE/DX   Delta X   Delta X   Delta X     New X
                                 (Linear)    (Quad)   (Total)
    R1        3.27116   0.00991  -0.00068   0.02976   0.02908   3.30024
    R2        2.51513  -0.00088   0.00299  -0.00853  -0.00555   2.50958
    R3        2.51518  -0.00089   0.00299  -0.00856  -0.00558   2.50960
    R4        2.52451   0.00355   0.00237   0.00100   0.00337   2.52788
    R5        2.63335   0.00247   0.00058   0.00412   0.00471   2.63806
    R6        2.05466   0.00121  -0.00072   0.00481   0.00409   2.05874
    R7        2.85348  -0.00149   0.00098  -0.00684  -0.00586   2.84762
    R8        2.63338   0.00246   0.00058   0.00411   0.00470   2.63808
    R9        2.90047   0.00086   0.00003   0.00273   0.00276   2.90323
   R10        2.07081  -0.00001  -0.00044   0.00096   0.00052   2.07133
   R11        2.07079  -0.00001  -0.00044   0.00098   0.00054   2.07133
   R12        2.06813  -0.00024  -0.00042   0.00030  -0.00012   2.06801
   R13        2.06801   0.00004  -0.00038   0.00096   0.00058   2.06859
   R14        2.06801   0.00004  -0.00037   0.00095   0.00058   2.06859
   R15        2.52447   0.00356   0.00237   0.00103   0.00339   2.52786
   R16        2.05466   0.00121  -0.00072   0.00481   0.00408   2.05875
    A1        2.02049   0.00174   0.00163   0.00338   0.00499   2.02548
    A2        2.02047   0.00175   0.00163   0.00338   0.00499   2.02546
    A3        2.24221  -0.00349  -0.00325  -0.00668  -0.00997   2.23224
    A4        2.00375   0.00308   0.00189   0.00650   0.00838   2.01213
    A5        2.15344  -0.00029  -0.00095   0.00171   0.00078   2.15422
    A6        2.01611   0.00149   0.00069   0.00652   0.00721   2.02332
    A7        2.11363  -0.00120   0.00026  -0.00824  -0.00800   2.10563
    A8        2.13655   0.00104  -0.00068   0.00472   0.00400   2.14056
    A9        2.00979  -0.00208   0.00138  -0.00973  -0.00834   2.00144
   A10        2.13656   0.00104  -0.00068   0.00470   0.00399   2.14055
   A11        1.96089   0.00002  -0.00008  -0.00045  -0.00053   1.96036
   A12        1.90586   0.00010   0.00012   0.00057   0.00069   1.90655
   A13        1.90586   0.00010   0.00012   0.00056   0.00068   1.90654
   A14        1.91613  -0.00022   0.00041  -0.00312  -0.00272   1.91342
   A15        1.91614  -0.00022   0.00041  -0.00313  -0.00272   1.91342
   A16        1.85595   0.00023  -0.00103   0.00596   0.00492   1.86087
   A17        1.93736  -0.00026   0.00008  -0.00141  -0.00133   1.93602
   A18        1.93634  -0.00003   0.00038  -0.00124  -0.00086   1.93548
   A19        1.93634  -0.00003   0.00039  -0.00125  -0.00086   1.93548
   A20        1.88612   0.00018  -0.00043   0.00238   0.00194   1.88806
   A21        1.88609   0.00018  -0.00043   0.00241   0.00197   1.88806
   A22        1.87944  -0.00002  -0.00003  -0.00068  -0.00071   1.87873
   A23        2.15345  -0.00029  -0.00095   0.00171   0.00077   2.15422
   A24        2.11361  -0.00119   0.00026  -0.00823  -0.00798   2.10562
   A25        2.01613   0.00149   0.00069   0.00652   0.00720   2.02333
   A26        2.00374   0.00308   0.00189   0.00650   0.00838   2.01213
    D1       -3.13603  -0.00028  -0.00029  -0.01054  -0.01083   3.13632
    D2       -0.00161   0.00004   0.00014   0.00164   0.00177   0.00016
    D3        3.13601   0.00028   0.00030   0.01055   0.01085  -3.13633
    D4        0.00159  -0.00004  -0.00014  -0.00163  -0.00175  -0.00016
    D5        0.00128  -0.00005  -0.00003  -0.00114  -0.00118   0.00010
    D6        3.14111  -0.00012   0.00025  -0.00540  -0.00518   3.13594
    D7       -3.11755   0.00018  -0.00116   0.01435   0.01318  -3.10437
    D8       -0.00106   0.00006  -0.00006   0.00080   0.00075  -0.00031
    D9        0.02590   0.00026  -0.00147   0.01882   0.01734   0.04323
   D10       -3.14080   0.00014  -0.00037   0.00528   0.00491  -3.13589
   D11        1.55744  -0.00009   0.00059  -0.00737  -0.00680   1.55065
   D12       -2.59548  -0.00028   0.00114  -0.01124  -0.01012  -2.60560
   D13       -0.57282   0.00011   0.00004  -0.00349  -0.00346  -0.57628
   D14       -1.55723   0.00009  -0.00059   0.00735   0.00678  -1.55044
   D15        0.57303  -0.00011  -0.00004   0.00349   0.00346   0.57649
   D16        2.59570   0.00028  -0.00114   0.01124   0.01012   2.60581
   D17        0.00104  -0.00006   0.00007  -0.00079  -0.00074   0.00031
   D18        3.14082  -0.00014   0.00036  -0.00528  -0.00493   3.13590
   D19        3.11753  -0.00018   0.00117  -0.01433  -0.01316   3.10437
   D20       -0.02588  -0.00026   0.00145  -0.01883  -0.01735  -0.04322
   D21        3.14159   0.00000  -0.00000   0.00001   0.00001  -3.14159
   D22       -1.04416   0.00004  -0.00024   0.00124   0.00100  -1.04316
   D23        1.04419  -0.00004   0.00024  -0.00125  -0.00102   1.04317
   D24        1.01718   0.00001  -0.00039   0.00179   0.00140   1.01858
   D25        3.11461   0.00005  -0.00062   0.00302   0.00239   3.11701
   D26       -1.08022  -0.00003  -0.00015   0.00052   0.00037  -1.07985
   D27       -1.01718  -0.00001   0.00039  -0.00179  -0.00140  -1.01858
   D28        1.08025   0.00003   0.00015  -0.00056  -0.00041   1.07984
   D29       -3.11458  -0.00005   0.00063  -0.00305  -0.00243  -3.11701
   D30       -0.00124   0.00005   0.00002   0.00112   0.00115  -0.00009
   D31       -3.14112   0.00012  -0.00025   0.00539   0.00517  -3.13595
         Item               Value     Threshold  Converged?
 Maximum Force            0.009907     0.000450     NO 
 RMS     Force            0.001635     0.000300     NO 
 Maximum Displacement     0.058618     0.001800     NO 
 RMS     Displacement     0.011046     0.001200     NO 
 Predicted change in Energy=-2.840618D-04
 GradGradGradGradGradGradGradGradGradGradGradGradGradGradGradGradGradGrad

                          Input orientation:                          
 ---------------------------------------------------------------------
 Center     Atomic      Atomic             Coordinates (Angstroms)
 Number     Number       Type             X           Y           Z
 ---------------------------------------------------------------------
      1         17           0        4.236962    1.295348   -0.595431
      2          6           0        2.637271    0.654007   -0.313257
      3          7           0        2.130291    0.862573    0.896325
      4          6           0        0.902140    0.370531    1.093741
      5          6           0        0.182718   -0.317254    0.114861
      6          6           0       -1.218450   -0.823500    0.341096
      7          6           0       -2.282867    0.221887   -0.025616
      8          6           0        0.846229   -0.457489   -1.105358
      9          7           0        2.073522    0.021972   -1.336178
     10          1           0        0.478277    0.530970    2.084437
     11          1           0       -1.374506   -1.731746   -0.252343
     12          1           0       -1.332754   -1.112324    1.392263
     13          1           0       -3.290345   -0.168913    0.147148
     14          1           0       -2.161282    1.129720    0.573819
     15          1           0       -2.203251    0.507024   -1.079475
     16          1           0        0.376043   -0.982806   -1.935931
 ---------------------------------------------------------------------
                    Distance matrix (angstroms):
                    1          2          3          4          5
     1  Cl   0.000000
     2  C    1.746412   0.000000
     3  N    2.617383   1.328012   0.000000
     4  C    3.850926   2.251817   1.337698   0.000000
     5  C    4.420622   2.674222   2.407430   1.396002   0.000000
     6  C    5.926898   4.180644   3.790143   2.547368   1.506897
     7  C    6.632133   4.947446   4.553726   3.379249   2.527749
     8  C    3.850913   2.251816   2.719947   2.350485   1.396011
     9  N    2.617378   1.328024   2.386190   2.719952   2.407432
    10  H    4.679068   3.228828   2.061728   1.089440   2.164734
    11  H    6.385106   4.667963   4.509271   3.378553   2.135549
    12  H    6.385104   4.667957   4.017320   2.698653   2.135544
    13  H    7.704274   6.002149   5.568530   4.331739   3.476379
    14  H    6.506313   4.902990   4.311958   3.198631   2.792618
    15  H    6.506312   4.902993   4.775960   3.792750   2.792619
    16  H    4.679062   3.228835   3.808475   3.359644   2.164735
                    6          7          8          9         10
     6  C    0.000000
     7  C    1.536325   0.000000
     8  C    2.547370   3.379148   0.000000
     9  N    3.790139   4.553643   1.337688   0.000000
    10  H    2.784369   3.488807   3.359648   3.808477   0.000000
    11  H    1.096099   2.166381   2.698709   4.017352   3.743425
    12  H    1.096102   2.166383   3.378593   4.509295   2.541527
    13  H    2.181478   1.094342   4.331662   5.568462   4.294815
    14  H    2.181321   1.094653   3.792623   4.775852   3.099636
    15  H    2.181318   1.094652   3.198481   4.311839   4.147471
    16  H    2.784355   3.488609   1.089442   2.061727   4.297130
                   11         12         13         14         15
    11  H    0.000000
    12  H    1.757884   0.000000
    13  H    2.504492   2.504495   0.000000
    14  H    3.080511   2.526474   1.772929   0.000000
    15  H    2.526471   3.080510   1.772927   1.767171   0.000000
    16  H    2.541613   3.743479   4.294652   4.147243   3.099333
                   16
    16  H    0.000000
 Stoichiometry    C6H7ClN2
 Framework group  C1[X(C6H7ClN2)]
 Deg. of freedom    42
 Full point group                 C1      NOp   1
 Largest Abelian subgroup         C1      NOp   1
 Largest concise Abelian subgroup C1      NOp   1
                         Standard orientation:                         
 ---------------------------------------------------------------------
 Center     Atomic      Atomic             Coordinates (Angstroms)
 Number     Number       Type             X           Y           Z
 ---------------------------------------------------------------------
      1         17           0       -3.088069   -0.000040    0.217932
      2          6           0       -1.357145    0.000008   -0.014139
      3          7           0       -0.778735    1.193108   -0.088773
      4          6           0        0.547808    1.175281   -0.260241
      5          6           0        1.294998    0.000056   -0.357062
      6          6           0        2.794782    0.000075   -0.503308
      7          6           0        3.513436   -0.000119    0.854569
      8          6           0        0.547833   -1.175203   -0.260336
      9          7           0       -0.778700   -1.193082   -0.088869
     10          1           0        1.032431    2.148616   -0.328362
     11          1           0        3.101192   -0.878782   -1.082236
     12          1           0        3.101187    0.879102   -1.081983
     13          1           0        4.599705   -0.000100    0.721886
     14          1           0        3.240968    0.883381    1.440618
     15          1           0        3.240971   -0.883790    1.440360
     16          1           0        1.032496   -2.148515   -0.328530
 ---------------------------------------------------------------------
 Rotational constants (GHZ):           4.6143012           0.6957037           0.6415026
 Standard basis: 6-31G(d,p) (6D, 7F)
 There are   174 symmetry adapted cartesian basis functions of A   symmetry.
 There are   174 symmetry adapted basis functions of A   symmetry.
   174 basis functions,   325 primitive gaussians,   174 cartesian basis functions
    37 alpha electrons       37 beta electrons
       nuclear repulsion energy       482.5229162891 Hartrees.
 NAtoms=   16 NActive=   16 NUniq=   16 SFac= 1.00D+00 NAtFMM=   60 NAOKFM=F Big=F
 Integral buffers will be    131072 words long.
 Raffenetti 2 integral format.
 Two-electron integral symmetry is turned on.
 Nuclear repulsion after empirical dispersion term =      482.4938011346 Hartrees.
 One-electron integrals computed using PRISM.
 NBasis=   174 RedAO= T EigKep=  1.20D-03  NBF=   174
 NBsUse=   174 1.00D-06 EigRej= -1.00D+00 NBFU=   174
 Initial guess from the checkpoint file:  "pyrmd3_conf-1.chk"
 B after Tr=    -0.000000   -0.000000    0.000000
         Rot=    1.000000    0.000001    0.000592    0.000000 Ang=   0.07 deg.
 ExpMin= 1.43D-01 ExpMax= 2.52D+04 ExpMxC= 3.78D+03 IAcc=3 IRadAn=         5 AccDes= 0.00D+00
 Harris functional with IExCor=  402 and IRadAn=       5 diagonalized for initial guess.
 HarFok:  IExCor=  402 AccDes= 0.00D+00 IRadAn=         5 IDoV= 1 UseB2=F ITyADJ=14
 ICtDFT=  3500011 ScaDFX=  1.000000  1.000000  1.000000  1.000000
 FoFCou: FMM=F IPFlag=           0 FMFlag=      100000 FMFlg1=           0
         NFxFlg=           0 DoJE=T BraDBF=F KetDBF=T FulRan=T
         wScrn=  0.000000 ICntrl=       500 IOpCl=  0 I1Cent=   200000004 NGrid=           0
         NMat0=    1 NMatS0=      1 NMatT0=    0 NMatD0=    1 NMtDS0=    0 NMtDT0=    0
 Petite list used in FoFCou.
 Requested convergence on RMS density matrix=1.00D-08 within 128 cycles.
 Requested convergence on MAX density matrix=1.00D-06.
 Requested convergence on             energy=1.00D-06.
 No special actions if energy rises.
 Integral accuracy reduced to 1.0D-05 until final iterations.
 Initial convergence to 1.0D-05 achieved.  Increase integral accuracy.
 SCF Done:  E(RB3LYP) =  -802.591792973     A.U. after   10 cycles
            NFock= 10  Conv=0.78D-08     -V/T= 2.0058
 Calling FoFJK, ICntrl=      2127 FMM=F ISym2X=0 I1Cent= 0 IOpClX= 0 NMat=1 NMatS=1 NMatT=0.
 ***** Axes restored to original set *****
 -------------------------------------------------------------------
 Center     Atomic                   Forces (Hartrees/Bohr)
 Number     Number              X              Y              Z
 -------------------------------------------------------------------
      1       17           0.002256438    0.000721047   -0.000328044
      2        6          -0.002837455   -0.000165200    0.000128537
      3        7           0.000294110   -0.000275296    0.000011838
      4        6           0.000283454    0.000516516    0.001576587
      5        6          -0.000966619    0.000087505   -0.000011418
      6        6           0.000876499   -0.000535290    0.000181839
      7        6          -0.000453297    0.000553564   -0.000196688
      8        6           0.000197260   -0.000656748   -0.001533636
      9        7           0.000302744   -0.000216426    0.000162867
     10        1          -0.000000021   -0.000099948   -0.000253259
     11        1          -0.000103009    0.000151148    0.000178839
     12        1          -0.000113578   -0.000002461   -0.000230995
     13        1           0.000298151    0.000017199   -0.000014012
     14        1          -0.000028068   -0.000148073   -0.000107423
     15        1          -0.000020896   -0.000039514    0.000178673
     16        1           0.000014285    0.000091976    0.000256295
 -------------------------------------------------------------------
 Cartesian Forces:  Max     0.002837455 RMS     0.000689426

 GradGradGradGradGradGradGradGradGradGradGradGradGradGradGradGradGradGrad
 Berny optimization.
 Using GEDIIS/GDIIS optimizer.
 FormGI is forming the generalized inverse of G from B-inverse, IUseBI=4.
 Internal  Forces:  Max     0.002384627 RMS     0.000373662
 Search for a local minimum.
 Step number   3 out of a maximum of   83
 All quantities printed in internal units (Hartrees-Bohrs-Radians)
 Mixed Optimization -- En-DIIS/RFO-DIIS
 Update second derivatives using D2CorX and points    1    2    3
 DE= -3.15D-04 DEPred=-2.84D-04 R= 1.11D+00
 TightC=F SS=  1.41D+00  RLast= 5.80D-02 DXNew= 7.8626D-01 1.7391D-01
 Trust test= 1.11D+00 RLast= 5.80D-02 DXMaxT set to 4.68D-01
 ITU=  1  1  0
 Use linear search instead of GDIIS.
     Eigenvalues ---    0.00301   0.00511   0.01419   0.02039   0.02141
     Eigenvalues ---    0.02149   0.02206   0.02231   0.02338   0.04051
     Eigenvalues ---    0.05359   0.05482   0.05514   0.09225   0.12798
     Eigenvalues ---    0.15659   0.16000   0.16000   0.16005   0.16048
     Eigenvalues ---    0.21935   0.23165   0.23297   0.24381   0.24979
     Eigenvalues ---    0.25000   0.28909   0.29617   0.30992   0.34619
     Eigenvalues ---    0.34644   0.34719   0.34738   0.34803   0.35938
     Eigenvalues ---    0.36202   0.42154   0.44685   0.50166   0.51375
     Eigenvalues ---    0.53136   0.58759
 RFO step:  Lambda=-5.35732076D-05 EMin= 3.01019629D-03
 Quartic linear search produced a step of  0.13235.
 Iteration  1 RMS(Cart)=  0.00389905 RMS(Int)=  0.00003046
 Iteration  2 RMS(Cart)=  0.00002671 RMS(Int)=  0.00002270
 Iteration  3 RMS(Cart)=  0.00000000 RMS(Int)=  0.00002270
 Variable       Old X    -DE/DX   Delta X   Delta X   Delta X     New X
                                 (Linear)    (Quad)   (Total)
    R1        3.30024   0.00238   0.00385   0.00744   0.01128   3.31152
    R2        2.50958   0.00016  -0.00074  -0.00039  -0.00111   2.50846
    R3        2.50960   0.00015  -0.00074  -0.00040  -0.00113   2.50847
    R4        2.52788   0.00001   0.00045  -0.00073  -0.00028   2.52760
    R5        2.63806   0.00101   0.00062   0.00230   0.00292   2.64098
    R6        2.05874  -0.00024   0.00054  -0.00071  -0.00017   2.05857
    R7        2.84762  -0.00042  -0.00078  -0.00167  -0.00244   2.84518
    R8        2.63808   0.00101   0.00062   0.00230   0.00291   2.64099
    R9        2.90323   0.00044   0.00037   0.00162   0.00198   2.90521
   R10        2.07133  -0.00021   0.00007  -0.00058  -0.00051   2.07082
   R11        2.07133  -0.00021   0.00007  -0.00058  -0.00051   2.07082
   R12        2.06801  -0.00028  -0.00002  -0.00081  -0.00082   2.06718
   R13        2.06859  -0.00018   0.00008  -0.00052  -0.00044   2.06815
   R14        2.06859  -0.00018   0.00008  -0.00052  -0.00044   2.06815
   R15        2.52786   0.00002   0.00045  -0.00072  -0.00027   2.52759
   R16        2.05875  -0.00025   0.00054  -0.00071  -0.00017   2.05857
    A1        2.02548  -0.00022   0.00066  -0.00145  -0.00091   2.02457
    A2        2.02546  -0.00022   0.00066  -0.00144  -0.00090   2.02456
    A3        2.23224   0.00044  -0.00132   0.00302   0.00161   2.23384
    A4        2.01213   0.00005   0.00111  -0.00073   0.00038   2.01251
    A5        2.15422  -0.00044   0.00010  -0.00173  -0.00164   2.15258
    A6        2.02332   0.00034   0.00095   0.00143   0.00239   2.02571
    A7        2.10563   0.00010  -0.00106   0.00030  -0.00075   2.10488
    A8        2.14056  -0.00016   0.00053  -0.00086  -0.00033   2.14023
    A9        2.00144   0.00033  -0.00110   0.00190   0.00078   2.00222
   A10        2.14055  -0.00016   0.00053  -0.00086  -0.00033   2.14022
   A11        1.96036  -0.00025  -0.00007  -0.00113  -0.00120   1.95916
   A12        1.90655   0.00016   0.00009   0.00143   0.00152   1.90807
   A13        1.90654   0.00016   0.00009   0.00144   0.00153   1.90806
   A14        1.91342   0.00000  -0.00036  -0.00055  -0.00091   1.91251
   A15        1.91342   0.00000  -0.00036  -0.00054  -0.00090   1.91251
   A16        1.86087  -0.00007   0.00065  -0.00060   0.00004   1.86092
   A17        1.93602  -0.00015  -0.00018  -0.00118  -0.00136   1.93467
   A18        1.93548   0.00004  -0.00011   0.00026   0.00014   1.93562
   A19        1.93548   0.00004  -0.00011   0.00026   0.00015   1.93562
   A20        1.88806   0.00005   0.00026   0.00027   0.00053   1.88859
   A21        1.88806   0.00005   0.00026   0.00027   0.00053   1.88859
   A22        1.87873  -0.00002  -0.00009   0.00016   0.00007   1.87880
   A23        2.15422  -0.00044   0.00010  -0.00173  -0.00164   2.15258
   A24        2.10562   0.00010  -0.00106   0.00031  -0.00074   2.10488
   A25        2.02333   0.00034   0.00095   0.00143   0.00238   2.02571
   A26        2.01213   0.00005   0.00111  -0.00073   0.00039   2.01251
    D1        3.13632   0.00027  -0.00143   0.01396   0.01252  -3.13434
    D2        0.00016  -0.00031   0.00023  -0.01614  -0.01591  -0.01575
    D3       -3.13633  -0.00027   0.00144  -0.01395  -0.01252   3.13434
    D4       -0.00016   0.00031  -0.00023   0.01614   0.01591   0.01575
    D5        0.00010   0.00007  -0.00016   0.00322   0.00306   0.00315
    D6        3.13594   0.00010  -0.00069   0.00464   0.00395   3.13989
    D7       -3.10437   0.00005   0.00174   0.00176   0.00350  -3.10087
    D8       -0.00031   0.00012   0.00010   0.00716   0.00726   0.00696
    D9        0.04323   0.00002   0.00229   0.00027   0.00256   0.04579
   D10       -3.13589   0.00009   0.00065   0.00567   0.00632  -3.12957
   D11        1.55065   0.00004  -0.00090   0.00294   0.00203   1.55268
   D12       -2.60560  -0.00001  -0.00134   0.00249   0.00115  -2.60446
   D13       -0.57628   0.00009  -0.00046   0.00338   0.00291  -0.57337
   D14       -1.55044  -0.00004   0.00090  -0.00295  -0.00205  -1.55249
   D15        0.57649  -0.00009   0.00046  -0.00340  -0.00293   0.57356
   D16        2.60581   0.00001   0.00134  -0.00251  -0.00117   2.60465
   D17        0.00031  -0.00012  -0.00010  -0.00716  -0.00726  -0.00695
   D18        3.13590  -0.00009  -0.00065  -0.00569  -0.00634   3.12956
   D19        3.10437  -0.00005  -0.00174  -0.00176  -0.00350   3.10087
   D20       -0.04322  -0.00002  -0.00230  -0.00028  -0.00257  -0.04580
   D21       -3.14159  -0.00000   0.00000  -0.00001  -0.00001   3.14159
   D22       -1.04316  -0.00002   0.00013  -0.00028  -0.00015  -1.04331
   D23        1.04317   0.00002  -0.00013   0.00026   0.00012   1.04330
   D24        1.01858  -0.00004   0.00019  -0.00068  -0.00050   1.01808
   D25        3.11701  -0.00006   0.00032  -0.00095  -0.00064   3.11637
   D26       -1.07985  -0.00003   0.00005  -0.00042  -0.00037  -1.08021
   D27       -1.01858   0.00004  -0.00019   0.00068   0.00049  -1.01809
   D28        1.07984   0.00003  -0.00005   0.00041   0.00035   1.08020
   D29       -3.11701   0.00006  -0.00032   0.00095   0.00063  -3.11638
   D30       -0.00009  -0.00007   0.00015  -0.00322  -0.00306  -0.00316
   D31       -3.13595  -0.00010   0.00068  -0.00463  -0.00394  -3.13989
         Item               Value     Threshold  Converged?
 Maximum Force            0.002385     0.000450     NO 
 RMS     Force            0.000374     0.000300     NO 
 Maximum Displacement     0.018132     0.001800     NO 
 RMS     Displacement     0.003898     0.001200     NO 
 Predicted change in Energy=-3.113531D-05
 GradGradGradGradGradGradGradGradGradGradGradGradGradGradGradGradGradGrad

                          Input orientation:                          
 ---------------------------------------------------------------------
 Center     Atomic      Atomic             Coordinates (Angstroms)
 Number     Number       Type             X           Y           Z
 ---------------------------------------------------------------------
      1         17           0        4.241441    1.294925   -0.595382
      2          6           0        2.630659    0.663602   -0.316707
      3          7           0        2.128902    0.863855    0.895806
      4          6           0        0.902549    0.368887    1.096049
      5          6           0        0.181855   -0.317658    0.115033
      6          6           0       -1.218013   -0.823702    0.341159
      7          6           0       -2.282019    0.223413   -0.026207
      8          6           0        0.846561   -0.460261   -1.106024
      9          7           0        2.072142    0.023291   -1.336571
     10          1           0        0.479471    0.524859    2.087694
     11          1           0       -1.375774   -1.731346   -0.252252
     12          1           0       -1.334033   -1.112078    1.391980
     13          1           0       -3.288955   -0.167547    0.146597
     14          1           0       -2.160018    1.130954    0.573155
     15          1           0       -2.201971    0.508396   -1.079833
     16          1           0        0.377205   -0.989590   -1.934396
 ---------------------------------------------------------------------
                    Distance matrix (angstroms):
                    1          2          3          4          5
     1  Cl   0.000000
     2  C    1.752383   0.000000
     3  N    2.621504   1.327422   0.000000
     4  C    3.855734   2.251467   1.337547   0.000000
     5  C    4.425534   2.673184   2.407607   1.397547   0.000000
     6  C    5.930542   4.178174   3.789106   2.547334   1.505604
     7  C    6.635332   4.940908   4.551538   3.379659   2.526536
     8  C    3.855729   2.251466   2.721214   2.353667   1.397551
     9  N    2.621502   1.327427   2.386059   2.721218   2.407610
    10  H    4.684476   3.229242   2.063041   1.089350   2.165596
    11  H    6.389770   4.668130   4.509530   3.379297   2.135326
    12  H    6.389771   4.668130   4.017763   2.698727   2.135325
    13  H    7.706895   5.995607   5.565814   4.331042   3.474198
    14  H    6.509304   4.894983   4.309325   3.198981   2.791545
    15  H    6.509292   4.894974   4.773464   3.793675   2.791540
    16  H    4.684473   3.229244   3.809691   3.362297   2.165598
                    6          7          8          9         10
     6  C    0.000000
     7  C    1.537373   0.000000
     8  C    2.547331   3.379560   0.000000
     9  N    3.789102   4.551464   1.337544   0.000000
    10  H    2.783964   3.490742   3.362299   3.809694   0.000000
    11  H    1.095830   2.166439   2.698769   4.017788   3.742692
    12  H    1.095831   2.166441   3.379331   4.509555   2.540153
    13  H    2.181100   1.093906   4.330962   5.565749   4.295152
    14  H    2.182173   1.094418   3.793564   4.773379   3.102916
    15  H    2.182173   1.094418   3.198833   4.309209   4.150137
    16  H    2.783952   3.490564   1.089350   2.063040   4.298980
                   11         12         13         14         15
    11  H    0.000000
    12  H    1.757480   0.000000
    13  H    2.502960   2.502966   0.000000
    14  H    3.080438   2.526642   1.772726   0.000000
    15  H    2.526645   3.080440   1.772728   1.766835   0.000000
    16  H    2.540225   3.742742   4.294999   4.149942   3.102642
                   16
    16  H    0.000000
 Stoichiometry    C6H7ClN2
 Framework group  C1[X(C6H7ClN2)]
 Deg. of freedom    42
 Full point group                 C1      NOp   1
 Largest Abelian subgroup         C1      NOp   1
 Largest concise Abelian subgroup C1      NOp   1
                         Standard orientation:                         
 ---------------------------------------------------------------------
 Center     Atomic      Atomic             Coordinates (Angstroms)
 Number     Number       Type             X           Y           Z
 ---------------------------------------------------------------------
      1         17           0       -3.091776   -0.000035    0.215392
      2          6           0       -1.353076    0.000002   -0.003165
      3          7           0       -0.777250    1.193040   -0.087633
      4          6           0        0.548656    1.176869   -0.262977
      5          6           0        1.296521    0.000052   -0.357497
      6          6           0        2.795013    0.000069   -0.503659
      7          6           0        3.512561   -0.000108    0.855989
      8          6           0        0.548685   -1.176797   -0.263060
      9          7           0       -0.777217   -1.193019   -0.087721
     10          1           0        1.033763    2.149536   -0.335595
     11          1           0        3.103003   -0.878594   -1.081530
     12          1           0        3.103001    0.878885   -1.081302
     13          1           0        4.598373   -0.000095    0.723162
     14          1           0        3.239669    0.883237    1.441637
     15          1           0        3.239659   -0.883599    1.441412
     16          1           0        1.033823   -2.149444   -0.335753
 ---------------------------------------------------------------------
 Rotational constants (GHZ):           4.6087451           0.6950798           0.6409297
 Standard basis: 6-31G(d,p) (6D, 7F)
 There are   174 symmetry adapted cartesian basis functions of A   symmetry.
 There are   174 symmetry adapted basis functions of A   symmetry.
   174 basis functions,   325 primitive gaussians,   174 cartesian basis functions
    37 alpha electrons       37 beta electrons
       nuclear repulsion energy       482.2735367830 Hartrees.
 NAtoms=   16 NActive=   16 NUniq=   16 SFac= 1.00D+00 NAtFMM=   60 NAOKFM=F Big=F
 Integral buffers will be    131072 words long.
 Raffenetti 2 integral format.
 Two-electron integral symmetry is turned on.
 Nuclear repulsion after empirical dispersion term =      482.2444290079 Hartrees.
 One-electron integrals computed using PRISM.
 NBasis=   174 RedAO= T EigKep=  1.21D-03  NBF=   174
 NBsUse=   174 1.00D-06 EigRej= -1.00D+00 NBFU=   174
 Initial guess from the checkpoint file:  "pyrmd3_conf-1.chk"
 B after Tr=    -0.000000   -0.000000   -0.000000
         Rot=    1.000000    0.000003    0.000092    0.000000 Ang=   0.01 deg.
 Requested convergence on RMS density matrix=1.00D-08 within 128 cycles.
 Requested convergence on MAX density matrix=1.00D-06.
 Requested convergence on             energy=1.00D-06.
 No special actions if energy rises.
 SCF Done:  E(RB3LYP) =  -802.591801643     A.U. after    9 cycles
            NFock=  9  Conv=0.86D-08     -V/T= 2.0059
 Calling FoFJK, ICntrl=      2127 FMM=F ISym2X=0 I1Cent= 0 IOpClX= 0 NMat=1 NMatS=1 NMatT=0.
 ***** Axes restored to original set *****
 -------------------------------------------------------------------
 Center     Atomic                   Forces (Hartrees/Bohr)
 Number     Number              X              Y              Z
 -------------------------------------------------------------------
      1       17          -0.000232294    0.000473631   -0.000172160
      2        6           0.000469924   -0.001868812    0.000689496
      3        7           0.000030421    0.000704156    0.000009566
      4        6          -0.000546922    0.000062635   -0.000007104
      5        6           0.000576277    0.000243487   -0.000108213
      6        6           0.000060240   -0.000169473    0.000063671
      7        6          -0.000053669    0.000137731   -0.000049898
      8        6          -0.000548717    0.000059764   -0.000009791
      9        7           0.000019434    0.000524109   -0.000471219
[...]
      3 vectors produced by pass  3 Test12= 3.58D-13 3.33D-08 XBig12= 3.71D-05 2.35D-03.
      3 vectors produced by pass  4 Test12= 3.58D-13 3.33D-08 XBig12= 6.08D-07 1.80D-04.
      3 vectors produced by pass  5 Test12= 3.58D-13 3.33D-08 XBig12= 6.67D-09 2.44D-05.
      3 vectors produced by pass  6 Test12= 3.58D-13 3.33D-08 XBig12= 1.00D-10 3.66D-06.
      3 vectors produced by pass  7 Test12= 3.58D-13 3.33D-08 XBig12= 1.24D-12 2.86D-07.
      1 vectors produced by pass  8 Test12= 3.58D-13 3.33D-08 XBig12= 1.25D-14 4.17D-08.
 InvSVY:  IOpt=1 It=  1 EMax= 4.44D-16
 Solved reduced A of dimension    25 with     3 vectors.
 Calculating GIAO nuclear magnetic shielding tensors.
 SCF GIAO Magnetic shielding tensor (ppm):
      1  Cl   Isotropic =   550.5290   Anisotropy =   692.9069
   XX=  1000.5047   YX=     0.0110   ZX=   -91.4139
   XY=     0.0122   YY=   315.9475   ZY=    -0.0020
   XZ=   -88.6127   YZ=    -0.0016   ZZ=   335.1347
   Eigenvalues:   315.9475   323.1725  1012.4669
      2  C    Isotropic =    -5.0216   Anisotropy =   105.0544
   XX=  -105.4311   YX=    -0.0008   ZX=    22.8289
   XY=    -0.0024   YY=    28.9942   ZY=    -0.0008
   XZ=    27.0052   YZ=    -0.0009   ZZ=    61.3721
   Eigenvalues:  -109.0737    28.9942    65.0146
      3  N    Isotropic =  -114.2763   Anisotropy =   533.7266
   XX=  -308.6978   YX=   -97.0353   ZX=    71.5299
   XY=   -71.1496   YY=  -266.2734   ZY=    11.3409
   XZ=    72.2445   YZ=    14.4197   ZZ=   232.1424
   Eigenvalues:  -381.0945  -203.2758   241.5415
      4  C    Isotropic =     0.9114   Anisotropy =   201.0963
   XX=   -51.7936   YX=   -67.0058   ZX=    22.4786
   XY=   -49.8228   YY=   -78.4866   ZY=     6.6978
   XZ=    15.6331   YZ=     8.8506   ZZ=   133.0145
   Eigenvalues:  -126.3074    -5.9340   134.9756
      5  C    Isotropic =    27.0128   Anisotropy =   227.8200
   XX=   -89.9233   YX=    -0.0025   ZX=    35.3176
   XY=    -0.0026   YY=    -2.8986   ZY=    -0.0057
   XZ=    38.2429   YZ=    -0.0075   ZZ=   173.8604
   Eigenvalues:   -94.9557    -2.8986   178.8928
      6  C    Isotropic =   158.8422   Anisotropy =    22.6787
   XX=   173.9563   YX=     0.0012   ZX=    -5.4233
   XY=     0.0001   YY=   151.3820   ZY=    -0.0010
   XZ=     6.1006   YZ=    -0.0005   ZZ=   151.1882
   Eigenvalues:   151.1832   151.3820   173.9613
      7  C    Isotropic =   165.7460   Anisotropy =    31.8709
   XX=   174.0816   YX=    -0.0006   ZX=     8.4156
   XY=    -0.0012   YY=   154.7632   ZY=    -0.0022
   XZ=    22.5785   YZ=    -0.0025   ZZ=   168.3933
   Eigenvalues:   154.7632   155.4816   186.9933
      8  C    Isotropic =     0.9104   Anisotropy =   201.1007
   XX=   -51.7991   YX=    67.0046   ZX=    22.4834
   XY=    49.8231   YY=   -78.4851   ZY=    -6.7106
   XZ=    15.6364   YZ=    -8.8644   ZZ=   133.0155
   Eigenvalues:  -126.3099    -5.9364   134.9776
      9  N    Isotropic =  -114.2775   Anisotropy =   533.7287
   XX=  -308.7023   YX=    97.0307   ZX=    71.5363
   XY=    71.1451   YY=  -266.2713   ZY=   -11.3713
   XZ=    72.2485   YZ=   -14.4512   ZZ=   232.1410
   Eigenvalues:  -381.0971  -203.2771   241.5416
     10  H    Isotropic =    22.6528   Anisotropy =     9.4045
   XX=    25.5741   YX=    -4.6359   ZX=    -0.3800
   XY=    -4.3800   YY=    22.8330   ZY=     0.2055
   XZ=    -0.3441   YZ=    -0.3097   ZZ=    19.5513
   Eigenvalues:    19.2593    19.7766    28.9225
     11  H    Isotropic =    29.3184   Anisotropy =     7.6080
   XX=    28.4398   YX=    -1.5652   ZX=    -0.5862
   XY=    -0.5088   YY=    30.1032   ZY=     3.6916
   XZ=    -1.9981   YZ=     4.6422   ZZ=    29.4121
   Eigenvalues:    25.5524    28.0123    34.3903
     12  H    Isotropic =    29.3184   Anisotropy =     7.6080
   XX=    28.4399   YX=     1.5653   ZX=    -0.5858
   XY=     0.5088   YY=    30.1052   ZY=    -3.6918
   XZ=    -1.9975   YZ=    -4.6422   ZZ=    29.4102
   Eigenvalues:    25.5522    28.0126    34.3905
     13  H    Isotropic =    30.4998   Anisotropy =    10.7612
   XX=    37.1709   YX=    -0.0001   ZX=     0.9190
   XY=    -0.0002   YY=    26.7070   ZY=    -0.0002
   XZ=     3.5783   YZ=    -0.0002   ZZ=    27.6214
   Eigenvalues:    26.7070    27.1184    37.6739
     14  H    Isotropic =    30.8791   Anisotropy =     7.6294
   XX=    28.7622   YX=    -0.4799   ZX=     0.7956
   XY=    -0.7266   YY=    31.9815   ZY=     3.3468
   XZ=     2.3539   YZ=     4.5751   ZZ=    31.8934
   Eigenvalues:    26.7570    29.9148    35.9653
     15  H    Isotropic =    30.8790   Anisotropy =     7.6295
   XX=    28.7622   YX=     0.4797   ZX=     0.7957
   XY=     0.7265   YY=    31.9834   ZY=    -3.3468
   XZ=     2.3539   YZ=    -4.5754   ZZ=    31.8915
   Eigenvalues:    26.7568    29.9149    35.9654
     16  H    Isotropic =    22.6527   Anisotropy =     9.4048
   XX=    25.5740   YX=     4.6362   ZX=    -0.3796
   XY=     4.3802   YY=    22.8330   ZY=    -0.2053
   XZ=    -0.3437   YZ=     0.3099   ZZ=    19.5512
   Eigenvalues:    19.2592    19.7764    28.9226
 End of Minotr F.D. properties file   721 does not exist.
 End of Minotr F.D. properties file   722 does not exist.
 End of Minotr F.D. properties file   788 does not exist.

 **********************************************************************

            Population analysis using the SCF Density.

 **********************************************************************

 Orbital symmetries:
       Occupied  (A) (A) (A) (A) (A) (A) (A) (A) (A) (A) (A) (A)
                 (A) (A) (A) (A) (A) (A) (A) (A) (A) (A) (A) (A)
                 (A) (A) (A) (A) (A) (A) (A) (A) (A) (A) (A) (A)
                 (A)
       Virtual   (A) (A) (A) (A) (A) (A) (A) (A) (A) (A) (A) (A)
                 (A) (A) (A) (A) (A) (A) (A) (A) (A) (A) (A) (A)
                 (A) (A) (A) (A) (A) (A) (A) (A) (A) (A) (A) (A)
                 (A) (A) (A) (A) (A) (A) (A) (A) (A) (A) (A) (A)
                 (A) (A) (A) (A) (A) (A) (A) (A) (A) (A) (A) (A)
                 (A) (A) (A) (A) (A) (A) (A) (A) (A) (A) (A) (A)
                 (A) (A) (A) (A) (A) (A) (A) (A) (A) (A) (A) (A)
                 (A) (A) (A) (A) (A) (A) (A) (A) (A) (A) (A) (A)
                 (A) (A) (A) (A) (A) (A) (A) (A) (A) (A) (A) (A)
                 (A) (A) (A) (A) (A) (A) (A) (A) (A) (A) (A) (A)
                 (A) (A) (A) (A) (A) (A) (A) (A) (A) (A) (A) (A)
                 (A) (A) (A) (A) (A) (A) (A) (A) (A) (A) (A) (A)
                 (A) (A) (A) (A) (A) (A) (A) (A) (A) (A) (A) (A)
                 (A) (A) (A) (A) (A) (A) (A) (A) (A) (A) (A) (A)
                 (A) (A) (A) (A) (A) (A) (A) (A) (A) (A) (A) (A)
                 (A) (A) (A) (A) (A) (A) (A) (A) (A) (A) (A) (A)
                 (A) (A) (A) (A) (A) (A) (A) (A) (A) (A) (A) (A)
                 (A) (A) (A) (A) (A) (A) (A) (A) (A) (A) (A) (A)
                 (A) (A) (A) (A) (A) (A) (A) (A) (A) (A) (A) (A)
                 (A) (A) (A) (A) (A) (A) (A) (A) (A) (A) (A) (A)
                 (A) (A) (A) (A) (A) (A) (A) (A) (A) (A) (A) (A)
                 (A) (A) (A) (A) (A) (A) (A) (A) (A) (A) (A) (A)
                 (A) (A) (A) (A) (A) (A) (A) (A) (A) (A) (A) (A)
                 (A) (A) (A) (A) (A) (A) (A) (A) (A) (A) (A) (A)
                 (A) (A)
 The electronic state is 1-A.
 Alpha  occ. eigenvalues -- -102.64333 -14.77611 -14.77609 -10.67290 -10.61011
 Alpha  occ. eigenvalues --  -10.61010 -10.57807 -10.56629 -10.54807  -9.80617
 Alpha  occ. eigenvalues --   -7.52811  -7.52310  -7.52262  -1.12722  -1.01691
 Alpha  occ. eigenvalues --   -0.96590  -0.92004  -0.84666  -0.76929  -0.75259
 Alpha  occ. eigenvalues --   -0.70271  -0.61944  -0.60688  -0.54531  -0.52906
 Alpha  occ. eigenvalues --   -0.52485  -0.49986  -0.49085  -0.47339  -0.45105
 Alpha  occ. eigenvalues --   -0.43112  -0.40504  -0.39478  -0.39228  -0.38190
 Alpha  occ. eigenvalues --   -0.33725  -0.32559
 Alpha virt. eigenvalues --   -0.02717  -0.00849   0.05163   0.08347   0.08966
 Alpha virt. eigenvalues --    0.09486   0.10362   0.11070   0.13430   0.13618
 Alpha virt. eigenvalues --    0.15284   0.15501   0.17979   0.19573   0.19699
 Alpha virt. eigenvalues --    0.20795   0.23039   0.23940   0.24198   0.26177
 Alpha virt. eigenvalues --    0.26263   0.29213   0.29536   0.30078   0.30729
 Alpha virt. eigenvalues --    0.31643   0.33389   0.33823   0.35325   0.37028
 Alpha virt. eigenvalues --    0.37603   0.39035   0.40279   0.40747   0.41136
 Alpha virt. eigenvalues --    0.41928   0.42680   0.43651   0.43948   0.44723
 Alpha virt. eigenvalues --    0.44910   0.46003   0.46536   0.48096   0.49360
 Alpha virt. eigenvalues --    0.50604   0.51241   0.52528   0.53120   0.54888
 Alpha virt. eigenvalues --    0.57136   0.57780   0.58874   0.60627   0.62321
 Alpha virt. eigenvalues --    0.62942   0.63139   0.63676   0.66983   0.67449
 Alpha virt. eigenvalues --    0.68408   0.69091   0.69544   0.73136   0.74001
 Alpha virt. eigenvalues --    0.74698   0.78947   0.80110   0.81468   0.82648
 Alpha virt. eigenvalues --    0.83502   0.87614   0.90569   0.92034   0.92239
 Alpha virt. eigenvalues --    0.95282   1.00093   1.01387   1.04145   1.06729
 Alpha virt. eigenvalues --    1.11052   1.11512   1.11609   1.13766   1.14345
 Alpha virt. eigenvalues --    1.17522   1.18142   1.19570   1.20604   1.28023
 Alpha virt. eigenvalues --    1.31679   1.33937   1.34136   1.35282   1.35802
 Alpha virt. eigenvalues --    1.37568   1.39487   1.43132   1.44595   1.49446
 Alpha virt. eigenvalues --    1.50685   1.51745   1.52160   1.56056   1.56489
 Alpha virt. eigenvalues --    1.57201   1.57670   1.58378   1.60332   1.61347
 Alpha virt. eigenvalues --    1.64091   1.65846   1.65916   1.69673   1.69911
 Alpha virt. eigenvalues --    1.72053   1.77345   1.77675   1.79184   1.79472
 Alpha virt. eigenvalues --    1.83417   1.84085   1.85247   1.87376   1.87913
 Alpha virt. eigenvalues --    1.87943   1.88374   1.89300   1.93271   1.94038
 Alpha virt. eigenvalues --    1.94284   1.97257   1.97784   1.98192   2.00387
 Alpha virt. eigenvalues --    2.05447   2.06576   2.13062   2.13169   2.13830
 Alpha virt. eigenvalues --    2.14873   2.15444   2.20453   2.23383   2.24137
 Alpha virt. eigenvalues --    2.24624   2.26268   2.29230   2.30165   2.30315
 Alpha virt. eigenvalues --    2.31122   2.33022   2.33442   2.35132   2.36175
 Alpha virt. eigenvalues --    2.36540   2.37943   2.42839   2.44260   2.45083
 Alpha virt. eigenvalues --    2.47148   2.49218   2.52617   2.54036   2.56871
 Alpha virt. eigenvalues --    2.60631   2.60687   2.61668   2.63676   2.66676
 Alpha virt. eigenvalues --    2.68138   2.71484   2.74875   2.75660   2.76757
 Alpha virt. eigenvalues --    2.77404   2.82371   2.87635   2.88511   2.89648
 Alpha virt. eigenvalues --    2.91234   2.91608   2.92564   2.93438   2.97890
 Alpha virt. eigenvalues --    2.98393   2.98698   3.02691   3.03479   3.08344
 Alpha virt. eigenvalues --    3.09110   3.11206   3.11428   3.13756   3.14653
 Alpha virt. eigenvalues --    3.16794   3.17849   3.18147   3.19444   3.21798
 Alpha virt. eigenvalues --    3.25455   3.26935   3.28439   3.28774   3.29546
 Alpha virt. eigenvalues --    3.32097   3.32892   3.34941   3.37990   3.39070
 Alpha virt. eigenvalues --    3.39771   3.40504   3.42411   3.42524   3.46748
 Alpha virt. eigenvalues --    3.50784   3.51997   3.52306   3.56550   3.61725
 Alpha virt. eigenvalues --    3.62594   3.68063   3.71594   3.74384   3.75052
 Alpha virt. eigenvalues --    3.77064   3.77901   3.80137   3.82769   3.87216
 Alpha virt. eigenvalues --    3.89685   3.91200   3.92320   3.93790   3.94195
 Alpha virt. eigenvalues --    4.05531   4.07676   4.12919   4.13384   4.16418
 Alpha virt. eigenvalues --    4.21782   4.24980   4.27177   4.33949   4.38331
 Alpha virt. eigenvalues --    4.39825   4.45110   4.46648   4.51889   4.52833
 Alpha virt. eigenvalues --    4.58801   4.61288   4.63586   4.70115   4.70523
 Alpha virt. eigenvalues --    4.75085   4.78006   4.82415   4.86411   4.95167
 Alpha virt. eigenvalues --    4.98953   5.00738   5.00915   5.06284   5.11119
 Alpha virt. eigenvalues --    5.16290   5.23472   5.28790   5.32050   5.35586
 Alpha virt. eigenvalues --    5.37706   5.39401   5.52330   5.55837   5.67409
 Alpha virt. eigenvalues --    5.67867   5.93597   6.16194  10.81554  10.87843
 Alpha virt. eigenvalues --   11.38363  22.39434  22.56123  22.74732  22.83753
 Alpha virt. eigenvalues --   22.91210  23.14556  25.81384  32.40060  32.60499
          Condensed to atoms (all electrons):
               1          2          3          4          5          6
     1  Cl  16.830306   0.402494  -0.092057   0.000189   0.003527  -0.000015
     2  C    0.402494   4.620571   0.499090  -0.089394  -0.043523   0.003824
     3  N   -0.092057   0.499090   6.470503   0.507031  -0.051155   0.004666
     4  C    0.000189  -0.089394   0.507031   4.844665   0.462916  -0.046803
     5  C    0.003527  -0.043523  -0.051155   0.462916   5.236892   0.226477
     6  C   -0.000015   0.003824   0.004666  -0.046803   0.226477   5.191425
     7  C    0.000004   0.000173   0.000056  -0.011129  -0.030208   0.243525
     8  C    0.000189  -0.089395  -0.024192  -0.055223   0.462915  -0.046806
     9  N   -0.092057   0.499085  -0.066319  -0.024192  -0.051154   0.004665
    10  H   -0.000361   0.006166  -0.030496   0.441534  -0.080773   0.004086
    11  H   -0.000001  -0.000082  -0.000457   0.003578  -0.052951   0.440558
    12  H   -0.000001  -0.000082   0.000317  -0.003462  -0.052961   0.440559
    13  H    0.000000  -0.000007   0.000009   0.000201   0.011911  -0.049444
    14  H   -0.000000  -0.000056  -0.000163  -0.003326  -0.001284  -0.035069
    15  H   -0.000000  -0.000056  -0.000021   0.002893  -0.001289  -0.035067
    16  H   -0.000361   0.006166  -0.002044   0.003716  -0.080774   0.004088
               7          8          9         10         11         12
     1  Cl   0.000004   0.000189  -0.092057  -0.000361  -0.000001  -0.000001
     2  C    0.000173  -0.089395   0.499085   0.006166  -0.000082  -0.000082
     3  N    0.000056  -0.024192  -0.066319  -0.030496  -0.000457   0.000317
     4  C   -0.011129  -0.055223  -0.024192   0.441534   0.003578  -0.003462
     5  C   -0.030208   0.462915  -0.051154  -0.080773  -0.052951  -0.052961
     6  C    0.243525  -0.046806   0.004665   0.004086   0.440558   0.440559
     7  C    5.074252  -0.011128   0.000056  -0.000856  -0.048358  -0.048350
     8  C   -0.011128   4.844672   0.507034   0.003717  -0.003467   0.003580
     9  N    0.000056   0.507034   6.470504  -0.002044   0.000317  -0.000457
    10  H   -0.000856   0.003717  -0.002044   0.496669  -0.000025   0.000582
    11  H   -0.048358  -0.003467   0.000317  -0.000025   0.530751  -0.022986
    12  H   -0.048350   0.003580  -0.000457   0.000582  -0.022986   0.530751
    13  H    0.416354   0.000201   0.000009  -0.000015  -0.003109  -0.003109
    14  H    0.406286   0.002892  -0.000021   0.000420   0.006430  -0.003930
    15  H    0.406291  -0.003326  -0.000163  -0.000006  -0.003930   0.006430
    16  H   -0.000857   0.441533  -0.030496  -0.000166   0.000582  -0.000026
              13         14         15         16
     1  Cl   0.000000  -0.000000  -0.000000  -0.000361
     2  C   -0.000007  -0.000056  -0.000056   0.006166
     3  N    0.000009  -0.000163  -0.000021  -0.002044
     4  C    0.000201  -0.003326   0.002893   0.003716
     5  C    0.011911  -0.001284  -0.001289  -0.080774
     6  C   -0.049444  -0.035069  -0.035067   0.004088
     7  C    0.416354   0.406286   0.406291  -0.000857
     8  C    0.000201   0.002892  -0.003326   0.441533
     9  N    0.000009  -0.000021  -0.000163  -0.030496
    10  H   -0.000015   0.000420  -0.000006  -0.000166
    11  H   -0.003109   0.006430  -0.003930   0.000582
    12  H   -0.003109  -0.003930   0.006430  -0.000026
    13  H    0.525542  -0.023068  -0.023068  -0.000015
    14  H   -0.023068   0.530398  -0.025030  -0.000006
    15  H   -0.023068  -0.025030   0.530397   0.000420
    16  H   -0.000015  -0.000006   0.000420   0.496667
 Mulliken charges:
               1
     1  Cl  -0.051856
     2  C    0.185024
     3  N   -0.214767
     4  C   -0.033193
     5  C    0.041433
     6  C   -0.350670
     7  C   -0.396109
     8  C   -0.033196
     9  N   -0.214767
    10  H    0.161570
    11  H    0.153150
    12  H    0.153145
    13  H    0.147607
    14  H    0.145527
    15  H    0.145527
    16  H    0.161573
 Sum of Mulliken charges =  -0.00000
 Mulliken charges with hydrogens summed into heavy atoms:
               1
     1  Cl  -0.051856
     2  C    0.185024
     3  N   -0.214767
     4  C    0.128377
     5  C    0.041433
     6  C   -0.044374
     7  C    0.042552
     8  C    0.128377
     9  N   -0.214767
 Electronic spatial extent (au):  <R**2>=           1720.9025
 Charge=              0.0000 electrons
 Dipole moment (field-independent basis, Debye):
    X=              4.6378    Y=              0.0001    Z=             -0.4353  Tot=              4.6582
 Quadrupole moment (field-independent basis, Debye-Ang):
   XX=            -58.1643   YY=            -60.9685   ZZ=            -60.4540
   XY=              0.0001   XZ=             -0.7360   YZ=              0.0000
 Traceless Quadrupole moment (field-independent basis, Debye-Ang):
   XX=              1.6980   YY=             -1.1062   ZZ=             -0.5918
   XY=              0.0001   XZ=             -0.7360   YZ=              0.0000
 Octapole moment (field-independent basis, Debye-Ang**2):
  XXX=              5.4171  YYY=              0.0005  ZZZ=              1.3108  XYY=             10.7444
  XXY=             -0.0002  XXZ=             -1.1725  XZZ=             -4.2746  YZZ=             -0.0002
  YYZ=             -1.4087  XYZ=              0.0006
 Hexadecapole moment (field-independent basis, Debye-Ang**3):
 XXXX=          -1779.7730 YYYY=           -293.1988 ZZZZ=           -144.1971 XXXY=              0.0021
 XXXZ=            -14.4796 YYYX=              0.0013 YYYZ=             -0.0003 ZZZX=             -3.9579
 ZZZY=              0.0010 XXYY=           -366.0400 XXZZ=           -336.2918 YYZZ=            -72.9589
 XXYZ=              0.0002 YYXZ=             -4.1567 ZZXY=             -0.0001
 N-N= 4.822828867790D+02 E-N=-2.854312359871D+03  KE= 8.002719085485D+02
 Unable to Open any file for archive entry.
 1\1\GINC-COMPUTE-0-35\SP\RM062X\def2TZVP\C6H7Cl1N2\ZTAN64\14-Aug-2024\
 0\\# M062X/def2tzvp int=(grid=ultrafine) nmr=giao guess=read geom=chec
 k\\pyrmd3.xyz\\0,1\Cl,0,4.2371675232,1.302886631,-0.5982662949\C,0,2.6
 329150808,0.6572633359,-0.3143781185\N,0,2.1297556468,0.8619654738,0.8
 969293649\C,0,0.9024720246,0.3684783488,1.0963156745\C,0,0.182313109,-
 0.3178161069,0.1150766961\C,0,-1.2180128604,-0.8235320687,0.3410923125
 \C,0,-2.2816681865,0.2241136295,-0.0264744377\C,0,0.8464854948,-0.4607
 553164,-1.1059515046\N,0,2.0729819592,0.0211088375,-1.3362044228\H,0,0
 .4792317138,0.5249347243,2.0874295605\H,0,-1.376459879,-1.7311631039,-
 0.2520304436\H,0,-1.3347284266,-1.1120868603,1.3917146018\H,0,-3.28880
 30585,-0.1663664517,0.1461556515\H,0,-2.1593380329,1.1314511827,0.5729
 712186\H,0,-2.2013009004,0.5088880959,-1.0800426892\H,0,0.3769887923,-
 0.9893703514,-1.9342371693\\Version=ES64L-G16RevC.01\State=1-A\HF=-802
 .5326635\RMSD=2.945e-09\Dipole=-1.705698,-0.6118416,0.2737371\Quadrupo
 le=0.8405573,-0.1330692,-0.7074882,0.8429425,-0.3597103,-0.2809852\PG=
 C01 [X(C6H7Cl1N2)]\\@
 The archive entry for this job was punched.


 GOD DOES NOT PLAY WITH DICE.
               -- A. EINSTEIN
 Job cpu time:       0 days  0 hours 13 minutes 48.0 seconds.
 Elapsed time:       0 days  0 hours  0 minutes 55.7 seconds.
 File lengths (MBytes):  RWF=     65 Int=      0 D2E=      0 Chk=     11 Scr=      1
 Normal termination of Gaussian 16 at Wed Aug 14 20:28:23 2024.
 
 
-----Kestrel cluster job statistics-----
Time info:

real	4m48.178s
user	74m39.909s
sys	0m11.139s
 
Disk space usage:
11M	/scratch/362991.kestrel.chem.wisc.edu
