 Entering Gaussian System, Link 0=/share/apps/gaussian/g16/g16
 Initial command:
 /share/apps/gaussian/g16/l1.exe "/scratch/362979.kestrel.chem.wisc.edu/Gau-166565.inp" -scrdir="/scratch/362979.kestrel.chem.wisc.edu/"
 Entering Link 1 = /share/apps/gaussian/g16/l1.exe PID=    166566.
  
 Copyright (c) 1988-2019, Gaussian, Inc.  All Rights Reserved.
  
 This is part of the Gaussian(R) 16 program.  It is based on
 the Gaussian(R) 09 system (copyright 2009, Gaussian, Inc.),
 the Gaussian(R) 03 system (copyright 2003, Gaussian, Inc.),
 the Gaussian(R) 98 system (copyright 1998, Gaussian, Inc.),
 the Gaussian(R) 94 system (copyright 1995, Gaussian, Inc.),
 the Gaussian 92(TM) system (copyright 1992, Gaussian, Inc.),
 the Gaussian 90(TM) system (copyright 1990, Gaussian, Inc.),
 the Gaussian 88(TM) system (copyright 1988, Gaussian, Inc.),
 the Gaussian 86(TM) system (copyright 1986, Carnegie Mellon
 University), and the Gaussian 82(TM) system (copyright 1983,
 Carnegie Mellon University). Gaussian is a federally registered
 trademark of Gaussian, Inc.
  
 This software contains proprietary and confidential information,
 including trade secrets, belonging to Gaussian, Inc.
  
 This software is provided under written license and may be
 used, copied, transmitted, or stored only in accord with that
 written license.
  
 The following legend is applicable only to US Government
 contracts under FAR:
  
                    RESTRICTED RIGHTS LEGEND
  
 Use, reproduction and disclosure by the US Government is
 subject to restrictions as set forth in subparagraphs (a)
 and (c) of the Commercial Computer Software - Restricted
 Rights clause in FAR 52.227-19.
  
 Gaussian, Inc.
 340 Quinnipiac St., Bldg. 40, Wallingford CT 06492
  
  
 ---------------------------------------------------------------
 Warning -- This program may not be used in any manner that
 competes with the business of Gaussian, Inc. or will provide
 assistance to any competitor of Gaussian, Inc.  The licensee
 of this program is prohibited from giving any competitor of
 Gaussian, Inc. access to this program.  By using this program,
 the user acknowledges that Gaussian, Inc. is engaged in the
 business of creating and licensing software in the field of
 computational chemistry and represents and warrants to the
 licensee that it is not a competitor of Gaussian, Inc. and that
 it will not use this program in any manner prohibited above.
 ---------------------------------------------------------------
  

 Cite this work as:
 Gaussian 16, Revision C.01,
 M. J. Frisch, G. W. Trucks, H. B. Schlegel, G. E. Scuseria, 
 M. A. Robb, J. R. Cheeseman, G. Scalmani, V. Barone, 
 G. A. Petersson, H. Nakatsuji, X. Li, M. Caricato, A. V. Marenich, 
 J. Bloino, B. G. Janesko, R. Gomperts, B. Mennucci, H. P. Hratchian, 
 J. V. Ortiz, A. F. Izmaylov, J. L. Sonnenberg, D. Williams-Young, 
 F. Ding, F. Lipparini, F. Egidi, J. Goings, B. Peng, A. Petrone, 
 T. Henderson, D. Ranasinghe, V. G. Zakrzewski, J. Gao, N. Rega, 
 G. Zheng, W. Liang, M. Hada, M. Ehara, K. Toyota, R. Fukuda, 
 J. Hasegawa, M. Ishida, T. Nakajima, Y. Honda, O. Kitao, H. Nakai, 
 T. Vreven, K. Throssell, J. A. Montgomery, Jr., J. E. Peralta, 
 F. Ogliaro, M. J. Bearpark, J. J. Heyd, E. N. Brothers, K. N. Kudin, 
 V. N. Staroverov, T. A. Keith, R. Kobayashi, J. Normand, 
 K. Raghavachari, A. P. Rendell, J. C. Burant, S. S. Iyengar, 
 J. Tomasi, M. Cossi, J. M. Millam, M. Klene, C. Adamo, R. Cammi, 
 J. W. Ochterski, R. L. Martin, K. Morokuma, O. Farkas, 
 J. B. Foresman, and D. J. Fox, Gaussian, Inc., Wallingford CT, 2019.
 
 ******************************************
 Gaussian 16:  ES64L-G16RevC.01  3-Jul-2019
                14-Aug-2024 
 ******************************************
 %nprocs=16
 Will use up to   16 processors via shared memory.
 %mem=16GB
 %chk=pyrd8_conf-2.chk
 ----------------------------------------------------------------------
 # B3LYP/6-31G(d,p) symmetry=loose empiricaldispersion=GD3BJ int=(grid=
 ultrafine) opt freq=noraman
 ----------------------------------------------------------------------
 1/18=20,19=15,26=4,38=1/1,3;
 2/9=110,12=2,17=4,18=3,40=1/2;
 3/5=1,6=6,7=101,11=2,25=1,30=1,71=1,74=-5,75=-5,124=41/1,2,3;
 4//1;
 5/5=2,38=5/2;
 6/7=2,8=2,9=2,10=2,28=1/1;
 7//1,2,3,16;
 1/18=20,19=15,26=4/3(2);
 2/9=110/2;
 99//99;
 2/9=110/2;
 3/5=1,6=6,7=101,11=2,25=1,30=1,71=1,74=-5,75=-5,124=41/1,2,3;
 4/5=5,16=3,69=1/1;
 5/5=2,38=5/2;
 7//1,2,3,16;
 1/18=20,19=15,26=4/3(-5);
 2/9=110/2;
 6/7=2,8=2,9=2,10=2,19=2,28=1/1;
 99/9=1/99;
 ---------
 pyrd8.xyz
 ---------
 Symbolic Z-matrix:
 Charge =  0 Multiplicity = 1
 Br                   -1.0742   -4.0524   -0.8873 
 C                    -0.8916   -2.207    -0.4619 
 N                     0.3548   -1.6852   -0.3397 
 C                     0.4882   -0.3653   -0.0376 
 C                     1.904     0.1116    0.072 
 C                     3.108    -0.5845   -0.0897 
 N                     4.2279    0.0912    0.0663 
 C                     3.9839    1.3402    0.3555 
 S                     2.3114    1.7693    0.4556 
 C                    -0.6267    0.4623    0.15 
 C                    -1.9078   -0.0828    0.0274 
 C                    -3.1338    0.7902    0.2104 
 C                    -2.0419   -1.4372   -0.2874 
 H                     3.169    -1.6358   -0.3329 
 H                     4.7592    2.0703    0.5242 
 H                    -0.5019    1.5069    0.3876 
 H                    -3.4025    0.8561    1.2648 
 H                    -3.9841    0.4004   -0.3501 
 H                    -2.9483    1.7976   -0.164 
 H                    -3.0145   -1.8926   -0.3951 
 

 GradGradGradGradGradGradGradGradGradGradGradGradGradGradGradGradGradGrad
 Berny optimization.
 Initialization pass.
                           ----------------------------
                           !    Initial Parameters    !
                           ! (Angstroms and Degrees)  !
 --------------------------                            --------------------------
 ! Name  Definition              Value          Derivative Info.                !
 --------------------------------------------------------------------------------
 ! R1    R(1,2)                  1.9026         estimate D2E/DX2                !
 ! R2    R(2,3)                  1.3567         estimate D2E/DX2                !
 ! R3    R(2,13)                 1.3951         estimate D2E/DX2                !
 ! R4    R(3,4)                  1.3606         estimate D2E/DX2                !
 ! R5    R(4,5)                  1.498          estimate D2E/DX2                !
 ! R6    R(4,10)                 1.4011         estimate D2E/DX2                !
 ! R7    R(5,6)                  1.4001         estimate D2E/DX2                !
 ! R8    R(5,9)                  1.7496         estimate D2E/DX2                !
 ! R9    R(6,7)                  1.3172         estimate D2E/DX2                !
 ! R10   R(6,14)                 1.0808         estimate D2E/DX2                !
 ! R11   R(7,8)                  1.3051         estimate D2E/DX2                !
 ! R12   R(8,9)                  1.7296         estimate D2E/DX2                !
 ! R13   R(8,15)                 1.0782         estimate D2E/DX2                !
 ! R14   R(10,11)                1.3976         estimate D2E/DX2                !
 ! R15   R(10,16)                1.0785         estimate D2E/DX2                !
 ! R16   R(11,12)                1.5161         estimate D2E/DX2                !
 ! R17   R(11,13)                1.397          estimate D2E/DX2                !
 ! R18   R(12,17)                1.0901         estimate D2E/DX2                !
 ! R19   R(12,18)                1.0905         estimate D2E/DX2                !
 ! R20   R(12,19)                1.0906         estimate D2E/DX2                !
 ! R21   R(13,20)                1.0793         estimate D2E/DX2                !
 ! A1    A(1,2,3)              118.7737         estimate D2E/DX2                !
 ! A2    A(1,2,13)             118.95           estimate D2E/DX2                !
 ! A3    A(3,2,13)             122.2763         estimate D2E/DX2                !
 ! A4    A(2,3,4)              118.8927         estimate D2E/DX2                !
 ! A5    A(3,4,5)              114.6929         estimate D2E/DX2                !
 ! A6    A(3,4,10)             121.6495         estimate D2E/DX2                !
 ! A7    A(5,4,10)             123.6575         estimate D2E/DX2                !
 ! A8    A(4,5,6)              130.2425         estimate D2E/DX2                !
 ! A9    A(4,5,9)              122.5314         estimate D2E/DX2                !
 ! A10   A(6,5,9)              107.2261         estimate D2E/DX2                !
 ! A11   A(5,6,7)              117.5418         estimate D2E/DX2                !
 ! A12   A(5,6,14)             123.9268         estimate D2E/DX2                !
 ! A13   A(7,6,14)             118.5315         estimate D2E/DX2                !
 ! A14   A(6,7,8)              110.9913         estimate D2E/DX2                !
 ! A15   A(7,8,9)              115.5349         estimate D2E/DX2                !
 ! A16   A(7,8,15)             123.2487         estimate D2E/DX2                !
 ! A17   A(9,8,15)             121.2164         estimate D2E/DX2                !
 ! A18   A(5,9,8)               88.7059         estimate D2E/DX2                !
 ! A19   A(4,10,11)            119.1606         estimate D2E/DX2                !
 ! A20   A(4,10,16)            120.6315         estimate D2E/DX2                !
 ! A21   A(11,10,16)           120.2078         estimate D2E/DX2                !
 ! A22   A(10,11,12)           120.4008         estimate D2E/DX2                !
 ! A23   A(10,11,13)           119.071          estimate D2E/DX2                !
 ! A24   A(12,11,13)           120.5199         estimate D2E/DX2                !
 ! A25   A(11,12,17)           110.5411         estimate D2E/DX2                !
 ! A26   A(11,12,18)           111.2642         estimate D2E/DX2                !
 ! A27   A(11,12,19)           110.6645         estimate D2E/DX2                !
 ! A28   A(17,12,18)           109.0611         estimate D2E/DX2                !
 ! A29   A(17,12,19)           108.5503         estimate D2E/DX2                !
 ! A30   A(18,12,19)           106.6403         estimate D2E/DX2                !
 ! A31   A(2,13,11)            118.9486         estimate D2E/DX2                !
 ! A32   A(2,13,20)            119.8487         estimate D2E/DX2                !
 ! A33   A(11,13,20)           121.2027         estimate D2E/DX2                !
 ! D1    D(1,2,3,4)            179.8984         estimate D2E/DX2                !
 ! D2    D(13,2,3,4)            -0.0548         estimate D2E/DX2                !
 ! D3    D(1,2,13,11)          179.8819         estimate D2E/DX2                !
 ! D4    D(1,2,13,20)           -0.0291         estimate D2E/DX2                !
 ! D5    D(3,2,13,11)           -0.1649         estimate D2E/DX2                !
 ! D6    D(3,2,13,20)          179.9241         estimate D2E/DX2                !
 ! D7    D(2,3,4,5)           -179.8881         estimate D2E/DX2                !
 ! D8    D(2,3,4,10)             0.0449         estimate D2E/DX2                !
 ! D9    D(3,4,5,6)              0.1459         estimate D2E/DX2                !
 ! D10   D(3,4,5,9)           -179.8445         estimate D2E/DX2                !
 ! D11   D(10,4,5,6)          -179.7856         estimate D2E/DX2                !
 ! D12   D(10,4,5,9)             0.224          estimate D2E/DX2                !
 ! D13   D(3,4,10,11)            0.1843         estimate D2E/DX2                !
 ! D14   D(3,4,10,16)         -179.9086         estimate D2E/DX2                !
 ! D15   D(5,4,10,11)         -179.8888         estimate D2E/DX2                !
 ! D16   D(5,4,10,16)            0.0183         estimate D2E/DX2                !
 ! D17   D(4,5,6,7)           -179.9883         estimate D2E/DX2                !
 ! D18   D(4,5,6,14)            -0.0053         estimate D2E/DX2                !
 ! D19   D(9,5,6,7)              0.0033         estimate D2E/DX2                !
 ! D20   D(9,5,6,14)           179.9863         estimate D2E/DX2                !
 ! D21   D(4,5,9,8)            179.9925         estimate D2E/DX2                !
 ! D22   D(6,5,9,8)              0.0001         estimate D2E/DX2                !
 ! D23   D(5,6,7,8)             -0.006          estimate D2E/DX2                !
 ! D24   D(14,6,7,8)          -179.9899         estimate D2E/DX2                !
 ! D25   D(6,7,8,9)              0.006          estimate D2E/DX2                !
 ! D26   D(6,7,8,15)          -179.9989         estimate D2E/DX2                !
 ! D27   D(7,8,9,5)             -0.0035         estimate D2E/DX2                !
 ! D28   D(15,8,9,5)          -179.9987         estimate D2E/DX2                !
 ! D29   D(4,10,11,12)        -179.3626         estimate D2E/DX2                !
 ! D30   D(4,10,11,13)          -0.3992         estimate D2E/DX2                !
 ! D31   D(16,10,11,12)          0.7299         estimate D2E/DX2                !
 ! D32   D(16,10,11,13)        179.6933         estimate D2E/DX2                !
 ! D33   D(10,11,12,17)        -85.7364         estimate D2E/DX2                !
 ! D34   D(10,11,12,18)        152.9281         estimate D2E/DX2                !
 ! D35   D(10,11,12,19)         34.5565         estimate D2E/DX2                !
 ! D36   D(13,11,12,17)         95.3154         estimate D2E/DX2                !
 ! D37   D(13,11,12,18)        -26.0201         estimate D2E/DX2                !
 ! D38   D(13,11,12,19)       -144.3917         estimate D2E/DX2                !
 ! D39   D(10,11,13,2)           0.3893         estimate D2E/DX2                !
 ! D40   D(10,11,13,20)       -179.7009         estimate D2E/DX2                !
 ! D41   D(12,11,13,2)         179.3514         estimate D2E/DX2                !
 ! D42   D(12,11,13,20)         -0.7388         estimate D2E/DX2                !
 --------------------------------------------------------------------------------
 Trust Radius=3.00D-01 FncErr=1.00D-07 GrdErr=1.00D-06 EigMax=2.50D+02 EigMin=1.00D-04
 Number of steps in this run=    106 maximum allowed number of steps=    120.
 GradGradGradGradGradGradGradGradGradGradGradGradGradGradGradGradGradGrad

                          Input orientation:                          
 ---------------------------------------------------------------------
 Center     Atomic      Atomic             Coordinates (Angstroms)
 Number     Number       Type             X           Y           Z
 ---------------------------------------------------------------------
      1         35           0       -1.074200   -4.052400   -0.887300
      2          6           0       -0.891600   -2.207000   -0.461900
      3          7           0        0.354800   -1.685200   -0.339700
      4          6           0        0.488200   -0.365300   -0.037600
      5          6           0        1.904000    0.111600    0.072000
      6          6           0        3.108000   -0.584500   -0.089700
      7          7           0        4.227900    0.091200    0.066300
      8          6           0        3.983900    1.340200    0.355500
      9         16           0        2.311400    1.769300    0.455600
     10          6           0       -0.626700    0.462300    0.150000
     11          6           0       -1.907800   -0.082800    0.027400
     12          6           0       -3.133800    0.790200    0.210400
     13          6           0       -2.041900   -1.437200   -0.287400
     14          1           0        3.169000   -1.635800   -0.332900
     15          1           0        4.759200    2.070300    0.524200
     16          1           0       -0.501900    1.506900    0.387600
     17          1           0       -3.402500    0.856100    1.264800
     18          1           0       -3.984100    0.400400   -0.350100
     19          1           0       -2.948300    1.797600   -0.164000
     20          1           0       -3.014500   -1.892600   -0.395100
 ---------------------------------------------------------------------
                    Distance matrix (angstroms):
                    1          2          3          4          5
     1  Br   0.000000
     2  C    1.902580   0.000000
     3  N    2.818784   1.356732   0.000000
     4  C    4.093628   2.340029   1.360587   0.000000
     5  C    5.208534   3.671013   2.407905   1.497977   0.000000
     6  C    5.491201   4.332186   2.975593   2.629470   1.400114
     7  N    6.796399   5.636488   4.280343   3.768892   2.323997
     8  C    7.497270   6.084511   4.775638   3.909370   2.432245
     9  S    6.867158   5.187675   4.048994   2.850232   1.749598
    10  C    4.653898   2.751319   2.411411   1.401113   2.556075
    11  C    4.158039   2.405058   2.796749   2.413472   3.817015
    12  C    5.375656   3.802980   4.312835   3.809930   5.085183
    13  C    2.852296   1.395074   2.410064   2.759126   4.254183
    14  H    4.914475   4.102607   2.814642   2.981285   2.194898
    15  H    8.573701   7.155364   5.852251   4.948657   3.491870
    16  H    5.732252   3.829696   3.384140   2.160145   2.799075
    17  H    5.843448   4.320728   4.811437   4.280842   5.489626
    18  H    5.346357   4.046553   4.814134   4.548123   5.910270
    19  H    6.185298   4.511716   4.803253   4.062468   5.142286
    20  H    2.944785   2.147094   3.376132   3.837885   5.331664
                    6          7          8          9         10
     6  C    0.000000
     7  N    1.317225   0.000000
     8  C    2.160989   1.305057   0.000000
     9  S    2.544071   2.576926   1.729567   0.000000
    10  C    3.886030   4.869483   4.697933   3.230181   0.000000
    11  C    5.042189   6.138290   6.069984   4.627664   1.397634
    12  C    6.398432   7.396215   7.140393   5.537957   2.529173
    13  C    5.223758   6.463088   6.666149   5.457556   2.408778
    14  H    1.080786   2.064742   3.161413   3.598877   4.363778
    15  H    3.186110   2.099712   1.078237   2.467191   5.633259
    16  H    4.199184   4.947570   4.489011   2.826329   1.078526
    17  H    6.804161   7.761732   7.457887   5.842721   3.017105
    18  H    7.164895   8.228362   8.054199   6.492793   3.395006
    19  H    6.508355   7.379884   6.966670   5.296145   2.696562
    20  H    6.268126   7.523344   7.745450   6.519081   3.397687
                   11         12         13         14         15
    11  C    0.000000
    12  C    1.516144   0.000000
    13  C    1.396954   2.530091   0.000000
    14  H    5.321233   6.775392   5.214882   0.000000
    15  H    7.023641   8.002286   7.695207   4.122928   0.000000
    16  H    2.152544   2.733488   3.390420   4.885815   5.292944
    17  H    2.155648   1.090093   3.085414   7.207414   8.284692
    18  H    2.164950   1.090465   2.674480   7.437288   8.944175
    19  H    2.157586   1.090615   3.361654   7.016988   7.742967
    20  H    2.163023   2.752867   1.079323   6.189143   8.773830
                   16         17         18         19         20
    16  H    0.000000
    17  H    3.099436   0.000000
    18  H    3.727501   1.775901   0.000000
    19  H    2.524607   1.770364   1.749195   0.000000
    20  H    4.299114   3.234372   2.489980   3.698022   0.000000
 Stoichiometry    C9H7BrN2S
 Framework group  C1[X(C9H7BrN2S)]
 Deg. of freedom    54
 Full point group                 C1      NOp   1
 Largest Abelian subgroup         C1      NOp   1
 Largest concise Abelian subgroup C1      NOp   1
                         Standard orientation:                         
 ---------------------------------------------------------------------
 Center     Atomic      Atomic             Coordinates (Angstroms)
 Number     Number       Type             X           Y           Z
 ---------------------------------------------------------------------
      1         35           0       -3.104206   -1.240211   -0.000373
      2          6           0       -1.636317   -0.029797    0.002343
      3          7           0       -0.375887   -0.531828    0.002635
      4          6           0        0.675638    0.331590    0.002464
      5          6           0        2.022957   -0.323134    0.000156
      6          6           0        2.369378   -1.679706   -0.004568
      7          7           0        3.651713   -1.980867   -0.005406
      8          6           0        4.385413   -0.901588   -0.001598
      9         16           0        3.513916    0.592356    0.003550
     10          6           0        0.486932    1.719937    0.002931
     11          6           0       -0.814154    2.230364    0.007514
     12          6           0       -1.050903    3.727845   -0.006411
     13          6           0       -1.891957    1.341655    0.003001
     14          1           0        1.649728   -2.486053   -0.007273
     15          1           0        5.463499   -0.919640   -0.001514
     16          1           0        1.332494    2.389445    0.001307
     17          1           0       -1.027891    4.128168    1.007252
     18          1           0       -2.009949    3.972371   -0.464180
     19          1           0       -0.285353    4.233059   -0.596439
     20          1           0       -2.910685    1.698208    0.001497
 ---------------------------------------------------------------------
 Rotational constants (GHZ):           0.8638694           0.2739602           0.2082721
 Standard basis: 6-31G(d,p) (6D, 7F)
 There are   249 symmetry adapted cartesian basis functions of A   symmetry.
 There are   249 symmetry adapted basis functions of A   symmetry.
   249 basis functions,   492 primitive gaussians,   249 cartesian basis functions
    63 alpha electrons       63 beta electrons
       nuclear repulsion energy      1085.7664582552 Hartrees.
 NAtoms=   20 NActive=   20 NUniq=   20 SFac= 1.00D+00 NAtFMM=   60 NAOKFM=F Big=F
 Integral buffers will be    131072 words long.
 Raffenetti 2 integral format.
 Two-electron integral symmetry is turned on.
 Nuclear repulsion after empirical dispersion term =     1085.7196059701 Hartrees.
 One-electron integrals computed using PRISM.
 NBasis=   249 RedAO= T EigKep=  6.77D-04  NBF=   249
 NBsUse=   249 1.00D-06 EigRej= -1.00D+00 NBFU=   249
 ExpMin= 1.17D-01 ExpMax= 5.74D+05 ExpMxC= 5.74D+03 IAcc=3 IRadAn=         5 AccDes= 0.00D+00
 Harris functional with IExCor=  402 and IRadAn=       5 diagonalized for initial guess.
 HarFok:  IExCor=  402 AccDes= 0.00D+00 IRadAn=         5 IDoV= 1 UseB2=F ITyADJ=14
 ICtDFT=  3500011 ScaDFX=  1.000000  1.000000  1.000000  1.000000
 FoFCou: FMM=F IPFlag=           0 FMFlag=      100000 FMFlg1=           0
         NFxFlg=           0 DoJE=T BraDBF=F KetDBF=T FulRan=T
         wScrn=  0.000000 ICntrl=       500 IOpCl=  0 I1Cent=   200000004 NGrid=           0
         NMat0=    1 NMatS0=      1 NMatT0=    0 NMatD0=    1 NMtDS0=    0 NMtDT0=    0
 Petite list used in FoFCou.
 Requested convergence on RMS density matrix=1.00D-08 within 128 cycles.
 Requested convergence on MAX density matrix=1.00D-06.
 Requested convergence on             energy=1.00D-06.
 No special actions if energy rises.
 Integral accuracy reduced to 1.0D-05 until final iterations.
 Initial convergence to 1.0D-05 achieved.  Increase integral accuracy.
 SCF Done:  E(RB3LYP) =  -3426.62052926     A.U. after   15 cycles
            NFock= 15  Conv=0.66D-08     -V/T= 2.0063

 **********************************************************************

            Population analysis using the SCF Density.

 **********************************************************************

 Orbital symmetries:
       Occupied  (A) (A) (A) (A) (A) (A) (A) (A) (A) (A) (A) (A)
                 (A) (A) (A) (A) (A) (A) (A) (A) (A) (A) (A) (A)
                 (A) (A) (A) (A) (A) (A) (A) (A) (A) (A) (A) (A)
                 (A) (A) (A) (A) (A) (A) (A) (A) (A) (A) (A) (A)
                 (A) (A) (A) (A) (A) (A) (A) (A) (A) (A) (A) (A)
                 (A) (A) (A)
       Virtual   (A) (A) (A) (A) (A) (A) (A) (A) (A) (A) (A) (A)
                 (A) (A) (A) (A) (A) (A) (A) (A) (A) (A) (A) (A)
                 (A) (A) (A) (A) (A) (A) (A) (A) (A) (A) (A) (A)
                 (A) (A) (A) (A) (A) (A) (A) (A) (A) (A) (A) (A)
                 (A) (A) (A) (A) (A) (A) (A) (A) (A) (A) (A) (A)
                 (A) (A) (A) (A) (A) (A) (A) (A) (A) (A) (A) (A)
                 (A) (A) (A) (A) (A) (A) (A) (A) (A) (A) (A) (A)
                 (A) (A) (A) (A) (A) (A) (A) (A) (A) (A) (A) (A)
                 (A) (A) (A) (A) (A) (A) (A) (A) (A) (A) (A) (A)
                 (A) (A) (A) (A) (A) (A) (A) (A) (A) (A) (A) (A)
                 (A) (A) (A) (A) (A) (A) (A) (A) (A) (A) (A) (A)
                 (A) (A) (A) (A) (A) (A) (A) (A) (A) (A) (A) (A)
                 (A) (A) (A) (A) (A) (A) (A) (A) (A) (A) (A) (A)
                 (A) (A) (A) (A) (A) (A) (A) (A) (A) (A) (A) (A)
                 (A) (A) (A) (A) (A) (A) (A) (A) (A) (A) (A) (A)
                 (A) (A) (A) (A) (A) (A)
 The electronic state is 1-A.
 Alpha  occ. eigenvalues -- -482.91400 -88.92639 -61.87607 -56.39731 -56.39323
 Alpha  occ. eigenvalues --  -56.39317 -14.34764 -14.34067 -10.28578 -10.26176
 Alpha  occ. eigenvalues --  -10.25629 -10.23771 -10.23288 -10.22338 -10.21251
 Alpha  occ. eigenvalues --  -10.21142 -10.20460  -8.58780  -7.98830  -6.54185
 Alpha  occ. eigenvalues --   -6.52920  -6.52849  -5.95184  -5.94856  -5.94578
 Alpha  occ. eigenvalues --   -2.65759  -2.65407  -2.65352  -2.64342  -2.64341
 Alpha  occ. eigenvalues --   -0.98055  -0.95637  -0.83477  -0.83167  -0.80332
 Alpha  occ. eigenvalues --   -0.75777  -0.73414  -0.72580  -0.65477  -0.61189
 Alpha  occ. eigenvalues --   -0.58485  -0.56788  -0.52283  -0.51069  -0.49493
 Alpha  occ. eigenvalues --   -0.45330  -0.44787  -0.43337  -0.42663  -0.42564
 Alpha  occ. eigenvalues --   -0.41083  -0.40521  -0.39786  -0.37766  -0.36610
 Alpha  occ. eigenvalues --   -0.33087  -0.29820  -0.29015  -0.28980  -0.28242
 Alpha  occ. eigenvalues --   -0.27177  -0.26433  -0.23202
 Alpha virt. eigenvalues --   -0.06503  -0.03745  -0.00073   0.00712   0.01141
 Alpha virt. eigenvalues --    0.06071   0.08463   0.09663   0.12302   0.12908
 Alpha virt. eigenvalues --    0.13542   0.14380   0.16633   0.17013   0.17948
 Alpha virt. eigenvalues --    0.19394   0.20806   0.23558   0.25271   0.25989
 Alpha virt. eigenvalues --    0.26994   0.30074   0.30725   0.33280   0.34720
 Alpha virt. eigenvalues --    0.36904   0.37365   0.40330   0.41835   0.42976
 Alpha virt. eigenvalues --    0.45695   0.45734   0.46341   0.46704   0.47650
 Alpha virt. eigenvalues --    0.48772   0.49391   0.51467   0.52067   0.52720
 Alpha virt. eigenvalues --    0.53496   0.54062   0.54896   0.56705   0.57613
 Alpha virt. eigenvalues --    0.59336   0.60075   0.60544   0.62091   0.63761
 Alpha virt. eigenvalues --    0.66396   0.67094   0.68750   0.70237   0.71818
 Alpha virt. eigenvalues --    0.73563   0.73659   0.74520   0.75834   0.78949
 Alpha virt. eigenvalues --    0.79846   0.80276   0.81327   0.82864   0.83719
 Alpha virt. eigenvalues --    0.84043   0.84115   0.85428   0.86991   0.87592
 Alpha virt. eigenvalues --    0.88981   0.89295   0.89635   0.90941   0.92071
 Alpha virt. eigenvalues --    0.93990   0.98312   1.00000   1.02043   1.04178
 Alpha virt. eigenvalues --    1.07005   1.08017   1.10868   1.15058   1.18614
 Alpha virt. eigenvalues --    1.20314   1.22848   1.25344   1.25857   1.29160
 Alpha virt. eigenvalues --    1.30837   1.34733   1.37783   1.38214   1.38787
 Alpha virt. eigenvalues --    1.41537   1.43490   1.45553   1.49543   1.51028
 Alpha virt. eigenvalues --    1.53183   1.57524   1.58313   1.62010   1.67975
 Alpha virt. eigenvalues --    1.68613   1.69424   1.70475   1.74557   1.78114
 Alpha virt. eigenvalues --    1.79987   1.81569   1.84564   1.86115   1.87905
 Alpha virt. eigenvalues --    1.89979   1.94422   1.96489   2.00833   2.02652
 Alpha virt. eigenvalues --    2.02820   2.03282   2.06300   2.07161   2.10875
 Alpha virt. eigenvalues --    2.11494   2.12011   2.13118   2.15966   2.21062
 Alpha virt. eigenvalues --    2.22262   2.22295   2.26694   2.28736   2.29778
 Alpha virt. eigenvalues --    2.32438   2.33099   2.39209   2.41265   2.45978
 Alpha virt. eigenvalues --    2.47633   2.49559   2.51190   2.52178   2.52781
 Alpha virt. eigenvalues --    2.56043   2.57499   2.61491   2.62723   2.64865
 Alpha virt. eigenvalues --    2.65421   2.66413   2.69170   2.70641   2.77118
 Alpha virt. eigenvalues --    2.79636   2.82952   2.85123   2.89073   2.94029
 Alpha virt. eigenvalues --    2.99963   3.02466   3.10283   3.14750   3.18132
 Alpha virt. eigenvalues --    3.24515   3.36340   3.38703   3.41285   3.44733
 Alpha virt. eigenvalues --    3.51772   3.66584   3.94291   4.03595   4.06782
 Alpha virt. eigenvalues --    4.08848   4.15190   4.19303   4.27474   4.32800
 Alpha virt. eigenvalues --    4.36433   4.43724   4.53813   4.72747   8.60184
 Alpha virt. eigenvalues --   72.78186
          Condensed to atoms (all electrons):
               1          2          3          4          5          6
     1  Br  34.939457   0.278719  -0.063673   0.003619  -0.000191  -0.000032
     2  C    0.278719   4.743796   0.401644  -0.029295   0.006588  -0.000051
     3  N   -0.063673   0.401644   6.953754   0.450896  -0.091563  -0.000394
     4  C    0.003619  -0.029295   0.450896   4.660724   0.293355   0.000941
     5  C   -0.000191   0.006588  -0.091563   0.293355   5.455944   0.482022
     6  C   -0.000032  -0.000051  -0.000394   0.000941   0.482022   4.747931
     7  N   -0.000000  -0.000004   0.000251   0.005968  -0.047942   0.451082
     8  C    0.000000   0.000002  -0.000042   0.004378  -0.054088  -0.109878
     9  S    0.000003  -0.000130   0.003318  -0.049342   0.321605  -0.096722
    10  C    0.000649  -0.047876  -0.071484   0.435827  -0.077245   0.007419
    11  C    0.004122  -0.020966  -0.034660  -0.011258   0.004577  -0.000090
    12  C   -0.000155   0.006698   0.000263   0.005635  -0.000195   0.000001
    13  C   -0.070785   0.458775  -0.042297  -0.039804   0.001184   0.000043
    14  H    0.000020  -0.000056   0.007097  -0.003094  -0.056130   0.392572
    15  H    0.000000  -0.000000   0.000001  -0.000047   0.002006   0.006114
    16  H    0.000015   0.000208   0.004700  -0.035668  -0.006360  -0.000073
    17  H    0.000003  -0.000185   0.000014  -0.000164   0.000005  -0.000000
    18  H   -0.000009   0.000172   0.000007  -0.000155   0.000002  -0.000000
    19  H    0.000002  -0.000201   0.000011   0.000200   0.000002  -0.000000
    20  H    0.000043  -0.040703   0.004941   0.000250   0.000018  -0.000001
               7          8          9         10         11         12
     1  Br  -0.000000   0.000000   0.000003   0.000649   0.004122  -0.000155
     2  C   -0.000004   0.000002  -0.000130  -0.047876  -0.020966   0.006698
     3  N    0.000251  -0.000042   0.003318  -0.071484  -0.034660   0.000263
     4  C    0.005968   0.004378  -0.049342   0.435827  -0.011258   0.005635
     5  C   -0.047942  -0.054088   0.321605  -0.077245   0.004577  -0.000195
     6  C    0.451082  -0.109878  -0.096722   0.007419  -0.000090   0.000001
     7  N    6.615623   0.505272  -0.085341  -0.000078   0.000001  -0.000000
     8  C    0.505272   5.045338   0.290242  -0.000104  -0.000002  -0.000000
     9  S   -0.085341   0.290242  15.410246  -0.002033   0.000582   0.000001
    10  C   -0.000078  -0.000104  -0.002033   5.118504   0.517398  -0.055929
    11  C    0.000001  -0.000002   0.000582   0.517398   4.691691   0.354728
    12  C   -0.000000  -0.000000   0.000001  -0.055929   0.354728   5.013224
    13  C    0.000000   0.000000  -0.000007  -0.034471   0.516205  -0.056102
    14  H   -0.047582   0.008242   0.004814   0.000139   0.000008   0.000000
    15  H   -0.034848   0.384014  -0.054531   0.000002   0.000000  -0.000000
    16  H   -0.000000   0.000026   0.006244   0.358622  -0.039670  -0.007891
    17  H   -0.000000   0.000000  -0.000002  -0.002161  -0.024981   0.374780
    18  H    0.000000   0.000000  -0.000000   0.002893  -0.028290   0.377897
    19  H   -0.000000   0.000000  -0.000005  -0.003983  -0.028589   0.377599
    20  H    0.000000  -0.000000  -0.000001   0.005905  -0.040987  -0.008852
              13         14         15         16         17         18
     1  Br  -0.070785   0.000020   0.000000   0.000015   0.000003  -0.000009
     2  C    0.458775  -0.000056  -0.000000   0.000208  -0.000185   0.000172
     3  N   -0.042297   0.007097   0.000001   0.004700   0.000014   0.000007
     4  C   -0.039804  -0.003094  -0.000047  -0.035668  -0.000164  -0.000155
     5  C    0.001184  -0.056130   0.002006  -0.006360   0.000005   0.000002
     6  C    0.000043   0.392572   0.006114  -0.000073  -0.000000  -0.000000
     7  N    0.000000  -0.047582  -0.034848  -0.000000  -0.000000   0.000000
     8  C    0.000000   0.008242   0.384014   0.000026   0.000000   0.000000
     9  S   -0.000007   0.004814  -0.054531   0.006244  -0.000002  -0.000000
    10  C   -0.034471   0.000139   0.000002   0.358622  -0.002161   0.002893
    11  C    0.516205   0.000008   0.000000  -0.039670  -0.024981  -0.028290
    12  C   -0.056102   0.000000  -0.000000  -0.007891   0.374780   0.377897
    13  C    5.014758   0.000008  -0.000000   0.006024  -0.001183  -0.003223
    14  H    0.000008   0.560855  -0.000150  -0.000012  -0.000000  -0.000000
    15  H   -0.000000  -0.000150   0.557737   0.000001  -0.000000  -0.000000
    16  H    0.006024  -0.000012   0.000001   0.607458   0.000756   0.000037
    17  H   -0.001183  -0.000000  -0.000000   0.000756   0.565283  -0.026643
    18  H   -0.003223  -0.000000  -0.000000   0.000037  -0.026643   0.576644
    19  H    0.002556  -0.000000  -0.000000   0.004079  -0.027723  -0.029828
    20  H    0.366104  -0.000000  -0.000000  -0.000104   0.000488   0.004587
              19         20
     1  Br   0.000002   0.000043
     2  C   -0.000201  -0.040703
     3  N    0.000011   0.004941
     4  C    0.000200   0.000250
     5  C    0.000002   0.000018
     6  C   -0.000000  -0.000001
     7  N   -0.000000   0.000000
     8  C    0.000000  -0.000000
     9  S   -0.000005  -0.000001
    10  C   -0.003983   0.005905
    11  C   -0.028589  -0.040987
    12  C    0.377599  -0.008852
    13  C    0.002556   0.366104
    14  H   -0.000000  -0.000000
    15  H   -0.000000  -0.000000
    16  H    0.004079  -0.000104
    17  H   -0.027723   0.000488
    18  H   -0.029828   0.004587
    19  H    0.578773   0.000066
    20  H    0.000066   0.602274
 Mulliken charges:
               1
     1  Br  -0.091807
     2  C    0.242865
     3  N   -0.522783
     4  C    0.307035
     5  C   -0.233594
     6  C    0.119117
     7  N   -0.362401
     8  C   -0.073399
     9  S    0.251057
    10  C   -0.151995
    11  C    0.140182
    12  C   -0.381701
    13  C   -0.117785
    14  H    0.133267
    15  H    0.139703
    16  H    0.101609
    17  H    0.141712
    18  H    0.125908
    19  H    0.127038
    20  H    0.105972
 Sum of Mulliken charges =  -0.00000
 Mulliken charges with hydrogens summed into heavy atoms:
               1
     1  Br  -0.091807
     2  C    0.242865
     3  N   -0.522783
     4  C    0.307035
     5  C   -0.233594
     6  C    0.252385
     7  N   -0.362401
     8  C    0.066304
     9  S    0.251057
    10  C   -0.050386
    11  C    0.140182
    12  C    0.012957
    13  C   -0.011813
 Electronic spatial extent (au):  <R**2>=           4576.2060
 Charge=             -0.0000 electrons
 Dipole moment (field-independent basis, Debye):
    X=              0.2867    Y=              4.4110    Z=              0.0299  Tot=              4.4205
 Quadrupole moment (field-independent basis, Debye-Ang):
   XX=            -87.1689   YY=            -89.2422   ZZ=            -95.7344
   XY=              2.0359   XZ=              0.0085   YZ=              0.0799
 Traceless Quadrupole moment (field-independent basis, Debye-Ang):
   XX=              3.5462   YY=              1.4730   ZZ=             -5.0192
   XY=              2.0359   XZ=              0.0085   YZ=              0.0799
 Octapole moment (field-independent basis, Debye-Ang**2):
  XXX=            -53.1634  YYY=             -3.2290  ZZZ=              0.5692  XYY=            -59.0495
  XXY=             10.4420  XXZ=             -0.4504  XZZ=            -33.7623  YZZ=            -13.0252
  YYZ=              0.2662  XYZ=             -0.1354
 Hexadecapole moment (field-independent basis, Debye-Ang**3):
 XXXX=          -3483.2740 YYYY=          -1484.7755 ZZZZ=           -108.1124 XXXY=            187.3102
 XXXZ=              2.1958 YYYX=            164.4926 YYYZ=              0.7113 ZZZX=             -0.6037
 ZZZY=              2.4913 XXYY=           -955.2272 XXZZ=           -688.5478 YYZZ=           -277.6746
 XXYZ=             -2.3013 YYXZ=             -0.4291 ZZXY=             40.4826
 N-N= 1.085719605970D+03 E-N=-1.030989820135D+04  KE= 3.405185265721D+03
 Calling FoFJK, ICntrl=      2127 FMM=F ISym2X=0 I1Cent= 0 IOpClX= 0 NMat=1 NMatS=1 NMatT=0.
 ***** Axes restored to original set *****
 -------------------------------------------------------------------
 Center     Atomic                   Forces (Hartrees/Bohr)
 Number     Number              X              Y              Z
 -------------------------------------------------------------------
      1       35           0.003068418   -0.000225433   -0.000114426
      2        6           0.029458941    0.032642494    0.008178181
      3        7          -0.021012983   -0.011204933   -0.002936896
      4        6           0.014162661   -0.013631484   -0.002517495
      5        6          -0.007323444   -0.006901383   -0.001702333
      6        6          -0.050312400   -0.024011882   -0.005527949
      7        7           0.032585499    0.023398958    0.005406267
      8        6           0.008296364    0.005202437    0.001208395
      9       16          -0.004124602   -0.002142440   -0.000490373
     10        6           0.001083557   -0.007430182   -0.000796877
     11        6          -0.003439674    0.005761906   -0.001946502
     12        6           0.005718404   -0.003222396   -0.005117800
     13        6           0.001532040   -0.004279098   -0.000183611
     14        1          -0.005250592   -0.002289643   -0.000535557
     15        1           0.001180346    0.003567816    0.000821405
     16        1           0.000181606    0.004496085    0.000663868
     17        1          -0.002065790    0.000714993    0.002701718
     18        1          -0.001795368   -0.002674688    0.001560484
     19        1           0.001435072    0.002517335    0.001748639
     20        1          -0.003378055   -0.000288461   -0.000419139
 -------------------------------------------------------------------
 Cartesian Forces:  Max     0.050312400 RMS     0.011755113

 GradGradGradGradGradGradGradGradGradGradGradGradGradGradGradGradGradGrad
 Berny optimization.
 FormGI is forming the generalized inverse of G from B-inverse, IUseBI=4.
 Internal  Forces:  Max     0.046334306 RMS     0.007741924
 Search for a local minimum.
 Step number   1 out of a maximum of  106
 All quantities printed in internal units (Hartrees-Bohrs-Radians)
 Mixed Optimization -- RFO/linear search
 Second derivative matrix not updated -- first step.
 ITU=  0
     Eigenvalues ---    0.00552   0.00793   0.01361   0.01483   0.01640
     Eigenvalues ---    0.01657   0.02095   0.02111   0.02116   0.02139
     Eigenvalues ---    0.02142   0.02189   0.02213   0.02301   0.02582
     Eigenvalues ---    0.07092   0.07204   0.16000   0.16000   0.16000
     Eigenvalues ---    0.16000   0.16000   0.16000   0.16000   0.18125
     Eigenvalues ---    0.23227   0.23488   0.23522   0.23684   0.24996
     Eigenvalues ---    0.25000   0.25000   0.25000   0.25000   0.30080
     Eigenvalues ---    0.30741   0.31702   0.32590   0.34742   0.34759
     Eigenvalues ---    0.34802   0.35899   0.36076   0.36173   0.36208
     Eigenvalues ---    0.42187   0.43694   0.43855   0.45793   0.46239
     Eigenvalues ---    0.51407   0.52714   0.60163   0.63077
 RFO step:  Lambda=-1.29196969D-02 EMin= 5.52387374D-03
 Linear search not attempted -- first point.
 Iteration  1 RMS(Cart)=  0.04158334 RMS(Int)=  0.00036455
 Iteration  2 RMS(Cart)=  0.00047708 RMS(Int)=  0.00007406
 Iteration  3 RMS(Cart)=  0.00000012 RMS(Int)=  0.00007406
 Variable       Old X    -DE/DX   Delta X   Delta X   Delta X     New X
                                 (Linear)    (Quad)   (Total)
    R1        3.59535  -0.00005   0.00000  -0.00026  -0.00026   3.59510
    R2        2.56385  -0.03608   0.00000  -0.06776  -0.06772   2.49613
    R3        2.63631  -0.00059   0.00000  -0.00185  -0.00173   2.63458
    R4        2.57114  -0.01498   0.00000  -0.02929  -0.02937   2.54176
    R5        2.83077  -0.02465   0.00000  -0.07276  -0.07276   2.75801
    R6        2.64772  -0.00125   0.00000  -0.00216  -0.00229   2.64543
    R7        2.64583  -0.01796   0.00000  -0.03830  -0.03828   2.60755
    R8        3.30626   0.00163   0.00000  -0.00012  -0.00007   3.30619
    R9        2.48920   0.04633   0.00000   0.07492   0.07489   2.56408
   R10        2.04239   0.00205   0.00000   0.00552   0.00552   2.04791
   R11        2.46620   0.00477   0.00000   0.00906   0.00901   2.47521
   R12        3.26841   0.00479   0.00000   0.01273   0.01272   3.28113
   R13        2.03757   0.00339   0.00000   0.00905   0.00905   2.04662
   R14        2.64115  -0.00448   0.00000  -0.00708  -0.00711   2.63403
   R15        2.03812   0.00452   0.00000   0.01207   0.01207   2.05019
   R16        2.86510  -0.00409   0.00000  -0.01276  -0.01276   2.85233
   R17        2.63986  -0.00311   0.00000  -0.00474  -0.00466   2.63521
   R18        2.05998   0.00317   0.00000   0.00877   0.00877   2.06875
   R19        2.06068   0.00155   0.00000   0.00431   0.00431   2.06499
   R20        2.06096   0.00197   0.00000   0.00546   0.00546   2.06643
   R21        2.03963   0.00321   0.00000   0.00858   0.00858   2.04821
    A1        2.07299  -0.01242   0.00000  -0.04496  -0.04504   2.02795
    A2        2.07607  -0.00135   0.00000  -0.00287  -0.00295   2.07311
    A3        2.13412   0.01377   0.00000   0.04783   0.04798   2.18211
    A4        2.07507  -0.00642   0.00000  -0.03481  -0.03486   2.04021
    A5        2.00177  -0.00215   0.00000  -0.00736  -0.00727   1.99450
    A6        2.12318   0.00599   0.00000   0.02115   0.02097   2.14415
    A7        2.15823  -0.00384   0.00000  -0.01380  -0.01370   2.14453
    A8        2.27316  -0.00942   0.00000  -0.03294  -0.03298   2.24018
    A9        2.13858   0.00318   0.00000   0.01498   0.01495   2.15352
   A10        1.87145   0.00624   0.00000   0.01796   0.01803   1.88948
   A11        2.05149  -0.00676   0.00000  -0.02231  -0.02232   2.02918
   A12        2.16293  -0.00211   0.00000  -0.02059  -0.02059   2.14234
   A13        2.06876   0.00887   0.00000   0.04290   0.04290   2.11166
   A14        1.93716  -0.00052   0.00000   0.01460   0.01450   1.95166
   A15        2.01647  -0.00665   0.00000  -0.02428  -0.02432   1.99214
   A16        2.15110   0.00517   0.00000   0.02281   0.02284   2.17393
   A17        2.11563   0.00148   0.00000   0.00146   0.00149   2.11711
   A18        1.54821   0.00769   0.00000   0.01402   0.01411   1.56232
   A19        2.07975  -0.00104   0.00000   0.00249   0.00235   2.08210
   A20        2.10542   0.00087   0.00000   0.00078   0.00085   2.10627
   A21        2.09802   0.00017   0.00000  -0.00327  -0.00320   2.09482
   A22        2.10139   0.00447   0.00000   0.01281   0.01268   2.11407
   A23        2.07818  -0.00794   0.00000  -0.02147  -0.02149   2.05669
   A24        2.10347   0.00348   0.00000   0.00906   0.00893   2.11240
   A25        1.92931   0.00124   0.00000   0.00203   0.00201   1.93132
   A26        1.94193  -0.00069   0.00000  -0.00231  -0.00236   1.93957
   A27        1.93146   0.00008   0.00000   0.00390   0.00387   1.93533
   A28        1.90347  -0.00165   0.00000  -0.01595  -0.01598   1.88750
   A29        1.89456  -0.00139   0.00000  -0.01124  -0.01124   1.88332
   A30        1.86122   0.00238   0.00000   0.02368   0.02362   1.88484
   A31        2.07604  -0.00436   0.00000  -0.01516  -0.01494   2.06111
   A32        2.09175   0.00333   0.00000   0.01422   0.01411   2.10587
   A33        2.11539   0.00103   0.00000   0.00094   0.00082   2.11621
    D1        3.13982  -0.00002   0.00000   0.00017   0.00017   3.13999
    D2       -0.00096   0.00012   0.00000   0.00395   0.00394   0.00298
    D3        3.13953   0.00009   0.00000   0.00331   0.00331  -3.14034
    D4       -0.00051   0.00009   0.00000   0.00286   0.00286   0.00235
    D5       -0.00288  -0.00006   0.00000  -0.00050  -0.00056  -0.00344
    D6        3.14027  -0.00006   0.00000  -0.00095  -0.00101   3.13926
    D7       -3.13964  -0.00001   0.00000  -0.00098  -0.00091  -3.14055
    D8        0.00078  -0.00010   0.00000  -0.00347  -0.00343  -0.00264
    D9        0.00255  -0.00004   0.00000  -0.00115  -0.00114   0.00141
   D10       -3.13888  -0.00003   0.00000  -0.00091  -0.00089  -3.13977
   D11       -3.13785   0.00004   0.00000   0.00137   0.00135  -3.13650
   D12        0.00391   0.00005   0.00000   0.00162   0.00160   0.00551
   D13        0.00322   0.00002   0.00000  -0.00040  -0.00035   0.00287
   D14       -3.14000   0.00004   0.00000   0.00070   0.00072  -3.13927
   D15       -3.13965  -0.00008   0.00000  -0.00311  -0.00308   3.14046
   D16        0.00032  -0.00005   0.00000  -0.00201  -0.00200  -0.00169
   D17       -3.14139   0.00000   0.00000   0.00020   0.00020  -3.14119
   D18       -0.00009   0.00001   0.00000   0.00028   0.00028   0.00019
   D19        0.00006  -0.00000   0.00000  -0.00002  -0.00002   0.00004
   D20        3.14135   0.00000   0.00000   0.00007   0.00007   3.14142
   D21        3.14146  -0.00001   0.00000  -0.00021  -0.00021   3.14125
   D22        0.00000  -0.00000   0.00000  -0.00000  -0.00000   0.00000
   D23       -0.00010   0.00000   0.00000   0.00004   0.00004  -0.00007
   D24       -3.14142  -0.00000   0.00000  -0.00003  -0.00004  -3.14145
   D25        0.00010  -0.00000   0.00000  -0.00004  -0.00004   0.00007
   D26       -3.14157   0.00000   0.00000   0.00009   0.00009  -3.14148
   D27       -0.00006   0.00000   0.00000   0.00002   0.00002  -0.00004
   D28       -3.14157  -0.00000   0.00000  -0.00010  -0.00010   3.14151
   D29       -3.13047  -0.00065   0.00000  -0.02109  -0.02102   3.13170
   D30       -0.00697   0.00009   0.00000   0.00391   0.00382  -0.00315
   D31        0.01274  -0.00068   0.00000  -0.02218  -0.02209  -0.00935
   D32        3.13624   0.00006   0.00000   0.00282   0.00275   3.13899
   D33       -1.49638   0.00006   0.00000   0.01014   0.01029  -1.48610
   D34        2.66910   0.00177   0.00000   0.03054   0.03069   2.69979
   D35        0.60313  -0.00082   0.00000  -0.00007   0.00005   0.60317
   D36        1.66357  -0.00057   0.00000  -0.01491  -0.01504   1.64853
   D37       -0.45414   0.00114   0.00000   0.00549   0.00537  -0.44877
   D38       -2.52011  -0.00145   0.00000  -0.02511  -0.02527  -2.54539
   D39        0.00680  -0.00007   0.00000  -0.00352  -0.00345   0.00335
   D40       -3.13637  -0.00007   0.00000  -0.00306  -0.00298  -3.13935
   D41        3.13027   0.00068   0.00000   0.02154   0.02141  -3.13150
   D42       -0.01289   0.00068   0.00000   0.02201   0.02188   0.00898
         Item               Value     Threshold  Converged?
 Maximum Force            0.046334     0.000450     NO 
 RMS     Force            0.007742     0.000300     NO 
 Maximum Displacement     0.228039     0.001800     NO 
 RMS     Displacement     0.041666     0.001200     NO 
 Predicted change in Energy=-6.699776D-03
 GradGradGradGradGradGradGradGradGradGradGradGradGradGradGradGradGradGrad

                          Input orientation:                          
 ---------------------------------------------------------------------
 Center     Atomic      Atomic             Coordinates (Angstroms)
 Number     Number       Type             X           Y           Z
 ---------------------------------------------------------------------
      1         35           0       -0.978374   -4.014378   -0.872509
      2          6           0       -0.842857   -2.163931   -0.452072
      3          7           0        0.380907   -1.680112   -0.337704
      4          6           0        0.493155   -0.372664   -0.042547
      5          6           0        1.869001    0.101370    0.068853
      6          6           0        3.037169   -0.615562   -0.090515
      7          7           0        4.193089    0.076580    0.070249
      8          6           0        3.971104    1.335535    0.355552
      9         16           0        2.289240    1.757236    0.446305
     10          6           0       -0.615381    0.463014    0.137783
     11          6           0       -1.897801   -0.068594    0.012622
     12          6           0       -3.121937    0.791877    0.210967
     13          6           0       -2.013838   -1.424021   -0.293899
     14          1           0        3.048327   -1.672324   -0.330401
     15          1           0        4.746022    2.072846    0.525310
     16          1           0       -0.483945    1.513913    0.373097
     17          1           0       -3.385716    0.849484    1.271884
     18          1           0       -3.979902    0.387323   -0.331550
     19          1           0       -2.945156    1.809798   -0.147282
     20          1           0       -2.984005   -1.894089   -0.406046
 ---------------------------------------------------------------------
                    Distance matrix (angstroms):
                    1          2          3          4          5
     1  Br   0.000000
     2  C    1.902442   0.000000
     3  N    2.753626   1.320893   0.000000
     4  C    4.014513   2.271844   1.345043   0.000000
     5  C    5.092454   3.571712   2.356564   1.459476   0.000000
     6  C    5.318651   4.193182   2.872298   2.556034   1.379857
     7  N    6.660987   5.536556   4.217241   3.728814   2.324220
     8  C    7.391010   6.006059   4.739646   3.895197   2.454424
     9  S    6.762256   5.098300   4.008961   2.828670   1.749560
    10  C    4.604291   2.701947   2.410741   1.399903   2.511512
    11  C    4.147049   2.391503   2.812869   2.410845   3.771054
    12  C    5.372976   3.790861   4.322232   3.806483   5.040482
    13  C    2.849022   1.394159   2.408798   2.730118   4.187463
    14  H    4.689714   3.924002   2.667441   2.881125   2.167073
    15  H    8.472125   7.081040   5.820973   4.938609   3.517431
    16  H    5.688409   3.786325   3.384525   2.164869   2.761195
    17  H    5.835313   4.303350   4.814258   4.273993   5.442335
    18  H    5.355071   4.045302   4.826073   4.546355   5.869562
    19  H    6.189928   4.505893   4.824772   4.073830   5.112880
    20  H    2.955634   2.158576   3.372402   3.812809   5.268687
                    6          7          8          9         10
     6  C    0.000000
     7  N    1.356855   0.000000
     8  C    2.208617   1.309826   0.000000
     9  S    2.545141   2.567229   1.736299   0.000000
    10  C    3.815307   4.824446   4.673817   3.194843   0.000000
    11  C    4.966261   6.092892   6.044273   4.588361   1.393870
    12  C    6.325058   7.351262   7.115314   5.501649   2.529096
    13  C    5.119340   6.396120   6.622422   5.402294   2.388082
    14  H    1.083705   2.128301   3.220135   3.597411   4.266336
    15  H    3.244527   2.120824   1.083025   2.478231   5.611273
    16  H    4.140995   4.902274   4.458653   2.784802   1.084913
    17  H    6.727254   7.712301   7.429583   5.806094   3.018327
    18  H    7.092472   8.188759   8.036773   6.464044   3.397941
    19  H    6.455525   7.348871   6.950714   5.268208   2.706092
    20  H    6.163500   7.457953   7.706105   6.470378   3.385568
                   11         12         13         14         15
    11  C    0.000000
    12  C    1.509390   0.000000
    13  C    1.394491   2.528434   0.000000
    14  H    5.210931   6.666148   5.068383   0.000000
    15  H    6.999215   7.977749   7.654731   4.200085   0.000000
    16  H    2.152501   2.739822   3.378893   4.808738   5.261952
    17  H    2.154646   1.094734   3.082621   7.093923   8.257067
    18  H    2.159041   1.092746   2.673536   7.323807   8.928435
    19  H    2.156589   1.093507   3.368447   6.934013   7.725011
    20  H    2.165076   2.759374   1.083866   6.036881   8.738268
                   16         17         18         19         20
    16  H    0.000000
    17  H    3.109591   0.000000
    18  H    3.739980   1.771342   0.000000
    19  H    2.532963   1.769274   1.768641   0.000000
    20  H    4.297888   3.240990   2.490422   3.713118   0.000000
 Stoichiometry    C9H7BrN2S
 Framework group  C1[X(C9H7BrN2S)]
 Deg. of freedom    54
 Full point group                 C1      NOp   1
 Largest Abelian subgroup         C1      NOp   1
 Largest concise Abelian subgroup C1      NOp   1
                         Standard orientation:                         
 ---------------------------------------------------------------------
 Center     Atomic      Atomic             Coordinates (Angstroms)
 Number     Number       Type             X           Y           Z
 ---------------------------------------------------------------------
      1         35           0       -3.039592   -1.248127    0.000370
      2          6           0       -1.593370   -0.012114    0.001402
      3          7           0       -0.380090   -0.534331    0.001974
      4          6           0        0.653030    0.326948    0.000788
      5          6           0        1.965839   -0.310707    0.000109
      6          6           0        2.263233   -1.658135   -0.000992
      7          7           0        3.580825   -1.982178   -0.000936
      8          6           0        4.344028   -0.917677    0.000108
      9         16           0        3.470118    0.582661    0.001215
     10          6           0        0.483249    1.716509   -0.004087
     11          6           0       -0.806101    2.246084   -0.004435
     12          6           0       -1.036978    3.737693    0.003178
     13          6           0       -1.876986    1.352883   -0.003727
     14          1           0        1.499531   -2.427015   -0.001668
     15          1           0        5.426860   -0.938124    0.000254
     16          1           0        1.342281    2.379149   -0.007059
     17          1           0       -1.012989    4.126970    1.026081
     18          1           0       -2.006695    3.988424   -0.433715
     19          1           0       -0.263675    4.254815   -0.571577
     20          1           0       -2.902296    1.704309   -0.006028
 ---------------------------------------------------------------------
 Rotational constants (GHZ):           0.8601673           0.2840022           0.2137937
 Standard basis: 6-31G(d,p) (6D, 7F)
 There are   249 symmetry adapted cartesian basis functions of A   symmetry.
 There are   249 symmetry adapted basis functions of A   symmetry.
   249 basis functions,   492 primitive gaussians,   249 cartesian basis functions
    63 alpha electrons       63 beta electrons
       nuclear repulsion energy      1094.5062742238 Hartrees.
 NAtoms=   20 NActive=   20 NUniq=   20 SFac= 1.00D+00 NAtFMM=   60 NAOKFM=F Big=F
 Integral buffers will be    131072 words long.
 Raffenetti 2 integral format.
 Two-electron integral symmetry is turned on.
 Nuclear repulsion after empirical dispersion term =     1094.4589570562 Hartrees.
 One-electron integrals computed using PRISM.
 NBasis=   249 RedAO= T EigKep=  6.53D-04  NBF=   249
 NBsUse=   249 1.00D-06 EigRej= -1.00D+00 NBFU=   249
 Initial guess from the checkpoint file:  "pyrd8_conf-2.chk"
 B after Tr=     0.000000    0.000000   -0.000000
         Rot=    1.000000   -0.000068   -0.000004    0.000191 Ang=  -0.02 deg.
 ExpMin= 1.17D-01 ExpMax= 5.74D+05 ExpMxC= 5.74D+03 IAcc=3 IRadAn=         5 AccDes= 0.00D+00
 Harris functional with IExCor=  402 and IRadAn=       5 diagonalized for initial guess.
 HarFok:  IExCor=  402 AccDes= 0.00D+00 IRadAn=         5 IDoV= 1 UseB2=F ITyADJ=14
 ICtDFT=  3500011 ScaDFX=  1.000000  1.000000  1.000000  1.000000
 FoFCou: FMM=F IPFlag=           0 FMFlag=      100000 FMFlg1=           0
         NFxFlg=           0 DoJE=T BraDBF=F KetDBF=T FulRan=T
         wScrn=  0.000000 ICntrl=       500 IOpCl=  0 I1Cent=   200000004 NGrid=           0
         NMat0=    1 NMatS0=      1 NMatT0=    0 NMatD0=    1 NMtDS0=    0 NMtDT0=    0
 Petite list used in FoFCou.
 Requested convergence on RMS density matrix=1.00D-08 within 128 cycles.
 Requested convergence on MAX density matrix=1.00D-06.
 Requested convergence on             energy=1.00D-06.
 No special actions if energy rises.
 Integral accuracy reduced to 1.0D-05 until final iterations.
 Initial convergence to 1.0D-05 achieved.  Increase integral accuracy.
 SCF Done:  E(RB3LYP) =  -3426.62704140     A.U. after   13 cycles
            NFock= 13  Conv=0.49D-08     -V/T= 2.0063
 Calling FoFJK, ICntrl=      2127 FMM=F ISym2X=0 I1Cent= 0 IOpClX= 0 NMat=1 NMatS=1 NMatT=0.
 ***** Axes restored to original set *****
 -------------------------------------------------------------------
 Center     Atomic                   Forces (Hartrees/Bohr)
 Number     Number              X              Y              Z
 -------------------------------------------------------------------
      1       35          -0.001012953   -0.005160094   -0.001139877
      2        6           0.005161728    0.005696183    0.001270143
      3        7          -0.008289574   -0.005115437   -0.001093112
      4        6           0.005258966    0.003261117    0.000784760
      5        6           0.004554449    0.005303020    0.001202793
      6        6          -0.011005887   -0.002282827   -0.000523086
      7        7           0.012996394    0.007604231    0.001757530
      8        6          -0.000684142   -0.010908503   -0.002478607
      9       16          -0.004727283    0.003291443    0.000738135
     10        6           0.001064419   -0.000844224    0.000202955
     11        6          -0.003287659    0.002165221   -0.000107952
     12        6           0.001850604   -0.000880932   -0.002303466
     13        6          -0.002701611   -0.002834798   -0.000291580
     14        1           0.000768476    0.001214368    0.000272236
     15        1          -0.000377165   -0.000273315   -0.000063028
     16        1           0.000473939   -0.000088705   -0.000238288
     17        1          -0.000391417    0.000132963    0.000459957
     18        1          -0.000337690   -0.000416866    0.000881701
     19        1           0.000085791    0.000203908    0.000903750
     20        1           0.000600616   -0.000066753   -0.000234964
 -------------------------------------------------------------------
 Cartesian Forces:  Max     0.012996394 RMS     0.003738150

 GradGradGradGradGradGradGradGradGradGradGradGradGradGradGradGradGradGrad
 Berny optimization.
 Using GEDIIS/GDIIS optimizer.
 FormGI is forming the generalized inverse of G from B-inverse, IUseBI=4.
 Internal  Forces:  Max     0.007566360 RMS     0.002015708
 Search for a local minimum.
 Step number   2 out of a maximum of  106
 All quantities printed in internal units (Hartrees-Bohrs-Radians)
 Mixed Optimization -- RFO/linear search
 Update second derivatives using D2CorX and points    1    2
 DE= -6.51D-03 DEPred=-6.70D-03 R= 9.72D-01
 TightC=F SS=  1.41D+00  RLast= 1.92D-01 DXNew= 5.0454D-01 5.7663D-01
 Trust test= 9.72D-01 RLast= 1.92D-01 DXMaxT set to 5.05D-01
 ITU=  1  0
 Use linear search instead of GDIIS.
     Eigenvalues ---    0.00552   0.00793   0.01355   0.01472   0.01632
     Eigenvalues ---    0.01666   0.02095   0.02110   0.02129   0.02138
     Eigenvalues ---    0.02142   0.02188   0.02213   0.02313   0.02583
     Eigenvalues ---    0.07059   0.07162   0.15941   0.16000   0.16000
     Eigenvalues ---    0.16000   0.16000   0.16000   0.16087   0.17974
     Eigenvalues ---    0.22335   0.23480   0.23632   0.23714   0.24694
     Eigenvalues ---    0.24999   0.25000   0.25000   0.27143   0.29946
     Eigenvalues ---    0.30634   0.31350   0.34477   0.34752   0.34780
     Eigenvalues ---    0.34839   0.35942   0.36107   0.36188   0.36457
     Eigenvalues ---    0.41844   0.43226   0.44102   0.45785   0.46261
     Eigenvalues ---    0.50208   0.54576   0.56998   0.64589
 RFO step:  Lambda=-1.27460176D-03 EMin= 5.52387361D-03
 Quartic linear search produced a step of -0.00037.
 Iteration  1 RMS(Cart)=  0.01133624 RMS(Int)=  0.00007894
 Iteration  2 RMS(Cart)=  0.00011349 RMS(Int)=  0.00001440
 Iteration  3 RMS(Cart)=  0.00000001 RMS(Int)=  0.00001440
 Variable       Old X    -DE/DX   Delta X   Delta X   Delta X     New X
                                 (Linear)    (Quad)   (Total)
    R1        3.59510   0.00534   0.00000   0.02923   0.02923   3.62432
    R2        2.49613  -0.00291   0.00003  -0.01226  -0.01224   2.48389
    R3        2.63458   0.00032   0.00000   0.00025   0.00024   2.63482
    R4        2.54176   0.00589   0.00001   0.00827   0.00828   2.55004
    R5        2.75801   0.00279   0.00003   0.00138   0.00141   2.75942
    R6        2.64543   0.00021   0.00000   0.00050   0.00051   2.64594
    R7        2.60755  -0.00155   0.00001  -0.00646  -0.00647   2.60108
    R8        3.30619  -0.00145   0.00000  -0.00447  -0.00448   3.30171
    R9        2.56408   0.00757  -0.00003   0.01965   0.01961   2.58370
   R10        2.04791  -0.00124  -0.00000  -0.00289  -0.00289   2.04502
   R11        2.47521  -0.00597  -0.00000  -0.00847  -0.00845   2.46676
   R12        3.28113   0.00466  -0.00000   0.01456   0.01458   3.29571
   R13        2.04662  -0.00047  -0.00000  -0.00039  -0.00040   2.04622
   R14        2.63403   0.00341   0.00000   0.00691   0.00692   2.64095
   R15        2.05019  -0.00008  -0.00000   0.00096   0.00096   2.05115
   R16        2.85233  -0.00153   0.00000  -0.00622  -0.00621   2.84612
   R17        2.63521   0.00223   0.00000   0.00431   0.00431   2.63952
   R18        2.06875   0.00055  -0.00000   0.00243   0.00242   2.07117
   R19        2.06499  -0.00002  -0.00000   0.00037   0.00037   2.06536
   R20        2.06643  -0.00009  -0.00000   0.00027   0.00027   2.06670
   R21        2.04821  -0.00048  -0.00000  -0.00049  -0.00050   2.04771
    A1        2.02795   0.00090   0.00002  -0.00042  -0.00040   2.02756
    A2        2.07311  -0.00138   0.00000  -0.00535  -0.00535   2.06777
    A3        2.18211   0.00048  -0.00002   0.00578   0.00575   2.18786
    A4        2.04021   0.00323   0.00001   0.00894   0.00895   2.04916
    A5        1.99450   0.00410   0.00000   0.01533   0.01533   2.00983
    A6        2.14415  -0.00427  -0.00001  -0.01440  -0.01440   2.12975
    A7        2.14453   0.00017   0.00001  -0.00093  -0.00093   2.14360
    A8        2.24018  -0.00331   0.00001  -0.01691  -0.01688   2.22330
    A9        2.15352   0.00189  -0.00001   0.00846   0.00848   2.16200
   A10        1.88948   0.00143  -0.00001   0.00846   0.00840   1.89788
   A11        2.02918   0.00167   0.00001   0.00662   0.00659   2.03577
   A12        2.14234  -0.00003   0.00001  -0.00146  -0.00143   2.14091
   A13        2.11166  -0.00163  -0.00002  -0.00516  -0.00516   2.10650
   A14        1.95166  -0.00580  -0.00001  -0.02280  -0.02278   1.92888
   A15        1.99214   0.00572   0.00001   0.02078   0.02083   2.01297
   A16        2.17393  -0.00280  -0.00001  -0.00895  -0.00898   2.16495
   A17        2.11711  -0.00293  -0.00000  -0.01183  -0.01185   2.10526
   A18        1.56232  -0.00301  -0.00001  -0.01306  -0.01305   1.54927
   A19        2.08210   0.00126  -0.00000   0.00692   0.00693   2.08903
   A20        2.10627  -0.00113  -0.00000  -0.00635  -0.00636   2.09991
   A21        2.09482  -0.00013   0.00000  -0.00057  -0.00058   2.09425
   A22        2.11407  -0.00005  -0.00000   0.00085   0.00081   2.11488
   A23        2.05669   0.00038   0.00001  -0.00031  -0.00033   2.05637
   A24        2.11240  -0.00033  -0.00000  -0.00063  -0.00067   2.11173
   A25        1.93132  -0.00003  -0.00000  -0.00253  -0.00253   1.92879
   A26        1.93957   0.00027   0.00000   0.00252   0.00250   1.94207
   A27        1.93533   0.00040  -0.00000   0.00438   0.00435   1.93968
   A28        1.88750  -0.00061   0.00001  -0.00818  -0.00817   1.87932
   A29        1.88332  -0.00054   0.00000  -0.00645  -0.00645   1.87688
   A30        1.88484   0.00046  -0.00001   0.00998   0.00993   1.89477
   A31        2.06111  -0.00107   0.00001  -0.00692  -0.00691   2.05420
   A32        2.10587   0.00015  -0.00001   0.00175   0.00174   2.10761
   A33        2.11621   0.00091  -0.00000   0.00517   0.00517   2.12138
    D1        3.13999   0.00000  -0.00000   0.00082   0.00082   3.14081
    D2        0.00298  -0.00004  -0.00000  -0.00144  -0.00145   0.00153
    D3       -3.14034  -0.00004  -0.00000  -0.00104  -0.00105  -3.14139
    D4        0.00235  -0.00007  -0.00000  -0.00245  -0.00245  -0.00009
    D5       -0.00344   0.00002   0.00000   0.00129   0.00129  -0.00215
    D6        3.13926  -0.00001   0.00000  -0.00011  -0.00011   3.13914
    D7       -3.14055   0.00003   0.00000   0.00058   0.00058  -3.13997
    D8       -0.00264   0.00005   0.00000   0.00131   0.00131  -0.00134
    D9        0.00141  -0.00000   0.00000   0.00002   0.00002   0.00143
   D10       -3.13977   0.00000   0.00000   0.00046   0.00046  -3.13931
   D11       -3.13650  -0.00001  -0.00000  -0.00068  -0.00068  -3.13718
   D12        0.00551  -0.00000  -0.00000  -0.00024  -0.00024   0.00527
   D13        0.00287  -0.00001   0.00000  -0.00102  -0.00101   0.00185
   D14       -3.13927   0.00002  -0.00000   0.00062   0.00063  -3.13865
   D15        3.14046   0.00001   0.00000  -0.00019  -0.00020   3.14026
   D16       -0.00169   0.00004   0.00000   0.00145   0.00145  -0.00024
   D17       -3.14119  -0.00000  -0.00000   0.00003   0.00003  -3.14116
   D18        0.00019   0.00001  -0.00000   0.00039   0.00038   0.00057
   D19        0.00004  -0.00001   0.00000  -0.00035  -0.00036  -0.00032
   D20        3.14142   0.00000  -0.00000  -0.00000  -0.00000   3.14142
   D21        3.14125  -0.00000   0.00000  -0.00011  -0.00012   3.14113
   D22        0.00000   0.00000   0.00000   0.00026   0.00026   0.00026
   D23       -0.00007   0.00001  -0.00000   0.00027   0.00027   0.00020
   D24       -3.14145  -0.00000   0.00000  -0.00008  -0.00008  -3.14153
   D25        0.00007  -0.00000   0.00000  -0.00004  -0.00004   0.00002
   D26       -3.14148  -0.00000  -0.00000  -0.00005  -0.00005  -3.14154
   D27       -0.00004  -0.00000  -0.00000  -0.00013  -0.00013  -0.00017
   D28        3.14151  -0.00000   0.00000  -0.00012  -0.00012   3.14139
   D29        3.13170  -0.00024   0.00001  -0.01416  -0.01416   3.11754
   D30       -0.00315  -0.00003  -0.00000   0.00075   0.00076  -0.00239
   D31       -0.00935  -0.00026   0.00001  -0.01580  -0.01579  -0.02514
   D32        3.13899  -0.00006  -0.00000  -0.00088  -0.00088   3.13811
   D33       -1.48610   0.00006  -0.00000   0.00851   0.00851  -1.47759
   D34        2.69979   0.00066  -0.00001   0.01882   0.01883   2.71862
   D35        0.60317  -0.00037  -0.00000   0.00162   0.00160   0.60477
   D36        1.64853  -0.00015   0.00001  -0.00688  -0.00688   1.64165
   D37       -0.44877   0.00045  -0.00000   0.00343   0.00344  -0.44533
   D38       -2.54539  -0.00058   0.00001  -0.01377  -0.01378  -2.55917
   D39        0.00335   0.00002   0.00000  -0.00089  -0.00088   0.00246
   D40       -3.13935   0.00005   0.00000   0.00052   0.00053  -3.13882
   D41       -3.13150   0.00022  -0.00001   0.01400   0.01399  -3.11751
   D42        0.00898   0.00025  -0.00001   0.01542   0.01541   0.02439
         Item               Value     Threshold  Converged?
 Maximum Force            0.007566     0.000450     NO 
 RMS     Force            0.002016     0.000300     NO 
 Maximum Displacement     0.035417     0.001800     NO 
 RMS     Displacement     0.011337     0.001200     NO 
 Predicted change in Energy=-6.415015D-04
 GradGradGradGradGradGradGradGradGradGradGradGradGradGradGradGradGradGrad

                          Input orientation:                          
 ---------------------------------------------------------------------
 Center     Atomic      Atomic             Coordinates (Angstroms)
 Number     Number       Type             X           Y           Z
 ---------------------------------------------------------------------
      1         35           0       -0.975603   -4.026227   -0.869197
      2          6           0       -0.841466   -2.158875   -0.452814
      3          7           0        0.375825   -1.676908   -0.336205
      4          6           0        0.499264   -0.365196   -0.044447
      5          6           0        1.872212    0.118333    0.071563
      6          6           0        3.030379   -0.609004   -0.083995
      7          7           0        4.206567    0.069703    0.074968
      8          6           0        3.976874    1.323966    0.354284
      9         16           0        2.293900    1.772337    0.444544
     10          6           0       -0.614865    0.464932    0.128996
     11          6           0       -1.900951   -0.066855    0.001410
     12          6           0       -3.122652    0.788568    0.211266
     13          6           0       -2.017538   -1.425404   -0.301446
     14          1           0        3.029585   -1.665067   -0.320286
     15          1           0        4.753438    2.059364    0.523480
     16          1           0       -0.483345    1.517185    0.360521
     17          1           0       -3.376901    0.840374    1.276124
     18          1           0       -3.987991    0.380450   -0.317079
     19          1           0       -2.952573    1.811217   -0.137061
     20          1           0       -2.985058   -1.899592   -0.416527
 ---------------------------------------------------------------------
                    Distance matrix (angstroms):
                    1          2          3          4          5
     1  Br   0.000000
     2  C    1.917908   0.000000
     3  N    2.762198   1.314416   0.000000
     4  C    4.032195   2.276314   1.349426   0.000000
     5  C    5.115903   3.581159   2.372412   1.460221   0.000000
     6  C    5.323707   4.186803   2.872401   2.543138   1.376433
     7  N    6.672554   5.543262   4.230165   3.734634   2.334864
     8  C    7.392462   5.999832   4.738098   3.886647   2.441942
     9  S    6.785198   5.107857   4.023167   2.833527   1.747188
    10  C    4.614871   2.697075   2.405278   1.400171   2.511769
    11  C    4.158227   2.388593   2.808908   2.419120   3.778356
    12  C    5.381401   3.785794   4.314816   3.809834   5.041567
    13  C    2.858715   1.394287   2.406792   2.743060   4.201478
    14  H    4.681657   3.904670   2.653834   2.858020   2.161845
    15  H    8.473245   7.074577   5.819130   4.929404   3.503326
    16  H    5.699469   3.781955   3.380212   2.161684   2.754802
    17  H    5.835447   4.291055   4.797841   4.268719   5.433738
    18  H    5.366388   4.045641   4.824518   4.556947   5.878922
    19  H    6.206463   4.507561   4.825444   4.081731   5.117414
    20  H    2.960641   2.159521   3.369210   3.825352   5.282360
                    6          7          8          9         10
     6  C    0.000000
     7  N    1.367234   0.000000
     8  C    2.196431   1.305355   0.000000
     9  S    2.548046   2.587246   1.744014   0.000000
    10  C    3.806115   4.837906   4.676832   3.204652   0.000000
    11  C    4.961777   6.109487   6.050431   4.601713   1.397530
    12  C    6.316659   7.365649   7.121121   5.510104   2.529921
    13  C    5.118131   6.412216   6.627366   5.419460   2.392936
    14  H    1.082176   2.133293   3.207291   3.597491   4.245088
    15  H    3.233905   2.111630   1.082816   2.477487   5.613956
    16  H    4.130924   4.916505   4.464406   2.790206   1.085421
    17  H    6.708492   7.716586   7.427089   5.806726   3.014250
    18  H    7.091605   8.209814   8.048603   6.479164   3.403542
    19  H    6.454146   7.370964   6.963911   5.278755   2.710746
    20  H    6.161306   7.472561   7.710640   6.487828   3.392106
                   11         12         13         14         15
    11  C    0.000000
    12  C    1.506102   0.000000
    13  C    1.396771   2.527019   0.000000
    14  H    5.193068   6.644764   5.052845   0.000000
    15  H    7.005301   7.984058   7.659649   4.189868   0.000000
    16  H    2.155864   2.742098   3.383900   4.788623   5.267296
    17  H    2.150905   1.096016   3.077393   7.061787   8.255593
    18  H    2.158067   1.092941   2.672833   7.309618   8.940798
    19  H    2.156905   1.093649   3.372985   6.921296   7.738248
    20  H    2.169997   2.763922   1.083602   6.019984   8.743070
                   16         17         18         19         20
    16  H    0.000000
    17  H    3.109513   0.000000
    18  H    3.746178   1.767274   0.000000
    19  H    2.535967   1.766263   1.775272   0.000000
    20  H    4.305432   3.244384   2.492861   3.721460   0.000000
 Stoichiometry    C9H7BrN2S
 Framework group  C1[X(C9H7BrN2S)]
 Deg. of freedom    54
 Full point group                 C1      NOp   1
 Largest Abelian subgroup         C1      NOp   1
 Largest concise Abelian subgroup C1      NOp   1
                         Standard orientation:                         
 ---------------------------------------------------------------------
 Center     Atomic      Atomic             Coordinates (Angstroms)
 Number     Number       Type             X           Y           Z
 ---------------------------------------------------------------------
      1         35           0       -3.048600   -1.250130    0.001296
      2          6           0       -1.589855   -0.004969   -0.001733
      3          7           0       -0.383052   -0.525842    0.001125
      4          6           0        0.661995    0.327867   -0.001844
      5          6           0        1.978876   -0.303060   -0.000607
      6          6           0        2.260033   -1.650470    0.001633
      7          7           0        3.581573   -2.000981    0.002940
      8          6           0        4.337209   -0.936573    0.001982
      9         16           0        3.483883    0.584418   -0.000573
     10          6           0        0.486024    1.716915   -0.009328
     11          6           0       -0.805381    2.251106   -0.011686
     12          6           0       -1.033356    3.739676    0.011303
     13          6           0       -1.879961    1.358782   -0.009325
     14          1           0        1.487532   -2.408326    0.002221
     15          1           0        5.419733   -0.961680    0.002648
     16          1           0        1.346732    2.378197   -0.014316
     17          1           0       -1.006011    4.116536    1.040128
     18          1           0       -2.007693    3.998166   -0.411037
     19          1           0       -0.258512    4.266044   -0.553163
     20          1           0       -2.906066    1.707041   -0.013508
 ---------------------------------------------------------------------
 Rotational constants (GHZ):           0.8570501           0.2828596           0.2129525
 Standard basis: 6-31G(d,p) (6D, 7F)
 There are   249 symmetry adapted cartesian basis functions of A   symmetry.
 There are   249 symmetry adapted basis functions of A   symmetry.
   249 basis functions,   492 primitive gaussians,   249 cartesian basis functions
    63 alpha electrons       63 beta electrons
       nuclear repulsion energy      1092.5294782498 Hartrees.
 NAtoms=   20 NActive=   20 NUniq=   20 SFac= 1.00D+00 NAtFMM=   60 NAOKFM=F Big=F
 Integral buffers will be    131072 words long.
 Raffenetti 2 integral format.
 Two-electron integral symmetry is turned on.
 Nuclear repulsion after empirical dispersion term =     1092.4822098954 Hartrees.
 One-electron integrals computed using PRISM.
 NBasis=   249 RedAO= T EigKep=  6.58D-04  NBF=   249
 NBsUse=   249 1.00D-06 EigRej= -1.00D+00 NBFU=   249
 Initial guess from the checkpoint file:  "pyrd8_conf-2.chk"
 B after Tr=    -0.000000    0.000000    0.000000
         Rot=    1.000000   -0.000068   -0.000005    0.000643 Ang=  -0.07 deg.
 ExpMin= 1.17D-01 ExpMax= 5.74D+05 ExpMxC= 5.74D+03 IAcc=3 IRadAn=         5 AccDes= 0.00D+00
 Harris functional with IExCor=  402 and IRadAn=       5 diagonalized for initial guess.
 HarFok:  IExCor=  402 AccDes= 0.00D+00 IRadAn=         5 IDoV= 1 UseB2=F ITyADJ=14
 ICtDFT=  3500011 ScaDFX=  1.000000  1.000000  1.000000  1.000000
 FoFCou: FMM=F IPFlag=           0 FMFlag=      100000 FMFlg1=           0
         NFxFlg=           0 DoJE=T BraDBF=F KetDBF=T FulRan=T
         wScrn=  0.000000 ICntrl=       500 IOpCl=  0 I1Cent=   200000004 NGrid=           0
         NMat0=    1 NMatS0=      1 NMatT0=    0 NMatD0=    1 NMtDS0=    0 NMtDT0=    0
 Petite list used in FoFCou.
 Requested convergence on RMS density matrix=1.00D-08 within 128 cycles.
 Requested convergence on MAX density matrix=1.00D-06.
 Requested convergence on             energy=1.00D-06.
 No special actions if energy rises.
 Integral accuracy reduced to 1.0D-05 until final iterations.
 Initial convergence to 1.0D-05 achieved.  Increase integral accuracy.
 SCF Done:  E(RB3LYP) =  -3426.62776996     A.U. after   12 cycles
            NFock= 12  Conv=0.48D-08     -V/T= 2.0063
 Calling FoFJK, ICntrl=      2127 FMM=F ISym2X=0 I1Cent= 0 IOpClX= 0 NMat=1 NMatS=1 NMatT=0.
 ***** Axes restored to original set *****
 -------------------------------------------------------------------
 Center     Atomic                   Forces (Hartrees/Bohr)
 Number     Number              X              Y              Z
 -------------------------------------------------------------------
      1       35          -0.000713422   -0.000937887   -0.000218651
      2        6           0.002067165    0.000728507    0.000184150
      3        7          -0.001415699   -0.001242382   -0.000240714
      4        6          -0.000187076    0.001402515    0.000232862
      5        6           0.001917453    0.000938581    0.000253626
      6        6          -0.004017200   -0.002437352   -0.000581315
      7        7           0.001361661    0.003938870    0.000894552
      8        6           0.002138629   -0.002913513   -0.000634363
      9       16          -0.000616834    0.000928168    0.000193606
     10        6           0.000449852   -0.000455859   -0.000113185
     11        6          -0.000345200   -0.000472068    0.000381027
     12        6           0.000266374    0.000075527   -0.000581837
     13        6          -0.001509127   -0.000129563   -0.000093457
     14        1           0.000620073    0.000165138    0.000040291
     15        1          -0.000240551    0.000411560    0.000089971
     16        1          -0.000109288   -0.000177066   -0.000118940
     17        1           0.000052048    0.000001897    0.000033275
     18        1           0.000051875    0.000185317    0.000175741
     19        1          -0.000223374   -0.000156142    0.000162242
     20        1           0.000452641    0.000145753   -0.000058879
 -------------------------------------------------------------------
 Cartesian Forces:  Max     0.004017200 RMS     0.001130075

 GradGradGradGradGradGradGradGradGradGradGradGradGradGradGradGradGradGrad
 Berny optimization.
 Using GEDIIS/GDIIS optimizer.
 FormGI is forming the generalized inverse of G from B-inverse, IUseBI=4.
 Internal  Forces:  Max     0.002876642 RMS     0.000577272
[...]

 **********************************************************************

 Orbital symmetries:
       Occupied  (A) (A) (A) (A) (A) (A) (A) (A) (A) (A) (A) (A)
                 (A) (A) (A) (A) (A) (A) (A) (A) (A) (A) (A) (A)
                 (A) (A) (A) (A) (A) (A) (A) (A) (A) (A) (A) (A)
                 (A) (A) (A) (A) (A) (A) (A) (A) (A) (A) (A) (A)
                 (A) (A) (A) (A) (A) (A) (A) (A) (A) (A) (A) (A)
                 (A) (A) (A)
       Virtual   (A) (A) (A) (A) (A) (A) (A) (A) (A) (A) (A) (A)
                 (A) (A) (A) (A) (A) (A) (A) (A) (A) (A) (A) (A)
                 (A) (A) (A) (A) (A) (A) (A) (A) (A) (A) (A) (A)
                 (A) (A) (A) (A) (A) (A) (A) (A) (A) (A) (A) (A)
                 (A) (A) (A) (A) (A) (A) (A) (A) (A) (A) (A) (A)
                 (A) (A) (A) (A) (A) (A) (A) (A) (A) (A) (A) (A)
                 (A) (A) (A) (A) (A) (A) (A) (A) (A) (A) (A) (A)
                 (A) (A) (A) (A) (A) (A) (A) (A) (A) (A) (A) (A)
                 (A) (A) (A) (A) (A) (A) (A) (A) (A) (A) (A) (A)
                 (A) (A) (A) (A) (A) (A) (A) (A) (A) (A) (A) (A)
                 (A) (A) (A) (A) (A) (A) (A) (A) (A) (A) (A) (A)
                 (A) (A) (A) (A) (A) (A) (A) (A) (A) (A) (A) (A)
                 (A) (A) (A) (A) (A) (A) (A) (A) (A) (A) (A) (A)
                 (A) (A) (A) (A) (A) (A) (A) (A) (A) (A) (A) (A)
                 (A) (A) (A) (A) (A) (A) (A) (A) (A) (A) (A) (A)
                 (A) (A) (A) (A) (A) (A) (A) (A) (A) (A) (A) (A)
                 (A) (A) (A) (A) (A) (A) (A) (A) (A) (A) (A) (A)
                 (A) (A) (A) (A) (A) (A) (A) (A) (A) (A) (A) (A)
                 (A) (A) (A) (A) (A) (A) (A) (A) (A) (A) (A) (A)
                 (A) (A) (A) (A) (A) (A) (A) (A) (A) (A) (A) (A)
                 (A) (A) (A) (A) (A) (A) (A) (A) (A) (A) (A) (A)
                 (A) (A) (A) (A) (A) (A) (A) (A) (A) (A) (A) (A)
                 (A) (A) (A) (A) (A) (A) (A) (A) (A) (A) (A) (A)
                 (A) (A) (A) (A) (A) (A) (A) (A) (A) (A) (A) (A)
                 (A) (A) (A) (A) (A) (A) (A) (A) (A) (A) (A) (A)
                 (A) (A) (A) (A) (A) (A) (A) (A) (A) (A) (A) (A)
                 (A) (A) (A) (A) (A) (A) (A) (A) (A) (A) (A) (A)
                 (A) (A) (A) (A) (A) (A) (A) (A) (A) (A) (A) (A)
                 (A) (A) (A) (A) (A) (A) (A) (A) (A) (A) (A) (A)
                 (A) (A) (A) (A) (A) (A) (A) (A) (A) (A) (A) (A)
                 (A) (A) (A) (A) (A) (A) (A) (A) (A) (A) (A) (A)
                 (A) (A) (A) (A) (A) (A) (A) (A) (A) (A) (A) (A)
                 (A) (A) (A) (A) (A) (A) (A) (A) (A) (A) (A) (A)
                 (A) (A) (A) (A) (A) (A) (A) (A) (A)
 The electronic state is 1-A.
 Alpha  occ. eigenvalues -- -485.37392 -89.95054 -63.35884 -57.17827 -57.17595
 Alpha  occ. eigenvalues --  -57.17580 -14.76989 -14.76422 -10.64407 -10.61757
 Alpha  occ. eigenvalues --  -10.61736 -10.59087 -10.59042 -10.58085 -10.56908
 Alpha  occ. eigenvalues --  -10.56765 -10.55848  -9.02533  -8.30835  -6.84937
 Alpha  occ. eigenvalues --   -6.84077  -6.84029  -6.22728  -6.22554  -6.22425
 Alpha  occ. eigenvalues --   -2.88313  -2.88009  -2.87959  -2.87159  -2.87159
 Alpha  occ. eigenvalues --   -1.09003  -1.07758  -0.94498  -0.93556  -0.89205
 Alpha  occ. eigenvalues --   -0.85195  -0.83125  -0.82366  -0.74809  -0.69785
 Alpha  occ. eigenvalues --   -0.66625  -0.64644  -0.60556  -0.58963  -0.57195
 Alpha  occ. eigenvalues --   -0.52733  -0.51850  -0.50199  -0.50070  -0.49261
 Alpha  occ. eigenvalues --   -0.48283  -0.47983  -0.47027  -0.43739  -0.42864
 Alpha  occ. eigenvalues --   -0.39722  -0.36190  -0.35632  -0.35172  -0.34678
 Alpha  occ. eigenvalues --   -0.34602  -0.32577  -0.28849
 Alpha virt. eigenvalues --   -0.04326  -0.01407   0.02687   0.03473   0.03741
 Alpha virt. eigenvalues --    0.06134   0.07988   0.09516   0.10045   0.10461
 Alpha virt. eigenvalues --    0.11164   0.13173   0.13192   0.13511   0.13903
 Alpha virt. eigenvalues --    0.15397   0.16677   0.17690   0.18192   0.19825
 Alpha virt. eigenvalues --    0.20995   0.21888   0.22634   0.23006   0.24277
 Alpha virt. eigenvalues --    0.24531   0.24712   0.25442   0.26008   0.27002
 Alpha virt. eigenvalues --    0.27178   0.28511   0.28863   0.29675   0.30774
 Alpha virt. eigenvalues --    0.31403   0.31643   0.31958   0.32738   0.33214
 Alpha virt. eigenvalues --    0.33875   0.35464   0.35771   0.36306   0.36620
 Alpha virt. eigenvalues --    0.37081   0.38836   0.39501   0.39979   0.40198
 Alpha virt. eigenvalues --    0.41425   0.41535   0.43392   0.43494   0.44099
 Alpha virt. eigenvalues --    0.44923   0.45599   0.45880   0.46253   0.47839
 Alpha virt. eigenvalues --    0.49040   0.49515   0.49819   0.51003   0.51790
 Alpha virt. eigenvalues --    0.52437   0.54278   0.54477   0.55726   0.56141
 Alpha virt. eigenvalues --    0.56947   0.58228   0.59167   0.60272   0.61885
 Alpha virt. eigenvalues --    0.62347   0.62914   0.63550   0.64237   0.65124
 Alpha virt. eigenvalues --    0.66452   0.67312   0.67412   0.69110   0.70279
 Alpha virt. eigenvalues --    0.70377   0.70870   0.72649   0.74042   0.75620
 Alpha virt. eigenvalues --    0.76476   0.77899   0.78352   0.79336   0.80593
 Alpha virt. eigenvalues --    0.81959   0.82363   0.82455   0.86020   0.86349
 Alpha virt. eigenvalues --    0.86630   0.89039   0.90789   0.92351   0.93894
 Alpha virt. eigenvalues --    0.94725   0.96671   0.97984   1.00217   1.01304
 Alpha virt. eigenvalues --    1.02164   1.03616   1.05729   1.06162   1.07732
 Alpha virt. eigenvalues --    1.08841   1.09312   1.11424   1.12034   1.13719
 Alpha virt. eigenvalues --    1.16372   1.16644   1.18548   1.20595   1.21172
 Alpha virt. eigenvalues --    1.23514   1.25392   1.25780   1.28193   1.28950
 Alpha virt. eigenvalues --    1.30892   1.32460   1.34059   1.35944   1.37187
 Alpha virt. eigenvalues --    1.38596   1.38941   1.40466   1.40996   1.41290
 Alpha virt. eigenvalues --    1.44071   1.44135   1.45986   1.46847   1.48413
 Alpha virt. eigenvalues --    1.49269   1.50409   1.51718   1.52257   1.52463
 Alpha virt. eigenvalues --    1.54213   1.54380   1.55010   1.55661   1.55908
 Alpha virt. eigenvalues --    1.56675   1.57168   1.57517   1.58531   1.58664
 Alpha virt. eigenvalues --    1.59502   1.60419   1.60493   1.61274   1.61882
 Alpha virt. eigenvalues --    1.63395   1.65212   1.65455   1.67118   1.67520
 Alpha virt. eigenvalues --    1.67588   1.69395   1.70081   1.71415   1.73669
 Alpha virt. eigenvalues --    1.73934   1.76097   1.76606   1.77250   1.78248
 Alpha virt. eigenvalues --    1.80710   1.81410   1.82669   1.84293   1.86179
 Alpha virt. eigenvalues --    1.87200   1.87677   1.88003   1.89618   1.92481
 Alpha virt. eigenvalues --    1.94661   1.96042   1.97129   1.97373   1.98429
 Alpha virt. eigenvalues --    1.99205   2.01619   2.01926   2.04083   2.05022
 Alpha virt. eigenvalues --    2.06708   2.07056   2.08013   2.09188   2.10688
 Alpha virt. eigenvalues --    2.12320   2.16930   2.17860   2.18271   2.20565
 Alpha virt. eigenvalues --    2.22062   2.23251   2.24775   2.26677   2.27961
 Alpha virt. eigenvalues --    2.29631   2.33407   2.33707   2.35369   2.36980
 Alpha virt. eigenvalues --    2.38091   2.41944   2.44586   2.46435   2.48669
 Alpha virt. eigenvalues --    2.49370   2.50305   2.51837   2.52599   2.53910
 Alpha virt. eigenvalues --    2.56459   2.59146   2.59894   2.60683   2.63301
 Alpha virt. eigenvalues --    2.64907   2.65565   2.67152   2.67404   2.69245
 Alpha virt. eigenvalues --    2.71952   2.74371   2.74792   2.75471   2.77073
 Alpha virt. eigenvalues --    2.80588   2.81194   2.83086   2.83893   2.85694
 Alpha virt. eigenvalues --    2.87910   2.88418   2.88770   2.91473   2.91934
 Alpha virt. eigenvalues --    2.93014   2.93165   2.94937   2.95885   2.96091
 Alpha virt. eigenvalues --    2.97423   2.99689   3.00286   3.01495   3.03374
 Alpha virt. eigenvalues --    3.04188   3.05138   3.05289   3.06388   3.07436
 Alpha virt. eigenvalues --    3.08842   3.10254   3.11531   3.12670   3.13893
 Alpha virt. eigenvalues --    3.17059   3.17977   3.18893   3.19848   3.21156
 Alpha virt. eigenvalues --    3.22702   3.25008   3.25746   3.27445   3.27783
 Alpha virt. eigenvalues --    3.28612   3.29859   3.30811   3.32208   3.32406
 Alpha virt. eigenvalues --    3.32788   3.34206   3.35168   3.35601   3.36197
 Alpha virt. eigenvalues --    3.38470   3.39112   3.41440   3.42789   3.43318
 Alpha virt. eigenvalues --    3.44803   3.47018   3.48160   3.51581   3.53205
 Alpha virt. eigenvalues --    3.53993   3.54288   3.56543   3.59650   3.60287
 Alpha virt. eigenvalues --    3.60933   3.63512   3.65262   3.68392   3.70013
 Alpha virt. eigenvalues --    3.72010   3.72498   3.76595   3.77436   3.78875
 Alpha virt. eigenvalues --    3.81789   3.83154   3.85478   3.87257   3.91424
 Alpha virt. eigenvalues --    3.96664   3.98692   4.00935   4.02572   4.03056
 Alpha virt. eigenvalues --    4.04807   4.05947   4.08341   4.08806   4.13596
 Alpha virt. eigenvalues --    4.13679   4.15646   4.17117   4.18625   4.19998
 Alpha virt. eigenvalues --    4.22892   4.25232   4.27549   4.28977   4.29507
 Alpha virt. eigenvalues --    4.36149   4.38212   4.39746   4.43170   4.46007
 Alpha virt. eigenvalues --    4.46676   4.47877   4.48380   4.51783   4.54901
 Alpha virt. eigenvalues --    4.56206   4.59773   4.70063   4.70667   4.74964
 Alpha virt. eigenvalues --    4.76700   4.78833   4.84207   4.86542   4.86764
 Alpha virt. eigenvalues --    4.90317   4.91630   4.99473   5.02762   5.04680
 Alpha virt. eigenvalues --    5.06468   5.11087   5.14478   5.18935   5.21013
 Alpha virt. eigenvalues --    5.21627   5.23465   5.28293   5.28874   5.35664
 Alpha virt. eigenvalues --    5.40778   5.46487   5.49929   5.58628   5.66326
 Alpha virt. eigenvalues --    5.69054   5.74855   5.77527   6.07919   7.83313
 Alpha virt. eigenvalues --    8.93259   9.43865   9.51945  20.19027  22.48895
 Alpha virt. eigenvalues --   22.50899  22.52827  22.71504  22.84887  22.92651
 Alpha virt. eigenvalues --   23.00574  23.14830  23.27559  32.38349  32.72526
          Condensed to atoms (all electrons):
               1          2          3          4          5          6
     1  Br  34.921304   0.331538  -0.073042  -0.001363  -0.004177  -0.000445
     2  C    0.331538   4.669431   0.588719  -0.072094  -0.003844  -0.001381
     3  N   -0.073042   0.588719   6.517934   0.469755  -0.092457   0.014752
     4  C   -0.001363  -0.072094   0.469755   4.982435   0.226007  -0.117381
     5  C   -0.004177  -0.003844  -0.092457   0.226007   5.152354   0.603372
     6  C   -0.000445  -0.001381   0.014752  -0.117381   0.603372   4.914240
     7  N   -0.000001  -0.000053  -0.000344   0.016229  -0.090420   0.451842
     8  C   -0.000003   0.000003  -0.000146  -0.001325  -0.106252  -0.131374
     9  S    0.000017   0.000223   0.005260  -0.066545   0.407234  -0.068686
    10  C    0.002556  -0.048752  -0.125830   0.421224  -0.054152   0.026344
    11  C    0.020697  -0.045202   0.012234  -0.024335  -0.011374  -0.002816
    12  C   -0.000696   0.008030  -0.000652   0.006978  -0.000131   0.000021
    13  C   -0.093706   0.456422  -0.090475  -0.058266   0.010107   0.002499
    14  H    0.000045   0.000469   0.015712  -0.007817  -0.029911   0.402938
    15  H   -0.000000  -0.000001   0.000005   0.000528   0.004279   0.005420
    16  H    0.000138   0.002160   0.003986   0.000756  -0.010102  -0.001461
    17  H    0.000022  -0.000693   0.000097  -0.000708  -0.000063  -0.000005
    18  H   -0.000018   0.003227   0.000066  -0.000778  -0.000020   0.000001
    19  H    0.000022  -0.000619   0.000097   0.000690  -0.000135  -0.000006
    20  H   -0.005247  -0.013514   0.004600   0.000732   0.000393  -0.000015
               7          8          9         10         11         12
     1  Br  -0.000001  -0.000003   0.000017   0.002556   0.020697  -0.000696
     2  C   -0.000053   0.000003   0.000223  -0.048752  -0.045202   0.008030
     3  N   -0.000344  -0.000146   0.005260  -0.125830   0.012234  -0.000652
     4  C    0.016229  -0.001325  -0.066545   0.421224  -0.024335   0.006978
     5  C   -0.090420  -0.106252   0.407234  -0.054152  -0.011374  -0.000131
     6  C    0.451842  -0.131374  -0.068686   0.026344  -0.002816   0.000021
     7  N    6.423888   0.555865  -0.104392  -0.001426   0.000105   0.000000
     8  C    0.555865   4.922780   0.439658  -0.000259  -0.000142  -0.000006
     9  S   -0.104392   0.439658  15.402772  -0.012601   0.004188   0.000117
    10  C   -0.001426  -0.000259  -0.012601   5.363404   0.409298  -0.069429
    11  C    0.000105  -0.000142   0.004188   0.409298   4.997363   0.268681
    12  C    0.000000  -0.000006   0.000117  -0.069429   0.268681   5.086018
    13  C   -0.000015   0.000016  -0.000789  -0.044581   0.428907  -0.059327
    14  H   -0.025061   0.005878   0.006792  -0.000917   0.000035   0.000005
    15  H   -0.024776   0.409405  -0.046743  -0.000030   0.000003   0.000000
    16  H   -0.000029   0.000301   0.000503   0.341036   0.002159   0.000645
    17  H    0.000000   0.000000  -0.000006  -0.010992  -0.028747   0.405366
    18  H    0.000000   0.000000   0.000001   0.016934  -0.058082   0.432285
    19  H    0.000000   0.000000   0.000001  -0.013953  -0.036815   0.415958
    20  H    0.000000   0.000000  -0.000005   0.008008  -0.034336  -0.006931
              13         14         15         16         17         18
     1  Br  -0.093706   0.000045  -0.000000   0.000138   0.000022  -0.000018
     2  C    0.456422   0.000469  -0.000001   0.002160  -0.000693   0.003227
     3  N   -0.090475   0.015712   0.000005   0.003986   0.000097   0.000066
     4  C   -0.058266  -0.007817   0.000528   0.000756  -0.000708  -0.000778
     5  C    0.010107  -0.029911   0.004279  -0.010102  -0.000063  -0.000020
     6  C    0.002499   0.402938   0.005420  -0.001461  -0.000005   0.000001
     7  N   -0.000015  -0.025061  -0.024776  -0.000029   0.000000   0.000000
     8  C    0.000016   0.005878   0.409405   0.000301   0.000000   0.000000
     9  S   -0.000789   0.006792  -0.046743   0.000503  -0.000006   0.000001
    10  C   -0.044581  -0.000917  -0.000030   0.341036  -0.010992   0.016934
    11  C    0.428907   0.000035   0.000003   0.002159  -0.028747  -0.058082
    12  C   -0.059327   0.000005   0.000000   0.000645   0.405366   0.432285
    13  C    5.290517   0.000364  -0.000000   0.003694   0.001789  -0.018754
    14  H    0.000364   0.453488  -0.000032  -0.000087  -0.000000  -0.000000
    15  H   -0.000000  -0.000032   0.480046  -0.000010  -0.000000  -0.000000
    16  H    0.003694  -0.000087  -0.000010   0.483421   0.000345  -0.000047
    17  H    0.001789  -0.000000  -0.000000   0.000345   0.517992  -0.021396
    18  H   -0.018754  -0.000000  -0.000000  -0.000047  -0.021396   0.517928
    19  H    0.004467  -0.000000  -0.000000  -0.000068  -0.032106  -0.022675
    20  H    0.390102  -0.000003  -0.000000  -0.000175   0.000145   0.001620
              19         20
     1  Br   0.000022  -0.005247
     2  C   -0.000619  -0.013514
     3  N    0.000097   0.004600
     4  C    0.000690   0.000732
     5  C   -0.000135   0.000393
     6  C   -0.000006  -0.000015
     7  N    0.000000   0.000000
     8  C    0.000000   0.000000
     9  S    0.000001  -0.000005
    10  C   -0.013953   0.008008
    11  C   -0.036815  -0.034336
    12  C    0.415958  -0.006931
    13  C    0.004467   0.390102
    14  H   -0.000000  -0.000003
    15  H   -0.000000  -0.000000
    16  H   -0.000068  -0.000175
    17  H   -0.032106   0.000145
    18  H   -0.022675   0.001620
    19  H    0.519387   0.000055
    20  H    0.000055   0.486085
 Mulliken charges:
               1
     1  Br  -0.097641
     2  C    0.125927
     3  N   -0.250273
     4  C    0.225277
     5  C   -0.000709
     6  C   -0.097858
     7  N   -0.201412
     8  C   -0.094400
     9  S    0.033001
    10  C   -0.205883
    11  C    0.098178
    12  C   -0.486931
    13  C   -0.222970
    14  H    0.178103
    15  H    0.171906
    16  H    0.172835
    17  H    0.168958
    18  H    0.149707
    19  H    0.165700
    20  H    0.168485
 Sum of Mulliken charges =  -0.00000
 Mulliken charges with hydrogens summed into heavy atoms:
               1
     1  Br  -0.097641
     2  C    0.125927
     3  N   -0.250273
     4  C    0.225277
     5  C   -0.000709
     6  C    0.080244
     7  N   -0.201412
     8  C    0.077506
     9  S    0.033001
    10  C   -0.033048
    11  C    0.098178
    12  C   -0.002565
    13  C   -0.054485
 Electronic spatial extent (au):  <R**2>=           4496.7980
 Charge=             -0.0000 electrons
 Dipole moment (field-independent basis, Debye):
    X=              0.5532    Y=              4.8176    Z=              0.0091  Tot=              4.8493
 Quadrupole moment (field-independent basis, Debye-Ang):
   XX=            -88.8152   YY=            -90.4511   ZZ=            -97.8871
   XY=              1.8853   XZ=             -0.0123   YZ=              0.0384
 Traceless Quadrupole moment (field-independent basis, Debye-Ang):
   XX=              3.5693   YY=              1.9333   ZZ=             -5.5026
   XY=              1.8853   XZ=             -0.0123   YZ=              0.0384
 Octapole moment (field-independent basis, Debye-Ang**2):
  XXX=            -40.7650  YYY=              3.6058  ZZZ=              0.2221  XYY=            -60.2968
  XXY=             13.7448  XXZ=             -0.1624  XZZ=            -33.2081  YZZ=            -12.9397
  YYZ=              0.1176  XYZ=             -0.0535
 Hexadecapole moment (field-independent basis, Debye-Ang**3):
 XXXX=          -3416.7188 YYYY=          -1522.4147 ZZZZ=           -119.1810 XXXY=            167.0495
 XXXZ=              0.4836 YYYX=            173.1726 YYYZ=              0.3635 ZZZX=             -0.2314
 ZZZY=              0.8500 XXYY=           -960.6936 XXZZ=           -689.6686 YYZZ=           -288.0774
 XXYZ=             -0.5912 YYXZ=             -0.3901 ZZXY=             45.0620
 N-N= 1.091649091439D+03 E-N=-1.034338458146D+04  KE= 3.422715853555D+03
 Unable to Open any file for archive entry.
 1\1\GINC-COMPUTE-0-32\SP\RM062X\def2TZVP\C9H7Br1N2S1\ZTAN64\14-Aug-202
 4\0\\# M062X/def2tzvp int=(grid=ultrafine) nmr=giao guess=read geom=ch
 eck\\pyrd8.xyz\\0,1\Br,0,-0.9811645957,-4.0138162128,-0.9446601133\C,0
 ,-0.8380196719,-2.1520108061,-0.4898771671\N,0,0.3754293808,-1.6710408
 354,-0.3636302373\C,0,0.4980300694,-0.3619817084,-0.0443583486\C,0,1.8
 723357762,0.1211271037,0.0827223701\C,0,3.0256434678,-0.6078156918,-0.
 0870091865\N,0,4.2068242149,0.0688102522,0.0860419058\C,0,3.982070305,
 1.3146686024,0.3881629519\S,0,2.2962583043,1.7682783129,0.4871705443\C
 ,0,-0.6177561963,0.4577515114,0.1465068534\C,0,-1.9048901382,-0.075041
 8707,0.0078259663\C,0,-3.122520533,0.7861490266,0.215822355\C,0,-2.019
 2531417,-1.4252312129,-0.3222304429\H,0,3.0297649001,-1.6586981475,-0.
 3431192938\H,0,4.7565697751,2.0490001743,0.5724471173\H,0,-0.490726349
 1,1.5051413384,0.4011183116\H,0,-3.1754833518,1.1379584619,1.251748238
 5\H,0,-4.0416055253,0.238770833,-0.0039118777\H,0,-3.0883594424,1.6719
 748439,-0.4264431037\H,0,-2.984047248,-1.9006939749,-0.4462268434\\Ver
 sion=ES64L-G16RevC.01\State=1-A\HF=-3429.0378053\RMSD=3.767e-09\Dipole
 =-1.2006233,1.4413468,0.3477521\Quadrupole=0.6325685,3.0262349,-3.6588
 034,0.5637692,0.1405503,1.7543782\PG=C01 [X(C9H7Br1N2S1)]\\@
 The archive entry for this job was punched.


 "A LITTLE BIT GOES A LONG WAY"
 R.S. MULLIKEN AS QUOTED BY K. RUEDENBERG
 Job cpu time:       0 days  0 hours 37 minutes  6.9 seconds.
 Elapsed time:       0 days  0 hours  2 minutes 26.8 seconds.
 File lengths (MBytes):  RWF=    126 Int=      0 D2E=      0 Chk=     21 Scr=      1
 Normal termination of Gaussian 16 at Wed Aug 14 19:54:58 2024.
 
 
-----Kestrel cluster job statistics-----
Time info:

real	14m34.330s
user	227m56.746s
sys	0m31.958s
 
Disk space usage:
21M	/scratch/362979.kestrel.chem.wisc.edu
