 Entering Gaussian System, Link 0=/share/apps/gaussian/g16/g16
 Initial command:
 /share/apps/gaussian/g16/l1.exe "/scratch/362956.kestrel.chem.wisc.edu/Gau-87642.inp" -scrdir="/scratch/362956.kestrel.chem.wisc.edu/"
 Entering Link 1 = /share/apps/gaussian/g16/l1.exe PID=     87643.
  
 Copyright (c) 1988-2019, Gaussian, Inc.  All Rights Reserved.
  
 This is part of the Gaussian(R) 16 program.  It is based on
 the Gaussian(R) 09 system (copyright 2009, Gaussian, Inc.),
 the Gaussian(R) 03 system (copyright 2003, Gaussian, Inc.),
 the Gaussian(R) 98 system (copyright 1998, Gaussian, Inc.),
 the Gaussian(R) 94 system (copyright 1995, Gaussian, Inc.),
 the Gaussian 92(TM) system (copyright 1992, Gaussian, Inc.),
 the Gaussian 90(TM) system (copyright 1990, Gaussian, Inc.),
 the Gaussian 88(TM) system (copyright 1988, Gaussian, Inc.),
 the Gaussian 86(TM) system (copyright 1986, Carnegie Mellon
 University), and the Gaussian 82(TM) system (copyright 1983,
 Carnegie Mellon University). Gaussian is a federally registered
 trademark of Gaussian, Inc.
  
 This software contains proprietary and confidential information,
 including trade secrets, belonging to Gaussian, Inc.
  
 This software is provided under written license and may be
 used, copied, transmitted, or stored only in accord with that
 written license.
  
 The following legend is applicable only to US Government
 contracts under FAR:
  
                    RESTRICTED RIGHTS LEGEND
  
 Use, reproduction and disclosure by the US Government is
 subject to restrictions as set forth in subparagraphs (a)
 and (c) of the Commercial Computer Software - Restricted
 Rights clause in FAR 52.227-19.
  
 Gaussian, Inc.
 340 Quinnipiac St., Bldg. 40, Wallingford CT 06492
  
  
 ---------------------------------------------------------------
 Warning -- This program may not be used in any manner that
 competes with the business of Gaussian, Inc. or will provide
 assistance to any competitor of Gaussian, Inc.  The licensee
 of this program is prohibited from giving any competitor of
 Gaussian, Inc. access to this program.  By using this program,
 the user acknowledges that Gaussian, Inc. is engaged in the
 business of creating and licensing software in the field of
 computational chemistry and represents and warrants to the
 licensee that it is not a competitor of Gaussian, Inc. and that
 it will not use this program in any manner prohibited above.
 ---------------------------------------------------------------
  

 Cite this work as:
 Gaussian 16, Revision C.01,
 M. J. Frisch, G. W. Trucks, H. B. Schlegel, G. E. Scuseria, 
 M. A. Robb, J. R. Cheeseman, G. Scalmani, V. Barone, 
 G. A. Petersson, H. Nakatsuji, X. Li, M. Caricato, A. V. Marenich, 
 J. Bloino, B. G. Janesko, R. Gomperts, B. Mennucci, H. P. Hratchian, 
 J. V. Ortiz, A. F. Izmaylov, J. L. Sonnenberg, D. Williams-Young, 
 F. Ding, F. Lipparini, F. Egidi, J. Goings, B. Peng, A. Petrone, 
 T. Henderson, D. Ranasinghe, V. G. Zakrzewski, J. Gao, N. Rega, 
 G. Zheng, W. Liang, M. Hada, M. Ehara, K. Toyota, R. Fukuda, 
 J. Hasegawa, M. Ishida, T. Nakajima, Y. Honda, O. Kitao, H. Nakai, 
 T. Vreven, K. Throssell, J. A. Montgomery, Jr., J. E. Peralta, 
 F. Ogliaro, M. J. Bearpark, J. J. Heyd, E. N. Brothers, K. N. Kudin, 
 V. N. Staroverov, T. A. Keith, R. Kobayashi, J. Normand, 
 K. Raghavachari, A. P. Rendell, J. C. Burant, S. S. Iyengar, 
 J. Tomasi, M. Cossi, J. M. Millam, M. Klene, C. Adamo, R. Cammi, 
 J. W. Ochterski, R. L. Martin, K. Morokuma, O. Farkas, 
 J. B. Foresman, and D. J. Fox, Gaussian, Inc., Wallingford CT, 2019.
 
 ******************************************
 Gaussian 16:  ES64L-G16RevC.01  3-Jul-2019
                14-Aug-2024 
 ******************************************
 %nprocs=16
 Will use up to   16 processors via shared memory.
 %mem=16GB
 %chk=pyrd10_conf-9.chk
 ----------------------------------------------------------------------
 # B3LYP/6-31G(d,p) symmetry=loose empiricaldispersion=GD3BJ int=(grid=
 ultrafine) opt freq=noraman
 ----------------------------------------------------------------------
 1/18=20,19=15,26=4,38=1/1,3;
 2/9=110,12=2,17=4,18=3,40=1/2;
 3/5=1,6=6,7=101,11=2,25=1,30=1,71=1,74=-5,75=-5,124=41/1,2,3;
 4//1;
 5/5=2,38=5/2;
 6/7=2,8=2,9=2,10=2,28=1/1;
 7//1,2,3,16;
 1/18=20,19=15,26=4/3(2);
 2/9=110/2;
 99//99;
 2/9=110/2;
 3/5=1,6=6,7=101,11=2,25=1,30=1,71=1,74=-5,75=-5,124=41/1,2,3;
 4/5=5,16=3,69=1/1;
 5/5=2,38=5/2;
 7//1,2,3,16;
 1/18=20,19=15,26=4/3(-5);
 2/9=110/2;
 6/7=2,8=2,9=2,10=2,19=2,28=1/1;
 99/9=1/99;
 ----------
 pyrd10.xyz
 ----------
 Symbolic Z-matrix:
 Charge =  0 Multiplicity = 1
 Br                    5.3765   -2.2845    0.2937 
 C                     4.3515   -0.5858    0.4698 
 C                     3.0245   -0.8313    1.2084 
 C                     2.0478   -1.7496    0.4395 
 C                     0.6746   -1.9595    1.0767 
 C                     0.3363   -1.4866    2.3537 
 N                    -0.8839   -1.6757    2.9177 
 C                    -1.8138   -2.3593    2.2055 
 C                    -1.5645   -2.8693    0.9309 
 C                    -0.3042   -2.6645    0.366 
 H                     4.9818    0.1187    1.0143 
 H                     4.1926   -0.1815   -0.531 
 H                     3.2412   -1.2553    2.1904 
 H                     2.5448    0.133     1.3842 
 H                     2.5005   -2.7332    0.3019 
 H                     1.8901   -1.3417   -0.5606 
 H                     1.0399   -0.9428    2.965 
 H                    -2.775    -2.4955    2.6806 
 H                    -2.3281   -3.4117    0.3929 
 H                    -0.0905   -3.0539   -0.6192 
 

 GradGradGradGradGradGradGradGradGradGradGradGradGradGradGradGradGradGrad
 Berny optimization.
 Initialization pass.
                           ----------------------------
                           !    Initial Parameters    !
                           ! (Angstroms and Degrees)  !
 --------------------------                            --------------------------
 ! Name  Definition              Value          Derivative Info.                !
 --------------------------------------------------------------------------------
 ! R1    R(1,2)                  1.9918         estimate D2E/DX2                !
 ! R2    R(2,3)                  1.5384         estimate D2E/DX2                !
 ! R3    R(2,11)                 1.0909         estimate D2E/DX2                !
 ! R4    R(2,12)                 1.091          estimate D2E/DX2                !
 ! R5    R(3,4)                  1.5455         estimate D2E/DX2                !
 ! R6    R(3,13)                 1.0914         estimate D2E/DX2                !
 ! R7    R(3,14)                 1.0913         estimate D2E/DX2                !
 ! R8    R(4,5)                  1.5283         estimate D2E/DX2                !
 ! R9    R(4,15)                 1.0915         estimate D2E/DX2                !
 ! R10   R(4,16)                 1.0915         estimate D2E/DX2                !
 ! R11   R(5,6)                  1.4031         estimate D2E/DX2                !
 ! R12   R(5,10)                 1.4001         estimate D2E/DX2                !
 ! R13   R(6,7)                  1.3575         estimate D2E/DX2                !
 ! R14   R(6,17)                 1.0791         estimate D2E/DX2                !
 ! R15   R(7,8)                  1.3562         estimate D2E/DX2                !
 ! R16   R(8,9)                  1.3953         estimate D2E/DX2                !
 ! R17   R(8,18)                 1.0808         estimate D2E/DX2                !
 ! R18   R(9,10)                 1.3962         estimate D2E/DX2                !
 ! R19   R(9,19)                 1.0802         estimate D2E/DX2                !
 ! R20   R(10,20)                1.0807         estimate D2E/DX2                !
 ! A1    A(1,2,3)              110.5021         estimate D2E/DX2                !
 ! A2    A(1,2,11)             107.3113         estimate D2E/DX2                !
 ! A3    A(1,2,12)             108.0527         estimate D2E/DX2                !
 ! A4    A(3,2,11)             111.2107         estimate D2E/DX2                !
 ! A5    A(3,2,12)             111.9571         estimate D2E/DX2                !
 ! A6    A(11,2,12)            107.6193         estimate D2E/DX2                !
 ! A7    A(2,3,4)              113.6464         estimate D2E/DX2                !
 ! A8    A(2,3,13)             108.8276         estimate D2E/DX2                !
 ! A9    A(2,3,14)             108.3909         estimate D2E/DX2                !
 ! A10   A(4,3,13)             110.0176         estimate D2E/DX2                !
 ! A11   A(4,3,14)             109.111          estimate D2E/DX2                !
 ! A12   A(13,3,14)            106.5965         estimate D2E/DX2                !
 ! A13   A(3,4,5)              116.2324         estimate D2E/DX2                !
 ! A14   A(3,4,15)             109.6373         estimate D2E/DX2                !
 ! A15   A(3,4,16)             108.972          estimate D2E/DX2                !
 ! A16   A(5,4,15)             107.545          estimate D2E/DX2                !
 ! A17   A(5,4,16)             107.6688         estimate D2E/DX2                !
 ! A18   A(15,4,16)            106.3302         estimate D2E/DX2                !
 ! A19   A(4,5,6)              123.3526         estimate D2E/DX2                !
 ! A20   A(4,5,10)             119.0565         estimate D2E/DX2                !
 ! A21   A(6,5,10)             117.5899         estimate D2E/DX2                !
 ! A22   A(5,6,7)              123.2228         estimate D2E/DX2                !
 ! A23   A(5,6,17)             121.8839         estimate D2E/DX2                !
 ! A24   A(7,6,17)             114.8929         estimate D2E/DX2                !
 ! A25   A(6,7,8)              117.928          estimate D2E/DX2                !
 ! A26   A(7,8,9)              122.7825         estimate D2E/DX2                !
 ! A27   A(7,8,18)             116.261          estimate D2E/DX2                !
 ! A28   A(9,8,18)             120.9564         estimate D2E/DX2                !
 ! A29   A(8,9,10)             118.5066         estimate D2E/DX2                !
 ! A30   A(8,9,19)             120.8123         estimate D2E/DX2                !
 ! A31   A(10,9,19)            120.6811         estimate D2E/DX2                !
 ! A32   A(5,10,9)             119.9695         estimate D2E/DX2                !
 ! A33   A(5,10,20)            120.3949         estimate D2E/DX2                !
 ! A34   A(9,10,20)            119.6355         estimate D2E/DX2                !
 ! D1    D(1,2,3,4)            -64.7502         estimate D2E/DX2                !
 ! D2    D(1,2,3,13)            58.213          estimate D2E/DX2                !
 ! D3    D(1,2,3,14)           173.7684         estimate D2E/DX2                !
 ! D4    D(11,2,3,4)           176.1791         estimate D2E/DX2                !
 ! D5    D(11,2,3,13)          -60.8576         estimate D2E/DX2                !
 ! D6    D(11,2,3,14)           54.6977         estimate D2E/DX2                !
 ! D7    D(12,2,3,4)            55.7455         estimate D2E/DX2                !
 ! D8    D(12,2,3,13)          178.7087         estimate D2E/DX2                !
 ! D9    D(12,2,3,14)          -65.7359         estimate D2E/DX2                !
 ! D10   D(2,3,4,5)           -176.1339         estimate D2E/DX2                !
 ! D11   D(2,3,4,15)            61.6815         estimate D2E/DX2                !
 ! D12   D(2,3,4,16)           -54.3173         estimate D2E/DX2                !
 ! D13   D(13,3,4,5)            61.5581         estimate D2E/DX2                !
 ! D14   D(13,3,4,15)          -60.6265         estimate D2E/DX2                !
 ! D15   D(13,3,4,16)         -176.6253         estimate D2E/DX2                !
 ! D16   D(14,3,4,5)           -55.0549         estimate D2E/DX2                !
 ! D17   D(14,3,4,15)         -177.2395         estimate D2E/DX2                !
 ! D18   D(14,3,4,16)           66.7618         estimate D2E/DX2                !
 ! D19   D(3,4,5,6)             -6.9933         estimate D2E/DX2                !
 ! D20   D(3,4,5,10)           173.399          estimate D2E/DX2                !
 ! D21   D(15,4,5,6)           116.2863         estimate D2E/DX2                !
 ! D22   D(15,4,5,10)          -63.3214         estimate D2E/DX2                !
 ! D23   D(16,4,5,6)          -129.4962         estimate D2E/DX2                !
 ! D24   D(16,4,5,10)           50.896          estimate D2E/DX2                !
 ! D25   D(4,5,6,7)           -179.9327         estimate D2E/DX2                !
 ! D26   D(4,5,6,17)            -0.1612         estimate D2E/DX2                !
 ! D27   D(10,5,6,7)            -0.3196         estimate D2E/DX2                !
 ! D28   D(10,5,6,17)          179.4519         estimate D2E/DX2                !
 ! D29   D(4,5,10,9)           179.8921         estimate D2E/DX2                !
 ! D30   D(4,5,10,20)           -0.0196         estimate D2E/DX2                !
 ! D31   D(6,5,10,9)             0.2618         estimate D2E/DX2                !
 ! D32   D(6,5,10,20)         -179.6499         estimate D2E/DX2                !
 ! D33   D(5,6,7,8)              0.1697         estimate D2E/DX2                !
 ! D34   D(17,6,7,8)          -179.6163         estimate D2E/DX2                !
 ! D35   D(6,7,8,9)              0.0397         estimate D2E/DX2                !
 ! D36   D(6,7,8,18)           179.9091         estimate D2E/DX2                !
 ! D37   D(7,8,9,10)            -0.0858         estimate D2E/DX2                !
 ! D38   D(7,8,9,19)           179.8303         estimate D2E/DX2                !
 ! D39   D(18,8,9,10)         -179.9492         estimate D2E/DX2                !
 ! D40   D(18,8,9,19)           -0.033          estimate D2E/DX2                !
 ! D41   D(8,9,10,5)            -0.0725         estimate D2E/DX2                !
 ! D42   D(8,9,10,20)          179.8399         estimate D2E/DX2                !
 ! D43   D(19,9,10,5)         -179.9888         estimate D2E/DX2                !
 ! D44   D(19,9,10,20)          -0.0764         estimate D2E/DX2                !
 --------------------------------------------------------------------------------
 Trust Radius=3.00D-01 FncErr=1.00D-07 GrdErr=1.00D-06 EigMax=2.50D+02 EigMin=1.00D-04
 Number of steps in this run=    108 maximum allowed number of steps=    120.
 GradGradGradGradGradGradGradGradGradGradGradGradGradGradGradGradGradGrad

                          Input orientation:                          
 ---------------------------------------------------------------------
 Center     Atomic      Atomic             Coordinates (Angstroms)
 Number     Number       Type             X           Y           Z
 ---------------------------------------------------------------------
      1         35           0        5.376500   -2.284500    0.293700
      2          6           0        4.351500   -0.585800    0.469800
      3          6           0        3.024500   -0.831300    1.208400
      4          6           0        2.047800   -1.749600    0.439500
      5          6           0        0.674600   -1.959500    1.076700
      6          6           0        0.336300   -1.486600    2.353700
      7          7           0       -0.883900   -1.675700    2.917700
      8          6           0       -1.813800   -2.359300    2.205500
      9          6           0       -1.564500   -2.869300    0.930900
     10          6           0       -0.304200   -2.664500    0.366000
     11          1           0        4.981800    0.118700    1.014300
     12          1           0        4.192600   -0.181500   -0.531000
     13          1           0        3.241200   -1.255300    2.190400
     14          1           0        2.544800    0.133000    1.384200
     15          1           0        2.500500   -2.733200    0.301900
     16          1           0        1.890100   -1.341700   -0.560600
     17          1           0        1.039900   -0.942800    2.965000
     18          1           0       -2.775000   -2.495500    2.680600
     19          1           0       -2.328100   -3.411700    0.392900
     20          1           0       -0.090500   -3.053900   -0.619200
 ---------------------------------------------------------------------
                    Distance matrix (angstroms):
                    1          2          3          4          5
     1  Br   0.000000
     2  C    1.991788   0.000000
     3  C    2.912108   1.538418   0.000000
     4  C    3.374555   2.581159   1.545453   0.000000
     5  C    4.777717   3.971772   2.610021   1.528319   0.000000
     6  C    5.503077   4.525743   2.994587   2.581194   1.403143
     7  N    6.815323   5.881285   4.348598   3.839505   2.428733
     8  C    7.440497   6.645967   5.170893   4.289807   2.761551
     9  C    6.994676   6.358148   5.028854   3.813648   2.421273
    10  C    5.693855   5.099736   3.892365   2.524747   1.400060
    11  H    2.539768   1.090907   2.184307   3.525521   4.782759
    12  H    2.550364   1.091013   2.193675   2.828599   4.257030
    13  H    3.035824   2.154405   1.091356   2.175819   2.885076
    14  H    3.879693   2.148713   1.091280   2.164174   2.823254
    15  H    2.910803   2.840021   2.171069   1.091485   2.129046
    16  H    3.711292   2.773373   2.162575   1.091536   2.130697
    17  H    5.267077   4.161750   2.652680   2.836360   2.175500
    18  H    8.496397   7.702051   6.210566   5.370130   3.841814
    19  H    7.787251   7.253184   5.997819   4.681159   3.404802
    20  H    5.595842   5.196999   4.240672   2.719259   2.158510
                    6          7          8          9         10
     6  C    0.000000
     7  N    1.357477   0.000000
     8  C    2.325188   1.356190   0.000000
     9  C    2.747592   2.415631   1.395298   0.000000
    10  C    2.397632   2.797311   2.399125   1.396213   0.000000
    11  H    5.094276   6.422557   7.330731   7.196467   6.009017
    12  H    4.989572   6.316409   6.950402   6.519633   5.214509
    13  H    2.918666   4.209769   5.174173   5.223609   4.228965
    14  H    2.905255   4.168813   5.087582   5.109367   4.120624
    15  H    3.232283   4.406232   4.730399   4.115627   2.806273
    16  H    3.305818   4.461525   4.733465   4.061083   2.724581
    17  H    1.079101   2.059220   3.275197   3.825162   3.394946
    18  H    3.287085   2.074740   1.080822   2.160205   3.389806
    19  H    3.827502   3.387333   2.158140   1.080151   2.157592
    20  H    3.387731   3.877961   3.381000   2.146989   1.080703
                   11         12         13         14         15
    11  H    0.000000
    12  H    1.760940   0.000000
    13  H    2.510135   3.076398   0.000000
    14  H    2.464954   2.546006   1.749945   0.000000
    15  H    3.846777   3.173027   2.509832   3.064056   0.000000
    16  H    3.764530   2.578458   3.066095   2.526978   1.747217
    17  H    4.524443   4.768764   2.354439   2.433310   3.525760
    18  H    8.353355   8.013515   6.162228   6.073709   5.791858
    19  H    8.141529   7.335347   6.236840   6.106777   4.876886
    20  H    6.201769   5.157849   4.714768   4.595079   2.768493
                   16         17         18         19         20
    16  H    0.000000
    17  H    3.648536   0.000000
    18  H    5.796533   4.128586   0.000000
    19  H    4.794505   4.904548   2.504539   0.000000
    20  H    2.618748   4.310573   4.290342   2.481778   0.000000
 Stoichiometry    C8H10BrN
 Framework group  C1[X(C8H10BrN)]
 Deg. of freedom    54
 Full point group                 C1      NOp   1
 Largest Abelian subgroup         C1      NOp   1
 Largest concise Abelian subgroup C1      NOp   1
                         Standard orientation:                         
 ---------------------------------------------------------------------
 Center     Atomic      Atomic             Coordinates (Angstroms)
 Number     Number       Type             X           Y           Z
 ---------------------------------------------------------------------
      1         35           0       -3.050780   -0.326127   -0.351307
      2          6           0       -2.086883    0.895580    0.891895
      3          6           0       -0.620442    1.059801    0.456796
      4          6           0        0.201889   -0.245809    0.543851
      5          6           0        1.689478   -0.130565    0.212857
      6          6           0        2.279815    1.039407   -0.288618
      7          7           0        3.601286    1.138442   -0.582981
      8          6           0        4.380310    0.046609   -0.382291
      9          6           0        3.878841   -1.159351    0.108673
     10          6           0        2.517413   -1.242781    0.406943
     11          1           0       -2.611784    1.851821    0.879240
     12          1           0       -2.169959    0.486571    1.899922
     13          1           0       -0.596976    1.448817   -0.562604
     14          1           0       -0.156124    1.817409    1.090302
     15          1           0       -0.226869   -0.994623   -0.124568
     16          1           0        0.117641   -0.651596    1.553649
     17          1           0        1.705168    1.934031   -0.472704
     18          1           0        5.427516    0.154824   -0.626880
     19          1           0        4.528037   -2.010347    0.253850
     20          1           0        2.109128   -2.168900    0.785790
 ---------------------------------------------------------------------
 Rotational constants (GHZ):           3.0509088           0.3033786           0.2901150
 Standard basis: 6-31G(d,p) (6D, 7F)
 There are   215 symmetry adapted cartesian basis functions of A   symmetry.
 There are   215 symmetry adapted basis functions of A   symmetry.
   215 basis functions,   405 primitive gaussians,   215 cartesian basis functions
    50 alpha electrons       50 beta electrons
       nuclear repulsion energy       688.5036945982 Hartrees.
 NAtoms=   20 NActive=   20 NUniq=   20 SFac= 1.00D+00 NAtFMM=   60 NAOKFM=F Big=F
 Integral buffers will be    131072 words long.
 Raffenetti 2 integral format.
 Two-electron integral symmetry is turned on.
 Nuclear repulsion after empirical dispersion term =      688.4662626502 Hartrees.
 One-electron integrals computed using PRISM.
 NBasis=   215 RedAO= T EigKep=  7.47D-04  NBF=   215
 NBsUse=   215 1.00D-06 EigRej= -1.00D+00 NBFU=   215
 ExpMin= 1.43D-01 ExpMax= 5.74D+05 ExpMxC= 5.74D+03 IAcc=3 IRadAn=         5 AccDes= 0.00D+00
 Harris functional with IExCor=  402 and IRadAn=       5 diagonalized for initial guess.
 HarFok:  IExCor=  402 AccDes= 0.00D+00 IRadAn=         5 IDoV= 1 UseB2=F ITyADJ=14
 ICtDFT=  3500011 ScaDFX=  1.000000  1.000000  1.000000  1.000000
 FoFCou: FMM=F IPFlag=           0 FMFlag=      100000 FMFlg1=           0
         NFxFlg=           0 DoJE=T BraDBF=F KetDBF=T FulRan=T
         wScrn=  0.000000 ICntrl=       500 IOpCl=  0 I1Cent=   200000004 NGrid=           0
         NMat0=    1 NMatS0=      1 NMatT0=    0 NMatD0=    1 NMtDS0=    0 NMtDT0=    0
 Petite list used in FoFCou.
 Requested convergence on RMS density matrix=1.00D-08 within 128 cycles.
 Requested convergence on MAX density matrix=1.00D-06.
 Requested convergence on             energy=1.00D-06.
 No special actions if energy rises.
 Integral accuracy reduced to 1.0D-05 until final iterations.
 Initial convergence to 1.0D-05 achieved.  Increase integral accuracy.
 SCF Done:  E(RB3LYP) =  -2937.38330804     A.U. after   14 cycles
            NFock= 14  Conv=0.42D-08     -V/T= 2.0067

 **********************************************************************

            Population analysis using the SCF Density.

 **********************************************************************

 Orbital symmetries:
       Occupied  (A) (A) (A) (A) (A) (A) (A) (A) (A) (A) (A) (A)
                 (A) (A) (A) (A) (A) (A) (A) (A) (A) (A) (A) (A)
                 (A) (A) (A) (A) (A) (A) (A) (A) (A) (A) (A) (A)
                 (A) (A) (A) (A) (A) (A) (A) (A) (A) (A) (A) (A)
                 (A) (A)
       Virtual   (A) (A) (A) (A) (A) (A) (A) (A) (A) (A) (A) (A)
                 (A) (A) (A) (A) (A) (A) (A) (A) (A) (A) (A) (A)
                 (A) (A) (A) (A) (A) (A) (A) (A) (A) (A) (A) (A)
                 (A) (A) (A) (A) (A) (A) (A) (A) (A) (A) (A) (A)
                 (A) (A) (A) (A) (A) (A) (A) (A) (A) (A) (A) (A)
                 (A) (A) (A) (A) (A) (A) (A) (A) (A) (A) (A) (A)
                 (A) (A) (A) (A) (A) (A) (A) (A) (A) (A) (A) (A)
                 (A) (A) (A) (A) (A) (A) (A) (A) (A) (A) (A) (A)
                 (A) (A) (A) (A) (A) (A) (A) (A) (A) (A) (A) (A)
                 (A) (A) (A) (A) (A) (A) (A) (A) (A) (A) (A) (A)
                 (A) (A) (A) (A) (A) (A) (A) (A) (A) (A) (A) (A)
                 (A) (A) (A) (A) (A) (A) (A) (A) (A) (A) (A) (A)
                 (A) (A) (A) (A) (A) (A) (A) (A) (A) (A) (A) (A)
                 (A) (A) (A) (A) (A) (A) (A) (A) (A)
 The electronic state is 1-A.
 Alpha  occ. eigenvalues -- -482.90015 -61.86247 -56.38302 -56.37934 -56.37922
 Alpha  occ. eigenvalues --  -14.32943 -10.25175 -10.22074 -10.22032 -10.20899
 Alpha  occ. eigenvalues --  -10.20874 -10.20596 -10.20147 -10.19948  -8.57366
 Alpha  occ. eigenvalues --   -6.52737  -6.51480  -6.51463  -2.64299  -2.63952
 Alpha  occ. eigenvalues --   -2.63938  -2.62936  -2.62936  -0.92827  -0.83323
 Alpha  occ. eigenvalues --   -0.80516  -0.77492  -0.73861  -0.68425  -0.63454
 Alpha  occ. eigenvalues --   -0.61572  -0.58996  -0.52142  -0.48318  -0.47881
 Alpha  occ. eigenvalues --   -0.47006  -0.44761  -0.42746  -0.40683  -0.39997
 Alpha  occ. eigenvalues --   -0.39501  -0.38030  -0.36612  -0.35120  -0.34807
 Alpha  occ. eigenvalues --   -0.28003  -0.27681  -0.27527  -0.25358  -0.24975
 Alpha virt. eigenvalues --   -0.02669  -0.00767  -0.00448   0.08808   0.10002
 Alpha virt. eigenvalues --    0.11364   0.12515   0.13201   0.14329   0.15546
 Alpha virt. eigenvalues --    0.15906   0.16971   0.17443   0.20026   0.21317
 Alpha virt. eigenvalues --    0.21727   0.23975   0.25274   0.29441   0.30371
 Alpha virt. eigenvalues --    0.33776   0.36433   0.40965   0.43257   0.43591
 Alpha virt. eigenvalues --    0.44688   0.46576   0.47866   0.48788   0.50809
 Alpha virt. eigenvalues --    0.50900   0.51654   0.53640   0.55029   0.55565
 Alpha virt. eigenvalues --    0.56585   0.58123   0.59399   0.59587   0.60466
 Alpha virt. eigenvalues --    0.61722   0.64125   0.64442   0.66364   0.66639
 Alpha virt. eigenvalues --    0.67987   0.69641   0.73766   0.75233   0.77911
 Alpha virt. eigenvalues --    0.80504   0.81328   0.82417   0.83648   0.84942
 Alpha virt. eigenvalues --    0.86130   0.86520   0.87744   0.89067   0.91303
 Alpha virt. eigenvalues --    0.93029   0.93468   0.94432   0.95745   0.98873
 Alpha virt. eigenvalues --    0.99753   1.05424   1.08360   1.09514   1.12652
 Alpha virt. eigenvalues --    1.17671   1.21453   1.24936   1.25861   1.28082
 Alpha virt. eigenvalues --    1.34697   1.39109   1.40351   1.42454   1.43460
 Alpha virt. eigenvalues --    1.46692   1.48083   1.48381   1.56817   1.62042
 Alpha virt. eigenvalues --    1.63063   1.69038   1.72627   1.73710   1.75101
 Alpha virt. eigenvalues --    1.79031   1.80419   1.82362   1.86285   1.86853
 Alpha virt. eigenvalues --    1.89540   1.93085   1.94311   1.96969   1.98968
 Alpha virt. eigenvalues --    2.01260   2.02059   2.03604   2.08533   2.10157
 Alpha virt. eigenvalues --    2.11383   2.12258   2.14907   2.16400   2.23191
 Alpha virt. eigenvalues --    2.24098   2.29605   2.30037   2.31789   2.33355
 Alpha virt. eigenvalues --    2.33888   2.38487   2.39322   2.41319   2.45273
 Alpha virt. eigenvalues --    2.45499   2.47897   2.49748   2.51035   2.53239
 Alpha virt. eigenvalues --    2.56361   2.59856   2.61009   2.62244   2.65682
 Alpha virt. eigenvalues --    2.67350   2.69107   2.70381   2.74284   2.78065
 Alpha virt. eigenvalues --    2.81025   2.84118   2.84533   2.87671   2.90924
 Alpha virt. eigenvalues --    2.99981   3.04260   3.18727   3.21624   3.23563
 Alpha virt. eigenvalues --    3.25065   3.29685   3.35124   3.38554   3.39474
 Alpha virt. eigenvalues --    3.46471   3.47271   3.54313   3.78938   4.09050
 Alpha virt. eigenvalues --    4.14439   4.18644   4.27977   4.33336   4.40625
 Alpha virt. eigenvalues --    4.47919   4.62086   4.77165   8.63443  73.16271
          Condensed to atoms (all electrons):
               1          2          3          4          5          6
     1  Br  35.013934   0.254092  -0.051688  -0.011170   0.000273  -0.000018
     2  C    0.254092   4.976555   0.338593  -0.038371   0.002719   0.000314
     3  C   -0.051688   0.338593   4.963124   0.356883  -0.027196  -0.005307
     4  C   -0.011170  -0.038371   0.356883   5.041829   0.332397  -0.047635
     5  C    0.000273   0.002719  -0.027196   0.332397   4.827722   0.488390
     6  C   -0.000018   0.000314  -0.005307  -0.047635   0.488390   4.810345
     7  N    0.000000  -0.000001  -0.000108   0.006372  -0.015522   0.434235
     8  C   -0.000000   0.000000   0.000018   0.000140  -0.033412  -0.072041
     9  C   -0.000000   0.000002  -0.000176   0.006871  -0.018629  -0.040862
    10  C    0.000004  -0.000105   0.003468  -0.062170   0.527552  -0.035238
    11  H   -0.037054   0.378547  -0.030992   0.003862  -0.000079  -0.000001
    12  H   -0.037563   0.375617  -0.034891  -0.006524   0.000009   0.000001
    13  H   -0.000699  -0.038271   0.385794  -0.034879  -0.003544   0.000965
    14  H    0.004754  -0.030798   0.370461  -0.039113  -0.001404   0.000797
    15  H    0.013490  -0.005306  -0.034342   0.374107  -0.028831   0.000216
    16  H   -0.000079  -0.003934  -0.039963   0.370827  -0.032227   0.001982
    17  H   -0.000004  -0.000094   0.003794  -0.006694  -0.066394   0.389432
    18  H    0.000000  -0.000000  -0.000000   0.000016   0.000808   0.004454
    19  H    0.000000  -0.000000   0.000001  -0.000101   0.005021   0.000413
    20  H   -0.000001  -0.000007   0.000135  -0.008846  -0.051866   0.005525
               7          8          9         10         11         12
     1  Br   0.000000  -0.000000  -0.000000   0.000004  -0.037054  -0.037563
     2  C   -0.000001   0.000000   0.000002  -0.000105   0.378547   0.375617
     3  C   -0.000108   0.000018  -0.000176   0.003468  -0.030992  -0.034891
     4  C    0.006372   0.000140   0.006871  -0.062170   0.003862  -0.006524
     5  C   -0.015522  -0.033412  -0.018629   0.527552  -0.000079   0.000009
     6  C    0.434235  -0.072041  -0.040862  -0.035238  -0.000001   0.000001
     7  N    6.740455   0.460577  -0.023862  -0.056773  -0.000000   0.000000
     8  C    0.460577   4.727278   0.501840  -0.037547   0.000000  -0.000000
     9  C   -0.023862   0.501840   4.902695   0.513915  -0.000000  -0.000000
    10  C   -0.056773  -0.037547   0.513915   4.898257   0.000001  -0.000004
    11  H   -0.000000   0.000000  -0.000000   0.000001   0.580594  -0.037671
    12  H    0.000000  -0.000000  -0.000000  -0.000004  -0.037671   0.585923
    13  H    0.000023  -0.000005   0.000001   0.000036  -0.003685   0.005370
    14  H   -0.000045  -0.000008  -0.000005   0.000166  -0.002249  -0.001838
    15  H   -0.000110   0.000036  -0.000116  -0.003336   0.000092  -0.000143
    16  H   -0.000122   0.000026  -0.000016  -0.005219   0.000008   0.005270
    17  H   -0.050339   0.004903   0.000375   0.004009   0.000011   0.000001
    18  H   -0.050217   0.387772  -0.061510   0.003308  -0.000000   0.000000
    19  H    0.004922  -0.035821   0.359099  -0.039957   0.000000  -0.000000
    20  H   -0.000305   0.004972  -0.045598   0.376834   0.000000   0.000001
              13         14         15         16         17         18
     1  Br  -0.000699   0.004754   0.013490  -0.000079  -0.000004   0.000000
     2  C   -0.038271  -0.030798  -0.005306  -0.003934  -0.000094  -0.000000
     3  C    0.385794   0.370461  -0.034342  -0.039963   0.003794  -0.000000
     4  C   -0.034879  -0.039113   0.374107   0.370827  -0.006694   0.000016
     5  C   -0.003544  -0.001404  -0.028831  -0.032227  -0.066394   0.000808
     6  C    0.000965   0.000797   0.000216   0.001982   0.389432   0.004454
     7  N    0.000023  -0.000045  -0.000110  -0.000122  -0.050339  -0.050217
     8  C   -0.000005  -0.000008   0.000036   0.000026   0.004903   0.387772
     9  C    0.000001  -0.000005  -0.000116  -0.000016   0.000375  -0.061510
    10  C    0.000036   0.000166  -0.003336  -0.005219   0.004009   0.003308
    11  H   -0.003685  -0.002249   0.000092   0.000008   0.000011  -0.000000
    12  H    0.005370  -0.001838  -0.000143   0.005270   0.000001   0.000000
    13  H    0.595574  -0.037712  -0.005975   0.005639   0.001807   0.000000
    14  H   -0.037712   0.618905   0.005606  -0.005315   0.001241   0.000000
    15  H   -0.005975   0.005606   0.575661  -0.034930   0.000113  -0.000000
    16  H    0.005639  -0.005315  -0.034930   0.624055   0.000052  -0.000000
    17  H    0.001807   0.001241   0.000113   0.000052   0.622939  -0.000203
    18  H    0.000000   0.000000  -0.000000  -0.000000  -0.000203   0.617350
    19  H    0.000000   0.000000  -0.000002  -0.000007   0.000026  -0.002276
    20  H    0.000003   0.000006   0.001938   0.003092  -0.000171  -0.000193
              19         20
     1  Br   0.000000  -0.000001
     2  C   -0.000000  -0.000007
     3  C    0.000001   0.000135
     4  C   -0.000101  -0.008846
     5  C    0.005021  -0.051866
     6  C    0.000413   0.005525
     7  N    0.004922  -0.000305
     8  C   -0.035821   0.004972
     9  C    0.359099  -0.045598
    10  C   -0.039957   0.376834
    11  H    0.000000   0.000000
    12  H   -0.000000   0.000001
    13  H    0.000000   0.000003
    14  H    0.000000   0.000006
    15  H   -0.000002   0.001938
    16  H   -0.000007   0.003092
    17  H    0.000026  -0.000171
    18  H   -0.002276  -0.000193
    19  H    0.623672  -0.006649
    20  H   -0.006649   0.628423
 Mulliken charges:
               1
     1  Br  -0.148272
     2  C   -0.209552
     3  C   -0.197606
     4  C   -0.237802
     5  C    0.094215
     6  C    0.064034
     7  N   -0.449181
     8  C    0.091273
     9  C   -0.094022
    10  C   -0.087201
    11  H    0.148616
    12  H    0.146442
    13  H    0.129558
    14  H    0.116551
    15  H    0.141833
    16  H    0.110861
    17  H    0.095195
    18  H    0.100692
    19  H    0.091659
    20  H    0.092706
 Sum of Mulliken charges =  -0.00000
 Mulliken charges with hydrogens summed into heavy atoms:
               1
     1  Br  -0.148272
     2  C    0.085506
     3  C    0.048503
     4  C    0.014893
     5  C    0.094215
     6  C    0.159228
     7  N   -0.449181
     8  C    0.191965
     9  C   -0.002363
    10  C    0.005505
 Electronic spatial extent (au):  <R**2>=           3394.4576
 Charge=              0.0000 electrons
 Dipole moment (field-independent basis, Debye):
    X=             -0.1157    Y=             -0.7314    Z=              1.9656  Tot=              2.1004
 Quadrupole moment (field-independent basis, Debye-Ang):
   XX=            -78.5347   YY=            -69.7478   ZZ=            -71.8986
   XY=            -10.8334   XZ=             -0.0687   YZ=              1.5080
 Traceless Quadrupole moment (field-independent basis, Debye-Ang):
   XX=             -5.1410   YY=              3.6459   ZZ=              1.4951
   XY=            -10.8334   XZ=             -0.0687   YZ=              1.5080
 Octapole moment (field-independent basis, Debye-Ang**2):
  XXX=            -67.2071  YYY=            -14.3031  ZZZ=             -7.4982  XYY=            -40.9869
  XXY=            -34.1246  XXZ=              4.9812  XZZ=            -43.4097  YZZ=             -3.7159
  YYZ=              0.9202  XYZ=             -2.0390
 Hexadecapole moment (field-independent basis, Debye-Ang**3):
 XXXX=          -3356.4023 YYYY=           -398.4913 ZZZZ=           -190.9691 XXXY=           -115.7664
 XXXZ=             35.9107 YYYX=             -8.8800 YYYZ=              4.9558 ZZZX=             29.8041
 ZZZY=              6.7566 XXYY=           -655.1776 XXZZ=           -623.5206 YYZZ=           -101.3640
 XXYZ=             27.6733 YYXZ=             25.9324 ZZXY=              9.2948
 N-N= 6.884662626502D+02 E-N=-8.357501392529D+03  KE= 2.917965858963D+03
 Calling FoFJK, ICntrl=      2127 FMM=F ISym2X=0 I1Cent= 0 IOpClX= 0 NMat=1 NMatS=1 NMatT=0.
 ***** Axes restored to original set *****
 -------------------------------------------------------------------
 Center     Atomic                   Forces (Hartrees/Bohr)
 Number     Number              X              Y              Z
 -------------------------------------------------------------------
      1       35          -0.001734141    0.006572358   -0.001109396
      2        6          -0.010765360    0.001669660    0.006256331
      3        6           0.000869867   -0.008509423   -0.007567333
      4        6          -0.003558734    0.002814749    0.008762333
      5        6           0.008747932    0.004306041    0.000135705
      6        6          -0.023476809   -0.010195416   -0.002948529
      7        7           0.000772535   -0.005098650   -0.010807282
      8        6           0.019869093    0.009534439    0.004541192
      9        6           0.007019244    0.002911667    0.001269574
     10        6          -0.006235608    0.001388042    0.007700506
     11        1           0.002331159   -0.004301536    0.001280693
     12        1           0.001000948   -0.005219011   -0.002258712
     13        1           0.000966448   -0.001085103    0.001850708
     14        1          -0.000200005    0.005046574   -0.000793229
     15        1           0.004121213   -0.001124503   -0.000891971
     16        1           0.000773670    0.001410710   -0.003999016
     17        1           0.003815364    0.002451743    0.001506814
     18        1          -0.003640760   -0.000064542    0.002432172
     19        1          -0.002889517   -0.001706075   -0.001402589
     20        1           0.002213463   -0.000801724   -0.003957973
 -------------------------------------------------------------------
 Cartesian Forces:  Max     0.023476809 RMS     0.006063242

 GradGradGradGradGradGradGradGradGradGradGradGradGradGradGradGradGradGrad
 Berny optimization.
 FormGI is forming the generalized inverse of G from B-inverse, IUseBI=4.
 Internal  Forces:  Max     0.018637037 RMS     0.003685989
 Search for a local minimum.
 Step number   1 out of a maximum of  108
 All quantities printed in internal units (Hartrees-Bohrs-Radians)
 Mixed Optimization -- RFO/linear search
 Second derivative matrix not updated -- first step.
 ITU=  0
     Eigenvalues ---    0.00230   0.00258   0.00391   0.01368   0.02077
     Eigenvalues ---    0.02109   0.02116   0.02142   0.02145   0.02188
     Eigenvalues ---    0.02231   0.03346   0.03596   0.04728   0.05191
     Eigenvalues ---    0.05454   0.05639   0.08439   0.09896   0.12293
     Eigenvalues ---    0.13180   0.14412   0.16000   0.16000   0.16000
     Eigenvalues ---    0.16000   0.16000   0.16000   0.21931   0.22000
     Eigenvalues ---    0.22003   0.22233   0.23190   0.23451   0.24999
     Eigenvalues ---    0.28041   0.28660   0.29579   0.34636   0.34642
     Eigenvalues ---    0.34656   0.34665   0.34696   0.34708   0.35895
     Eigenvalues ---    0.35910   0.35976   0.36103   0.41902   0.43594
     Eigenvalues ---    0.45608   0.46153   0.51799   0.52941
 RFO step:  Lambda=-4.48373477D-03 EMin= 2.30000000D-03
 Linear search not attempted -- first point.
 Iteration  1 RMS(Cart)=  0.03055416 RMS(Int)=  0.00030177
 Iteration  2 RMS(Cart)=  0.00037279 RMS(Int)=  0.00012553
 Iteration  3 RMS(Cart)=  0.00000010 RMS(Int)=  0.00012553
 Variable       Old X    -DE/DX   Delta X   Delta X   Delta X     New X
                                 (Linear)    (Quad)   (Total)
    R1        3.76393  -0.00640   0.00000  -0.04306  -0.04306   3.72087
    R2        2.90719  -0.01011   0.00000  -0.03474  -0.03474   2.87245
    R3        2.06152  -0.00079   0.00000  -0.00225  -0.00225   2.05926
    R4        2.06171  -0.00001   0.00000  -0.00002  -0.00002   2.06169
    R5        2.92048  -0.00939   0.00000  -0.03295  -0.03295   2.88753
    R6        2.06236   0.00228   0.00000   0.00649   0.00649   2.06886
    R7        2.06222   0.00442   0.00000   0.01259   0.01259   2.07481
    R8        2.88811  -0.00658   0.00000  -0.02191  -0.02191   2.86620
    R9        2.06261   0.00284   0.00000   0.00808   0.00808   2.07069
   R10        2.06270   0.00408   0.00000   0.01163   0.01163   2.07433
   R11        2.65156  -0.00439   0.00000  -0.00987  -0.00985   2.64170
   R12        2.64573  -0.00377   0.00000  -0.00680  -0.00679   2.63894
   R13        2.56526  -0.01568   0.00000  -0.03041  -0.03039   2.53486
   R14        2.03921   0.00458   0.00000   0.01252   0.01252   2.05173
   R15        2.56283  -0.01864   0.00000  -0.03556  -0.03557   2.52726
   R16        2.63673  -0.00080   0.00000  -0.00158  -0.00161   2.63512
   R17        2.04246   0.00432   0.00000   0.01187   0.01187   2.05433
   R18        2.63846  -0.00576   0.00000  -0.01080  -0.01082   2.62764
   R19        2.04119   0.00360   0.00000   0.00988   0.00988   2.05107
   R20        2.04223   0.00433   0.00000   0.01192   0.01192   2.05415
    A1        1.92863   0.00468   0.00000   0.01073   0.01079   1.93941
    A2        1.87294  -0.00395   0.00000  -0.03120  -0.03115   1.84179
    A3        1.88588  -0.00482   0.00000  -0.04428  -0.04422   1.84166
    A4        1.94099   0.00109   0.00000   0.01637   0.01597   1.95696
    A5        1.95402   0.00085   0.00000   0.01050   0.01010   1.96412
    A6        1.87831   0.00170   0.00000   0.03497   0.03424   1.91255
    A7        1.98350  -0.00230   0.00000  -0.01348  -0.01350   1.97000
    A8        1.89940   0.00074   0.00000   0.00230   0.00236   1.90176
    A9        1.89178  -0.00106   0.00000  -0.01739  -0.01737   1.87441
   A10        1.92017   0.00071   0.00000   0.00740   0.00735   1.92752
   A11        1.90435   0.00185   0.00000   0.01087   0.01063   1.91498
   A12        1.86046   0.00017   0.00000   0.01154   0.01145   1.87191
   A13        2.02864  -0.00411   0.00000  -0.01763  -0.01758   2.01106
   A14        1.91353  -0.00135   0.00000  -0.01787  -0.01777   1.89576
   A15        1.90192   0.00074   0.00000  -0.00065  -0.00058   1.90135
   A16        1.87701   0.00368   0.00000   0.02579   0.02560   1.90261
   A17        1.87918   0.00201   0.00000   0.01582   0.01573   1.89491
   A18        1.85581  -0.00066   0.00000  -0.00387  -0.00417   1.85164
   A19        2.15291   0.00064   0.00000   0.00144   0.00142   2.15433
   A20        2.07793   0.00303   0.00000   0.01083   0.01082   2.08874
   A21        2.05233  -0.00367   0.00000  -0.01228  -0.01225   2.04008
   A22        2.15064   0.00652   0.00000   0.02532   0.02535   2.17600
   A23        2.12728  -0.00463   0.00000  -0.02098  -0.02100   2.10628
   A24        2.00526  -0.00189   0.00000  -0.00433  -0.00435   2.00091
   A25        2.05823  -0.00198   0.00000  -0.01604  -0.01604   2.04219
   A26        2.14296   0.00297   0.00000   0.01060   0.01057   2.15353
   A27        2.02914  -0.00223   0.00000  -0.00985  -0.00984   2.01930
   A28        2.11109  -0.00074   0.00000  -0.00074  -0.00073   2.11036
   A29        2.06833  -0.00073   0.00000   0.00024   0.00020   2.06853
   A30        2.10857  -0.00017   0.00000  -0.00340  -0.00339   2.10519
   A31        2.10628   0.00091   0.00000   0.00317   0.00318   2.10947
   A32        2.09386  -0.00311   0.00000  -0.00782  -0.00782   2.08604
   A33        2.10129  -0.00002   0.00000  -0.00565  -0.00564   2.09564
   A34        2.08803   0.00313   0.00000   0.01347   0.01347   2.10150
    D1       -1.13010   0.00051   0.00000   0.01199   0.01206  -1.11804
    D2        1.01601   0.00039   0.00000   0.01395   0.01397   1.02998
    D3        3.03283   0.00042   0.00000   0.01948   0.01941   3.05224
    D4        3.07491   0.00169   0.00000   0.03349   0.03374   3.10865
    D5       -1.06217   0.00158   0.00000   0.03544   0.03565  -1.02651
    D6        0.95466   0.00161   0.00000   0.04097   0.04109   0.99575
    D7        0.97294  -0.00183   0.00000  -0.02982  -0.02996   0.94298
    D8        3.11906  -0.00194   0.00000  -0.02787  -0.02805   3.09100
    D9       -1.14731  -0.00191   0.00000  -0.02234  -0.02262  -1.16992
   D10       -3.07412   0.00056   0.00000  -0.00522  -0.00515  -3.07926
   D11        1.07655  -0.00025   0.00000  -0.01230  -0.01232   1.06422
   D12       -0.94801   0.00088   0.00000   0.00266   0.00268  -0.94534
   D13        1.07439   0.00068   0.00000  -0.00420  -0.00410   1.07029
   D14       -1.05813  -0.00013   0.00000  -0.01128  -0.01128  -1.06941
   D15       -3.08269   0.00100   0.00000   0.00367   0.00372  -3.07897
   D16       -0.96089  -0.00100   0.00000  -0.02866  -0.02869  -0.98958
   D17       -3.09341  -0.00181   0.00000  -0.03574  -0.03586  -3.12928
   D18        1.16521  -0.00068   0.00000  -0.02079  -0.02086   1.14435
   D19       -0.12206   0.00045   0.00000   0.00384   0.00388  -0.11818
   D20        3.02638   0.00050   0.00000   0.00610   0.00615   3.03254
   D21        2.02958  -0.00127   0.00000  -0.01151  -0.01173   2.01785
   D22       -1.10517  -0.00123   0.00000  -0.00925  -0.00945  -1.11461
   D23       -2.26014   0.00075   0.00000   0.00443   0.00458  -2.25556
   D24        0.88830   0.00080   0.00000   0.00669   0.00686   0.89516
   D25       -3.14042   0.00012   0.00000   0.00587   0.00589  -3.13452
   D26       -0.00281   0.00022   0.00000   0.00912   0.00911   0.00630
   D27       -0.00558   0.00010   0.00000   0.00373   0.00376  -0.00182
   D28        3.13203   0.00019   0.00000   0.00697   0.00697   3.13900
   D29        3.13971  -0.00015   0.00000  -0.00615  -0.00613   3.13358
   D30       -0.00034  -0.00017   0.00000  -0.00694  -0.00692  -0.00727
   D31        0.00457  -0.00012   0.00000  -0.00407  -0.00405   0.00052
   D32       -3.13548  -0.00014   0.00000  -0.00486  -0.00484  -3.14032
   D33        0.00296  -0.00004   0.00000  -0.00174  -0.00175   0.00122
   D34       -3.13490  -0.00013   0.00000  -0.00473  -0.00475  -3.13965
   D35        0.00069   0.00001   0.00000   0.00004   0.00001   0.00071
   D36        3.14001   0.00010   0.00000   0.00370   0.00368  -3.13950
   D37       -0.00150  -0.00001   0.00000  -0.00039  -0.00039  -0.00189
   D38        3.13863   0.00007   0.00000   0.00283   0.00284   3.14147
   D39       -3.14071  -0.00011   0.00000  -0.00421  -0.00423   3.13825
   D40       -0.00058  -0.00003   0.00000  -0.00099  -0.00099  -0.00157
   D41       -0.00126   0.00006   0.00000   0.00243   0.00245   0.00118
   D42        3.13880   0.00007   0.00000   0.00320   0.00323  -3.14116
   D43       -3.14140  -0.00002   0.00000  -0.00078  -0.00079   3.14100
   D44       -0.00133  -0.00001   0.00000  -0.00001  -0.00001  -0.00134
         Item               Value     Threshold  Converged?
 Maximum Force            0.018637     0.000450     NO 
 RMS     Force            0.003686     0.000300     NO 
 Maximum Displacement     0.084951     0.001800     NO 
 RMS     Displacement     0.030592     0.001200     NO 
 Predicted change in Energy=-2.311891D-03
 GradGradGradGradGradGradGradGradGradGradGradGradGradGradGradGradGradGrad

                          Input orientation:                          
 ---------------------------------------------------------------------
 Center     Atomic      Atomic             Coordinates (Angstroms)
 Number     Number       Type             X           Y           Z
 ---------------------------------------------------------------------
      1         35           0        5.331546   -2.265154    0.298925
      2          6           0        4.310138   -0.593530    0.497313
      3          6           0        2.992719   -0.838528    1.214866
      4          6           0        2.048310   -1.746930    0.428908
      5          6           0        0.683954   -1.958914    1.056647
      6          6           0        0.340000   -1.490783    2.328164
      7          7           0       -0.855153   -1.670556    2.910079
      8          6           0       -1.773749   -2.348839    2.213901
      9          6           0       -1.543838   -2.864594    0.938902
     10          6           0       -0.297294   -2.663854    0.356412
     11          1           0        4.960647    0.081626    1.052727
     12          1           0        4.170119   -0.214952   -0.516272
     13          1           0        3.199155   -1.264269    2.202134
     14          1           0        2.519064    0.139060    1.374381
     15          1           0        2.532915   -2.719998    0.291105
     16          1           0        1.909312   -1.331041   -0.577391
     17          1           0        1.056617   -0.937395    2.927352
     18          1           0       -2.734863   -2.480278    2.704596
     19          1           0       -2.322543   -3.408825    0.414043
     20          1           0       -0.084955   -3.052245   -0.636391
 ---------------------------------------------------------------------
                    Distance matrix (angstroms):
                    1          2          3          4          5
     1  Br   0.000000
     2  C    1.969000   0.000000
     3  C    2.888654   1.520033   0.000000
     4  C    3.326423   2.539859   1.528016   0.000000
     5  C    4.718902   3.914888   2.571128   1.516727   0.000000
     6  C    5.443619   4.463079   2.949879   2.567315   1.397929
     7  N    6.741432   5.801867   4.286273   3.819965   2.426357
     8  C    7.359304   6.560600   5.098856   4.261060   2.744373
     9  C    6.931075   6.294583   4.976088   3.796418   2.407732
    10  C    5.643235   5.053171   3.859138   2.519497   1.396465
    11  H    2.492621   1.089715   2.178465   3.494921   4.738557
    12  H    2.493349   1.091001   2.184481   2.782517   4.203431
    13  H    3.028377   2.142566   1.094791   2.168349   2.849721
    14  H    3.853168   2.124590   1.097940   2.161594   2.805367
    15  H    2.835362   2.779013   2.145853   1.095761   2.141018
    16  H    3.654063   2.731827   2.151401   1.097689   2.136775
    17  H    5.191011   4.075381   2.586672   2.807316   2.163774
    18  H    8.420242   7.619971   6.141648   5.347457   3.830909
    19  H    7.739917   7.205921   5.958168   4.676160   3.399148
    20  H    5.552729   5.162113   4.218978   2.718368   2.157075
                    6          7          8          9         10
     6  C    0.000000
     7  N    1.341392   0.000000
     8  C    2.284131   1.337368   0.000000
     9  C    2.714084   2.405318   1.394448   0.000000
    10  C    2.381185   2.796258   2.393620   1.390490   0.000000
    11  H    5.044758   6.351647   7.253108   7.141533   5.972307
    12  H    4.938459   6.253961   6.880181   6.464321   5.168799
    13  H    2.870881   4.135658   5.089814   5.162633   4.194125
    14  H    2.883472   4.125339   5.032165   5.071367   4.101764
    15  H    3.235653   4.409008   4.730989   4.130431   2.831519
    16  H    3.306132   4.463181   4.732036   4.071262   2.741805
    17  H    1.085727   2.047605   3.242246   3.798736   3.379862
    18  H    3.252012   2.056984   1.087105   2.164235   3.389603
    19  H    3.798932   3.377131   2.159683   1.085378   2.158689
    20  H    3.377475   3.883262   3.386882   2.155250   1.087012
                   11         12         13         14         15
    11  H    0.000000
    12  H    1.781755   0.000000
    13  H    2.497082   3.071412   0.000000
    14  H    2.463348   2.534932   1.765511   0.000000
    15  H    3.784580   3.099605   2.493001   3.057432   0.000000
    16  H    3.736783   2.522030   3.064948   2.518414   1.752817
    17  H    4.449053   4.698337   2.285445   2.389399   3.508123
    18  H    8.277251   7.948866   6.078134   6.019481   5.799300
    19  H    8.101606   7.295271   6.187532   6.078726   4.905616
    20  H    6.175140   5.115693   4.694621   4.583509   2.797120
                   16         17         18         19         20
    16  H    0.000000
    17  H    3.628397   0.000000
    18  H    5.801771   4.099442   0.000000
    19  H    4.817544   4.882972   2.505761   0.000000
    20  H    2.634981   4.298377   4.302482   2.497472   0.000000
 Stoichiometry    C8H10BrN
 Framework group  C1[X(C8H10BrN)]
 Deg. of freedom    54
 Full point group                 C1      NOp   1
 Largest Abelian subgroup         C1      NOp   1
 Largest concise Abelian subgroup C1      NOp   1
                         Standard orientation:                         
 ---------------------------------------------------------------------
 Center     Atomic      Atomic             Coordinates (Angstroms)
 Number     Number       Type             X           Y           Z
 ---------------------------------------------------------------------
      1         35           0       -3.018366   -0.317016   -0.348946
      2          6           0       -2.055300    0.887900    0.874836
      3          6           0       -0.602266    1.045602    0.457314
      4          6           0        0.185600   -0.260792    0.543538
      5          6           0        1.663041   -0.147180    0.219931
      6          6           0        2.257554    1.021158   -0.265608
      7          7           0        3.558567    1.146980   -0.567049
      8          6           0        4.330658    0.069958   -0.386905
      9          6           0        3.848647   -1.148799    0.089310
     10          6           0        2.496486   -1.253730    0.396087
     11          1           0       -2.597125    1.832734    0.840294
     12          1           0       -2.159781    0.442485    1.865276
     13          1           0       -0.566162    1.447361   -0.560456
     14          1           0       -0.149949    1.795426    1.119618
     15          1           0       -0.272799   -0.991078   -0.132660
     16          1           0        0.080038   -0.674415    1.554822
     17          1           0        1.666509    1.917331   -0.427912
     18          1           0        5.381324    0.196186   -0.635833
     19          1           0        4.516175   -1.994835    0.218440
     20          1           0        2.088101   -2.189213    0.769838
 ---------------------------------------------------------------------
 Rotational constants (GHZ):           3.0936153           0.3099378           0.2960994
 Standard basis: 6-31G(d,p) (6D, 7F)
 There are   215 symmetry adapted cartesian basis functions of A   symmetry.
 There are   215 symmetry adapted basis functions of A   symmetry.
   215 basis functions,   405 primitive gaussians,   215 cartesian basis functions
    50 alpha electrons       50 beta electrons
       nuclear repulsion energy       694.5552082203 Hartrees.
 NAtoms=   20 NActive=   20 NUniq=   20 SFac= 1.00D+00 NAtFMM=   60 NAOKFM=F Big=F
 Integral buffers will be    131072 words long.
 Raffenetti 2 integral format.
 Two-electron integral symmetry is turned on.
 Nuclear repulsion after empirical dispersion term =      694.5174526791 Hartrees.
 One-electron integrals computed using PRISM.
 NBasis=   215 RedAO= T EigKep=  7.38D-04  NBF=   215
 NBsUse=   215 1.00D-06 EigRej= -1.00D+00 NBFU=   215
 Initial guess from the checkpoint file:  "pyrd10_conf-9.chk"
 B after Tr=    -0.000000   -0.000000   -0.000000
         Rot=    0.999985   -0.005413    0.000020   -0.000023 Ang=  -0.62 deg.
 ExpMin= 1.43D-01 ExpMax= 5.74D+05 ExpMxC= 5.74D+03 IAcc=3 IRadAn=         5 AccDes= 0.00D+00
 Harris functional with IExCor=  402 and IRadAn=       5 diagonalized for initial guess.
 HarFok:  IExCor=  402 AccDes= 0.00D+00 IRadAn=         5 IDoV= 1 UseB2=F ITyADJ=14
 ICtDFT=  3500011 ScaDFX=  1.000000  1.000000  1.000000  1.000000
 FoFCou: FMM=F IPFlag=           0 FMFlag=      100000 FMFlg1=           0
         NFxFlg=           0 DoJE=T BraDBF=F KetDBF=T FulRan=T
         wScrn=  0.000000 ICntrl=       500 IOpCl=  0 I1Cent=   200000004 NGrid=           0
         NMat0=    1 NMatS0=      1 NMatT0=    0 NMatD0=    1 NMtDS0=    0 NMtDT0=    0
 Petite list used in FoFCou.
 Requested convergence on RMS density matrix=1.00D-08 within 128 cycles.
 Requested convergence on MAX density matrix=1.00D-06.
 Requested convergence on             energy=1.00D-06.
 No special actions if energy rises.
 Integral accuracy reduced to 1.0D-05 until final iterations.
 Initial convergence to 1.0D-05 achieved.  Increase integral accuracy.
 SCF Done:  E(RB3LYP) =  -2937.38545016     A.U. after   12 cycles
            NFock= 12  Conv=0.48D-08     -V/T= 2.0066
 Calling FoFJK, ICntrl=      2127 FMM=F ISym2X=0 I1Cent= 0 IOpClX= 0 NMat=1 NMatS=1 NMatT=0.
 ***** Axes restored to original set *****
 -------------------------------------------------------------------
 Center     Atomic                   Forces (Hartrees/Bohr)
 Number     Number              X              Y              Z
 -------------------------------------------------------------------
      1       35           0.003220877   -0.002986627   -0.000894310
      2        6          -0.002119174    0.003410410    0.001506518
      3        6           0.000897884    0.000010339   -0.001626024
      4        6          -0.003077529    0.000265715    0.002988525
      5        6           0.004354519    0.000888820   -0.001370249
      6        6          -0.001457956    0.000606035    0.002637444
      7        7           0.000667770   -0.001103055   -0.002963915
      8        6          -0.000192241    0.001225718    0.002679044
      9        6          -0.000054191   -0.000750823   -0.001709583
     10        6          -0.003022969   -0.001131151    0.000212791
     11        1           0.000074663   -0.000517222   -0.000267392
     12        1          -0.000006989   -0.000382142    0.000209218
     13        1          -0.000076384    0.000372022    0.000109512
     14        1           0.000246149    0.000495580    0.000270323
     15        1           0.000292587   -0.000004866   -0.000560547
     16        1           0.000188677   -0.000182872   -0.000526459
     17        1           0.001093387    0.000319159   -0.000418406
     18        1          -0.001020013   -0.000760050   -0.000610562
     19        1          -0.000264109    0.000114239    0.000435585
     20        1           0.000255042    0.000110769   -0.000101515
 -------------------------------------------------------------------
 Cartesian Forces:  Max     0.004354519 RMS     0.001473335

 GradGradGradGradGradGradGradGradGradGradGradGradGradGradGradGradGradGrad
 Berny optimization.
 Using GEDIIS/GDIIS optimizer.
 FormGI is forming the generalized inverse of G from B-inverse, IUseBI=4.
 Internal  Forces:  Max     0.004296516 RMS     0.000898235
 Search for a local minimum.
 Step number   2 out of a maximum of  108
 All quantities printed in internal units (Hartrees-Bohrs-Radians)
 Mixed Optimization -- En-DIIS/RFO-DIIS
 Update second derivatives using D2CorX and points    1    2
 DE= -2.14D-03 DEPred=-2.31D-03 R= 9.27D-01
 TightC=F SS=  1.41D+00  RLast= 1.66D-01 DXNew= 5.0454D-01 4.9927D-01
 Trust test= 9.27D-01 RLast= 1.66D-01 DXMaxT set to 4.99D-01
 ITU=  1  0
 Use linear search instead of GDIIS.
     Eigenvalues ---    0.00230   0.00258   0.00391   0.01361   0.02077
     Eigenvalues ---    0.02110   0.02116   0.02142   0.02145   0.02188
     Eigenvalues ---    0.02231   0.03429   0.03686   0.04784   0.05182
     Eigenvalues ---    0.05461   0.05504   0.08252   0.09660   0.12158
     Eigenvalues ---    0.13049   0.15253   0.15668   0.16000   0.16000
     Eigenvalues ---    0.16000   0.16000   0.16242   0.20796   0.21951
     Eigenvalues ---    0.21999   0.22318   0.23315   0.24379   0.25027
     Eigenvalues ---    0.28318   0.29385   0.29786   0.34402   0.34640
     Eigenvalues ---    0.34653   0.34662   0.34701   0.34732   0.35682
     Eigenvalues ---    0.35922   0.35997   0.36060   0.41948   0.43471
     Eigenvalues ---    0.45563   0.46209   0.52290   0.52998
 RFO step:  Lambda=-3.55203103D-04 EMin= 2.30382733D-03
 Quartic linear search produced a step of -0.05268.
 Iteration  1 RMS(Cart)=  0.01249214 RMS(Int)=  0.00007677
 Iteration  2 RMS(Cart)=  0.00009359 RMS(Int)=  0.00001158
 Iteration  3 RMS(Cart)=  0.00000001 RMS(Int)=  0.00001158
 Variable       Old X    -DE/DX   Delta X   Delta X   Delta X     New X
                                 (Linear)    (Quad)   (Total)
    R1        3.72087   0.00430   0.00227   0.02232   0.02459   3.74546
    R2        2.87245   0.00068   0.00183  -0.00242  -0.00059   2.87185
    R3        2.05926  -0.00041   0.00012  -0.00143  -0.00131   2.05796
    R4        2.06169  -0.00033   0.00000  -0.00089  -0.00089   2.06080
    R5        2.88753   0.00127   0.00174  -0.00015   0.00159   2.88912
    R6        2.06886  -0.00006  -0.00034   0.00070   0.00036   2.06922
    R7        2.07481   0.00037  -0.00066   0.00270   0.00204   2.07685
    R8        2.86620  -0.00076   0.00115  -0.00535  -0.00420   2.86200
    R9        2.07069   0.00020  -0.00043   0.00164   0.00121   2.07190
   R10        2.07433   0.00039  -0.00061   0.00262   0.00200   2.07634
   R11        2.64170   0.00090   0.00052   0.00067   0.00119   2.64289
   R12        2.63894   0.00325   0.00036   0.00598   0.00633   2.64527
   R13        2.53486  -0.00012   0.00160  -0.00429  -0.00269   2.53217
   R14        2.05173   0.00065  -0.00066   0.00339   0.00273   2.05445
   R15        2.52726  -0.00013   0.00187  -0.00508  -0.00321   2.52405
   R16        2.63512   0.00062   0.00008   0.00097   0.00105   2.63618
   R17        2.05433   0.00072  -0.00063   0.00348   0.00285   2.05718
   R18        2.62764   0.00014   0.00057  -0.00112  -0.00055   2.62709
   R19        2.05107  -0.00008  -0.00052   0.00111   0.00059   2.05166
   R20        2.05415   0.00010  -0.00063   0.00186   0.00124   2.05539
    A1        1.93941   0.00327  -0.00057   0.01565   0.01507   1.95449
    A2        1.84179  -0.00153   0.00164  -0.01090  -0.00928   1.83251
    A3        1.84166  -0.00121   0.00233  -0.01011  -0.00778   1.83387
    A4        1.95696  -0.00013  -0.00084   0.00184   0.00101   1.95797
    A5        1.96412  -0.00064  -0.00053  -0.00163  -0.00214   1.96198
    A6        1.91255   0.00014  -0.00180   0.00399   0.00223   1.91478
    A7        1.97000   0.00171   0.00071   0.00689   0.00760   1.97760
    A8        1.90176  -0.00050  -0.00012  -0.00033  -0.00049   1.90127
    A9        1.87441  -0.00080   0.00091  -0.00800  -0.00709   1.86732
   A10        1.92752  -0.00035  -0.00039   0.00234   0.00194   1.92946
   A11        1.91498  -0.00023  -0.00056   0.00116   0.00063   1.91561
   A12        1.87191   0.00009  -0.00060  -0.00282  -0.00343   1.86848
   A13        2.01106   0.00225   0.00093   0.00920   0.01011   2.02117
   A14        1.89576  -0.00071   0.00094  -0.00516  -0.00426   1.89151
   A15        1.90135  -0.00059   0.00003  -0.00244  -0.00244   1.89891
   A16        1.90261  -0.00047  -0.00135   0.00381   0.00248   1.90509
   A17        1.89491  -0.00064  -0.00083   0.00074  -0.00009   1.89482
   A18        1.85164  -0.00001   0.00022  -0.00755  -0.00733   1.84431
   A19        2.15433   0.00061  -0.00007   0.00224   0.00217   2.15650
   A20        2.08874   0.00062  -0.00057   0.00355   0.00298   2.09172
   A21        2.04008  -0.00123   0.00065  -0.00578  -0.00514   2.03494
   A22        2.17600  -0.00079  -0.00134   0.00021  -0.00113   2.17487
   A23        2.10628  -0.00065   0.00111  -0.00740  -0.00630   2.09998
   A24        2.00091   0.00144   0.00023   0.00720   0.00742   2.00833
   A25        2.04219   0.00222   0.00084   0.00592   0.00677   2.04896
   A26        2.15353  -0.00085  -0.00056  -0.00257  -0.00313   2.15040
   A27        2.01930   0.00167   0.00052   0.00802   0.00854   2.02784
   A28        2.11036  -0.00082   0.00004  -0.00545  -0.00541   2.10495
   A29        2.06853  -0.00038  -0.00001  -0.00160  -0.00162   2.06692
   A30        2.10519  -0.00034   0.00018  -0.00277  -0.00259   2.10259
   A31        2.10947   0.00072  -0.00017   0.00437   0.00421   2.11367
   A32        2.08604   0.00103   0.00041   0.00383   0.00424   2.09028
   A33        2.09564  -0.00079   0.00030  -0.00486  -0.00456   2.09108
   A34        2.10150  -0.00024  -0.00071   0.00103   0.00032   2.10182
    D1       -1.11804  -0.00013  -0.00064  -0.01676  -0.01741  -1.13545
    D2        1.02998   0.00022  -0.00074  -0.00928  -0.01002   1.01996
    D3        3.05224  -0.00036  -0.00102  -0.01704  -0.01804   3.03420
    D4        3.10865  -0.00029  -0.00178  -0.01460  -0.01641   3.09224
    D5       -1.02651   0.00007  -0.00188  -0.00712  -0.00902  -1.03553
    D6        0.99575  -0.00051  -0.00216  -0.01488  -0.01704   0.97870
    D7        0.94298   0.00013   0.00158  -0.02008  -0.01850   0.92448
    D8        3.09100   0.00048   0.00148  -0.01259  -0.01111   3.07989
    D9       -1.16992  -0.00010   0.00119  -0.02035  -0.01913  -1.18906
   D10       -3.07926   0.00014   0.00027  -0.00558  -0.00531  -3.08458
   D11        1.06422  -0.00027   0.00065  -0.01303  -0.01237   1.05186
   D12       -0.94534   0.00043  -0.00014  -0.00003  -0.00018  -0.94551
   D13        1.07029  -0.00016   0.00022  -0.01174  -0.01154   1.05875
   D14       -1.06941  -0.00056   0.00059  -0.01919  -0.01859  -1.08800
   D15       -3.07897   0.00014  -0.00020  -0.00619  -0.00640  -3.08537
   D16       -0.98958   0.00008   0.00151  -0.01041  -0.00889  -0.99847
   D17       -3.12928  -0.00033   0.00189  -0.01786  -0.01595   3.13796
   D18        1.14435   0.00038   0.00110  -0.00486  -0.00376   1.14059
   D19       -0.11818   0.00002  -0.00020   0.00235   0.00214  -0.11604
   D20        3.03254   0.00001  -0.00032   0.00165   0.00131   3.03385
   D21        2.01785   0.00031   0.00062   0.00505   0.00570   2.02355
   D22       -1.11461   0.00030   0.00050   0.00435   0.00487  -1.10974
   D23       -2.25556  -0.00029  -0.00024  -0.00145  -0.00171  -2.25727
   D24        0.89516  -0.00030  -0.00036  -0.00216  -0.00253   0.89263
   D25       -3.13452   0.00001  -0.00031   0.00119   0.00088  -3.13365
   D26        0.00630   0.00005  -0.00048   0.00345   0.00297   0.00926
   D27       -0.00182   0.00003  -0.00020   0.00191   0.00171  -0.00011
   D28        3.13900   0.00007  -0.00037   0.00418   0.00380  -3.14038
   D29        3.13358   0.00000   0.00032  -0.00082  -0.00050   3.13308
   D30       -0.00727  -0.00002   0.00036  -0.00180  -0.00144  -0.00870
   D31        0.00052  -0.00002   0.00021  -0.00151  -0.00130  -0.00078
   D32       -3.14032  -0.00004   0.00025  -0.00249  -0.00224   3.14063
   D33        0.00122  -0.00000   0.00009  -0.00047  -0.00038   0.00084
   D34       -3.13965  -0.00004   0.00025  -0.00261  -0.00237   3.14117
   D35        0.00071  -0.00003  -0.00000  -0.00140  -0.00140  -0.00069
   D36       -3.13950  -0.00004  -0.00019  -0.00129  -0.00149  -3.14099
   D37       -0.00189   0.00004   0.00002   0.00171   0.00173  -0.00016
   D38        3.14147   0.00002  -0.00015   0.00129   0.00114  -3.14057
   D39        3.13825   0.00005   0.00022   0.00161   0.00184   3.14009
   D40       -0.00157   0.00003   0.00005   0.00119   0.00124  -0.00033
   D41        0.00118  -0.00001  -0.00013  -0.00015  -0.00028   0.00091
   D42       -3.14116   0.00001  -0.00017   0.00084   0.00066  -3.14049
   D43        3.14100   0.00001   0.00004   0.00027   0.00031   3.14131
   D44       -0.00134   0.00003   0.00000   0.00125   0.00126  -0.00009
         Item               Value     Threshold  Converged?
 Maximum Force            0.004297     0.000450     NO 
 RMS     Force            0.000898     0.000300     NO 
 Maximum Displacement     0.081578     0.001800     NO 
 RMS     Displacement     0.012516     0.001200     NO 
 Predicted change in Energy=-1.849940D-04
 GradGradGradGradGradGradGradGradGradGradGradGradGradGradGradGradGradGrad

                          Input orientation:                          
 ---------------------------------------------------------------------
 Center     Atomic      Atomic             Coordinates (Angstroms)
 Number     Number       Type             X           Y           Z
 ---------------------------------------------------------------------
      1         35           0        5.374715   -2.263033    0.309838
      2          6           0        4.317042   -0.597170    0.495851
      3          6           0        2.998398   -0.837501    1.212064
      4          6           0        2.042645   -1.741163    0.432747
      5          6           0        0.680635   -1.956246    1.059161
      6          6           0        0.333332   -1.492972    2.332235
      7          7           0       -0.861331   -1.678643    2.910009
      8          6           0       -1.780820   -2.355341    2.216728
      9          6           0       -1.551424   -2.866049    0.939000
     10          6           0       -0.305135   -2.660829    0.358228
     11          1           0        4.963440    0.087366    1.043166
     12          1           0        4.176763   -0.235030   -0.523183
     13          1           0        3.203291   -1.257806    2.202189
     14          1           0        2.534354    0.146275    1.369214
     15          1           0        2.528497   -2.712980    0.285720
     16          1           0        1.902712   -1.323964   -0.574038
     17          1           0        1.052408   -0.937572    2.929226
     18          1           0       -2.744156   -2.494179    2.704364
     19          1           0       -2.331857   -3.409159    0.414898
     20          1           0       -0.091408   -3.044003   -0.637019
 ---------------------------------------------------------------------
                    Distance matrix (angstroms):
                    1          2          3          4          5
     1  Br   0.000000
     2  C    1.982012   0.000000
     3  C    2.914282   1.519718   0.000000
     4  C    3.374929   2.546681   1.528857   0.000000
     5  C    4.763401   3.922737   2.578177   1.514505   0.000000
     6  C    5.486222   4.477133   2.964288   2.567373   1.398557
     7  N    6.781642   5.814920   4.299772   3.817566   2.424946
     8  C    7.405837   6.575447   5.114108   4.263647   2.749181
     9  C    6.980750   6.307383   4.989033   3.799867   2.413352
    10  C    5.693969   5.063808   3.868707   2.522580   1.399817
    11  H    2.496255   1.089024   2.178370   3.499596   4.745422
    12  H    2.498362   1.090530   2.182338   2.781492   4.205866
    13  H    3.050665   2.142072   1.094982   2.170636   2.856243
    14  H    3.872298   2.119776   1.099021   2.163601   2.820107
    15  H    2.881664   2.778435   2.143909   1.096403   2.141367
    16  H    3.703768   2.738957   2.151124   1.098750   2.135554
    17  H    5.224977   4.085955   2.597217   2.803344   2.161726
    18  H    8.467777   7.637846   6.160233   5.351705   3.837351
    19  H    7.792041   7.219536   5.971643   4.681752   3.406044
    20  H    5.602228   5.167671   4.223110   2.719554   2.157844
                    6          7          8          9         10
     6  C    0.000000
     7  N    1.339968   0.000000
     8  C    2.286188   1.335671   0.000000
     9  C    2.716385   2.402299   1.395004   0.000000
    10  C    2.380806   2.790275   2.392696   1.390197   0.000000
    11  H    5.059355   6.366463   7.268363   7.153808   5.981605
    12  H    4.950535   6.265239   6.891707   6.470886   5.171924
    13  H    2.882513   4.147199   5.103543   5.175848   4.204488
    14  H    2.908443   4.151512   5.059356   5.094385   4.118814
    15  H    3.239660   4.409952   4.735706   4.134726   2.835040
    16  H    3.307256   4.461425   4.735031   4.074109   2.744251
    17  H    1.087170   2.052304   3.247291   3.802626   3.379730
    18  H    3.257580   2.062140   1.088615   2.162732   3.388355
    19  H    3.801472   3.373827   2.158881   1.085692   2.161206
    20  H    3.376769   3.877937   3.387070   2.155725   1.087666
                   11         12         13         14         15
    11  H    0.000000
    12  H    1.782203   0.000000
    13  H    2.500190   3.069426   0.000000
    14  H    2.451579   2.534574   1.764303   0.000000
    15  H    3.787428   3.084047   2.499146   3.057668   0.000000
    16  H    3.738350   2.521839   3.066483   2.517301   1.749331
    17  H    4.461378   4.708959   2.292909   2.409258   3.509849
    18  H    8.296445   7.963664   6.095320   6.051223   5.805049
    19  H    8.114294   7.301865   6.201660   6.101790   4.911660
    20  H    6.178995   5.110829   4.701770   4.593199   2.797307
                   16         17         18         19         20
    16  H    0.000000
    17  H    3.625628   0.000000
    18  H    5.806092   4.109439   0.000000
    19  H    4.822614   4.887109   2.499766   0.000000
    20  H    2.634201   4.296914   4.301653   2.501896   0.000000
 Stoichiometry    C8H10BrN
 Framework group  C1[X(C8H10BrN)]
 Deg. of freedom    54
 Full point group                 C1      NOp   1
 Largest Abelian subgroup         C1      NOp   1
 Largest concise Abelian subgroup C1      NOp   1
                         Standard orientation:                         
 ---------------------------------------------------------------------
 Center     Atomic      Atomic             Coordinates (Angstroms)
 Number     Number       Type             X           Y           Z
 ---------------------------------------------------------------------
      1         35           0       -3.046499   -0.312810   -0.351805
      2          6           0       -2.050268    0.874868    0.883232
      3          6           0       -0.597771    1.038452    0.467255
      4          6           0        0.205181   -0.259918    0.550373
      5          6           0        1.679251   -0.145631    0.222069
      6          6           0        2.274198    1.021937   -0.266587
      7          7           0        3.573187    1.143878   -0.571993
      8          6           0        4.349247    0.071119   -0.396102
      9          6           0        3.870386   -1.147770    0.084560
     10          6           0        2.519526   -1.251589    0.396084
     11          1           0       -2.592236    1.819267    0.864411
     12          1           0       -2.151898    0.412028    1.865426
     13          1           0       -0.562797    1.447696   -0.547772
     14          1           0       -0.155682    1.791979    1.134040
     15          1           0       -0.256506   -0.995284   -0.119090
     16          1           0        0.103388   -0.675008    1.562593
     17          1           0        1.678045    1.917418   -0.423599
     18          1           0        5.400952    0.192220   -0.649743
     19          1           0        4.541681   -1.991577    0.211369
     20          1           0        2.111702   -2.186330    0.774179
 ---------------------------------------------------------------------
 Rotational constants (GHZ):           3.0963021           0.3056683           0.2924943
 Standard basis: 6-31G(d,p) (6D, 7F)
 There are   215 symmetry adapted cartesian basis functions of A   symmetry.
 There are   215 symmetry adapted basis functions of A   symmetry.
   215 basis functions,   405 primitive gaussians,   215 cartesian basis functions
    50 alpha electrons       50 beta electrons
       nuclear repulsion energy       691.8529266871 Hartrees.
 NAtoms=   20 NActive=   20 NUniq=   20 SFac= 1.00D+00 NAtFMM=   60 NAOKFM=F Big=F
 Integral buffers will be    131072 words long.
 Raffenetti 2 integral format.
 Two-electron integral symmetry is turned on.
 Nuclear repulsion after empirical dispersion term =      691.8153161552 Hartrees.
 One-electron integrals computed using PRISM.
 NBasis=   215 RedAO= T EigKep=  7.38D-04  NBF=   215
 NBsUse=   215 1.00D-06 EigRej= -1.00D+00 NBFU=   215
 Initial guess from the checkpoint file:  "pyrd10_conf-9.chk"
 B after Tr=    -0.000000    0.000000    0.000000
         Rot=    0.999998   -0.001941   -0.000558    0.000142 Ang=  -0.23 deg.
 ExpMin= 1.43D-01 ExpMax= 5.74D+05 ExpMxC= 5.74D+03 IAcc=3 IRadAn=         5 AccDes= 0.00D+00
 Harris functional with IExCor=  402 and IRadAn=       5 diagonalized for initial guess.
 HarFok:  IExCor=  402 AccDes= 0.00D+00 IRadAn=         5 IDoV= 1 UseB2=F ITyADJ=14
 ICtDFT=  3500011 ScaDFX=  1.000000  1.000000  1.000000  1.000000
 FoFCou: FMM=F IPFlag=           0 FMFlag=      100000 FMFlg1=           0
         NFxFlg=           0 DoJE=T BraDBF=F KetDBF=T FulRan=T
         wScrn=  0.000000 ICntrl=       500 IOpCl=  0 I1Cent=   200000004 NGrid=           0
         NMat0=    1 NMatS0=      1 NMatT0=    0 NMatD0=    1 NMtDS0=    0 NMtDT0=    0
 Petite list used in FoFCou.
 Requested convergence on RMS density matrix=1.00D-08 within 128 cycles.
 Requested convergence on MAX density matrix=1.00D-06.
 Requested convergence on             energy=1.00D-06.
 No special actions if energy rises.
 Integral accuracy reduced to 1.0D-05 until final iterations.
 Initial convergence to 1.0D-05 achieved.  Increase integral accuracy.
 SCF Done:  E(RB3LYP) =  -2937.38562388     A.U. after   10 cycles
            NFock= 10  Conv=0.89D-08     -V/T= 2.0066
 Calling FoFJK, ICntrl=      2127 FMM=F ISym2X=0 I1Cent= 0 IOpClX= 0 NMat=1 NMatS=1 NMatT=0.
 ***** Axes restored to original set *****
 -------------------------------------------------------------------
 Center     Atomic                   Forces (Hartrees/Bohr)
 Number     Number              X              Y              Z
 -------------------------------------------------------------------
      1       35          -0.000238670   -0.000392023   -0.000090114
      2        6          -0.000818361    0.001074034    0.000145795
      3        6           0.000506069   -0.000054342   -0.000131074
      4        6          -0.000527992   -0.000084703    0.000352797
      5        6           0.000879591   -0.000099635   -0.000625277
      6        6           0.000545537    0.000738993    0.000967826
      7        7          -0.000006391   -0.000039522   -0.000171726
      8        6          -0.000740582    0.000271422    0.001192926
      9        6           0.000140285   -0.000487111   -0.001158501
     10        6          -0.000559147   -0.000416235   -0.000390378
     11        1           0.000037031   -0.000242936   -0.000023394
     12        1           0.000207433   -0.000163684   -0.000012201
     13        1          -0.000232465    0.000192033    0.000036688
     14        1           0.000242888   -0.000029769    0.000171099
     15        1           0.000114945   -0.000175107   -0.000162253
     16        1           0.000069830   -0.000121191    0.000048364
     17        1          -0.000005977   -0.000122808   -0.000199263
     18        1           0.000178527   -0.000120272   -0.000332986
     19        1           0.000217300    0.000176842    0.000160890
     20        1          -0.000009851    0.000096014    0.000220782
 -------------------------------------------------------------------
 Cartesian Forces:  Max     0.001192926 RMS     0.000424215

 GradGradGradGradGradGradGradGradGradGradGradGradGradGradGradGradGradGrad
 Berny optimization.
 Using GEDIIS/GDIIS optimizer.
 FormGI is forming the generalized inverse of G from B-inverse, IUseBI=4.
 Internal  Forces:  Max     0.001008977 RMS     0.000267362
 Search for a local minimum.
 Step number   3 out of a maximum of  108
 All quantities printed in internal units (Hartrees-Bohrs-Radians)
 Mixed Optimization -- En-DIIS/RFO-DIIS
 Swapping is turned off.
 Update second derivatives using D2CorX and points    1    2    3
 DE= -1.74D-04 DEPred=-1.85D-04 R= 9.39D-01
 TightC=F SS=  1.41D+00  RLast= 7.18D-02 DXNew= 8.3967D-01 2.1527D-01
[...]
     16  H    Isotropic =    29.4784   Anisotropy =     7.5879
   XX=    29.7969   YX=     0.0352   ZX=     1.3668
   XY=     2.2304   YY=    29.6824   ZY=     4.2971
   XZ=     0.5763   YZ=     5.1723   ZZ=    28.9559
   Eigenvalues:    24.5699    29.3284    34.5370
     17  H    Isotropic =    22.3976   Anisotropy =    10.7208
   XX=    27.4098   YX=     4.1685   ZX=     0.5606
   XY=     4.4245   YY=    20.6812   ZY=     0.1129
   XZ=     0.5575   YZ=     0.6279   ZZ=    19.1016
   Eigenvalues:    18.5727    19.0752    29.5448
     18  H    Isotropic =    22.4517   Anisotropy =     7.0559
   XX=    22.1543   YX=     3.0279   ZX=     0.4417
   XY=     2.2558   YY=    25.5279   ZY=     1.1415
   XZ=     0.4470   YZ=     1.0183   ZZ=    19.6729
   Eigenvalues:    19.4796    20.7199    27.1556
     19  H    Isotropic =    23.9525   Anisotropy =     7.1188
   XX=    28.5749   YX=     0.1727   ZX=    -0.7441
   XY=     1.1649   YY=    21.6149   ZY=    -0.1943
   XZ=    -0.5261   YZ=    -0.1400   ZZ=    21.6677
   Eigenvalues:    21.4701    21.6891    28.6984
     20  H    Isotropic =    23.5586   Anisotropy =    10.6718
   XX=    25.6075   YX=    -5.7028   ZX=    -1.3452
   XY=    -4.9315   YY=    24.5329   ZY=     1.0179
   XZ=    -1.3992   YZ=     0.7747   ZZ=    20.5353
   Eigenvalues:    19.6278    20.3747    30.6731
 End of Minotr F.D. properties file   721 does not exist.
 End of Minotr F.D. properties file   722 does not exist.
 End of Minotr F.D. properties file   788 does not exist.

 **********************************************************************

            Population analysis using the SCF Density.

 **********************************************************************

 Orbital symmetries:
       Occupied  (A) (A) (A) (A) (A) (A) (A) (A) (A) (A) (A) (A)
                 (A) (A) (A) (A) (A) (A) (A) (A) (A) (A) (A) (A)
                 (A) (A) (A) (A) (A) (A) (A) (A) (A) (A) (A) (A)
                 (A) (A) (A) (A) (A) (A) (A) (A) (A) (A) (A) (A)
                 (A) (A)
       Virtual   (A) (A) (A) (A) (A) (A) (A) (A) (A) (A) (A) (A)
                 (A) (A) (A) (A) (A) (A) (A) (A) (A) (A) (A) (A)
                 (A) (A) (A) (A) (A) (A) (A) (A) (A) (A) (A) (A)
                 (A) (A) (A) (A) (A) (A) (A) (A) (A) (A) (A) (A)
                 (A) (A) (A) (A) (A) (A) (A) (A) (A) (A) (A) (A)
                 (A) (A) (A) (A) (A) (A) (A) (A) (A) (A) (A) (A)
                 (A) (A) (A) (A) (A) (A) (A) (A) (A) (A) (A) (A)
                 (A) (A) (A) (A) (A) (A) (A) (A) (A) (A) (A) (A)
                 (A) (A) (A) (A) (A) (A) (A) (A) (A) (A) (A) (A)
                 (A) (A) (A) (A) (A) (A) (A) (A) (A) (A) (A) (A)
                 (A) (A) (A) (A) (A) (A) (A) (A) (A) (A) (A) (A)
                 (A) (A) (A) (A) (A) (A) (A) (A) (A) (A) (A) (A)
                 (A) (A) (A) (A) (A) (A) (A) (A) (A) (A) (A) (A)
                 (A) (A) (A) (A) (A) (A) (A) (A) (A) (A) (A) (A)
                 (A) (A) (A) (A) (A) (A) (A) (A) (A) (A) (A) (A)
                 (A) (A) (A) (A) (A) (A) (A) (A) (A) (A) (A) (A)
                 (A) (A) (A) (A) (A) (A) (A) (A) (A) (A) (A) (A)
                 (A) (A) (A) (A) (A) (A) (A) (A) (A) (A) (A) (A)
                 (A) (A) (A) (A) (A) (A) (A) (A) (A) (A) (A) (A)
                 (A) (A) (A) (A) (A) (A) (A) (A) (A) (A) (A) (A)
                 (A) (A) (A) (A) (A) (A) (A) (A) (A) (A) (A) (A)
                 (A) (A) (A) (A) (A) (A) (A) (A) (A) (A) (A) (A)
                 (A) (A) (A) (A) (A) (A) (A) (A) (A) (A) (A) (A)
                 (A) (A) (A) (A) (A) (A) (A) (A) (A) (A) (A) (A)
                 (A) (A) (A) (A) (A) (A) (A) (A) (A) (A) (A) (A)
                 (A) (A) (A) (A) (A) (A) (A) (A) (A) (A) (A) (A)
                 (A) (A) (A) (A) (A) (A) (A) (A) (A) (A) (A) (A)
                 (A) (A) (A) (A) (A) (A) (A) (A) (A) (A) (A) (A)
                 (A)
 The electronic state is 1-A.
 Alpha  occ. eigenvalues -- -485.36482 -63.34984 -57.16924 -57.16691 -57.16687
 Alpha  occ. eigenvalues --  -14.75118 -10.60483 -10.57747 -10.57715 -10.56306
 Alpha  occ. eigenvalues --  -10.56192 -10.56077 -10.55443 -10.55369  -9.01619
 Alpha  occ. eigenvalues --   -6.84008  -6.83157  -6.83142  -2.87374  -2.87072
 Alpha  occ. eigenvalues --   -2.87060  -2.86265  -2.86264  -1.05354  -0.94308
 Alpha  occ. eigenvalues --   -0.91077  -0.87805  -0.83768  -0.77715  -0.71979
 Alpha  occ. eigenvalues --   -0.70530  -0.67670  -0.60195  -0.57261  -0.55080
 Alpha  occ. eigenvalues --   -0.53912  -0.52098  -0.50247  -0.47760  -0.47348
 Alpha  occ. eigenvalues --   -0.46022  -0.45368  -0.43124  -0.41611  -0.40487
 Alpha  occ. eigenvalues --   -0.34799  -0.34170  -0.33982  -0.32629  -0.31210
 Alpha virt. eigenvalues --   -0.00210   0.01191   0.02591   0.06360   0.07963
 Alpha virt. eigenvalues --    0.08848   0.10235   0.10386   0.12102   0.13053
 Alpha virt. eigenvalues --    0.13383   0.14103   0.14764   0.15755   0.16532
 Alpha virt. eigenvalues --    0.18810   0.20362   0.21051   0.22126   0.22796
 Alpha virt. eigenvalues --    0.23342   0.23490   0.24154   0.25214   0.26173
 Alpha virt. eigenvalues --    0.27800   0.28315   0.28626   0.29328   0.30560
 Alpha virt. eigenvalues --    0.30799   0.31608   0.32991   0.34394   0.34590
 Alpha virt. eigenvalues --    0.35422   0.35661   0.36879   0.37576   0.38835
 Alpha virt. eigenvalues --    0.39587   0.40040   0.40429   0.41470   0.42911
 Alpha virt. eigenvalues --    0.43831   0.44471   0.44665   0.45830   0.46430
 Alpha virt. eigenvalues --    0.46536   0.47397   0.47554   0.49067   0.49630
 Alpha virt. eigenvalues --    0.50175   0.50913   0.52230   0.52861   0.55109
 Alpha virt. eigenvalues --    0.55903   0.56758   0.58687   0.59493   0.61043
 Alpha virt. eigenvalues --    0.61818   0.62629   0.64482   0.66392   0.67616
 Alpha virt. eigenvalues --    0.68439   0.69335   0.69881   0.70815   0.72625
 Alpha virt. eigenvalues --    0.74073   0.75396   0.77935   0.78592   0.81432
 Alpha virt. eigenvalues --    0.81728   0.84163   0.84679   0.85630   0.87801
 Alpha virt. eigenvalues --    0.88296   0.90062   0.91922   0.93816   0.98014
 Alpha virt. eigenvalues --    0.99227   1.01595   1.02173   1.02871   1.05753
 Alpha virt. eigenvalues --    1.07674   1.08466   1.09080   1.11868   1.13190
 Alpha virt. eigenvalues --    1.15223   1.16294   1.18458   1.20760   1.22895
 Alpha virt. eigenvalues --    1.24541   1.25918   1.28165   1.28606   1.30086
 Alpha virt. eigenvalues --    1.32021   1.32687   1.34747   1.37734   1.39475
 Alpha virt. eigenvalues --    1.40071   1.40315   1.42025   1.42973   1.43011
 Alpha virt. eigenvalues --    1.43966   1.46131   1.47203   1.48451   1.51179
 Alpha virt. eigenvalues --    1.51940   1.54120   1.55768   1.57430   1.57801
 Alpha virt. eigenvalues --    1.58349   1.59564   1.60197   1.61095   1.61729
 Alpha virt. eigenvalues --    1.62597   1.63420   1.63860   1.64397   1.66255
 Alpha virt. eigenvalues --    1.66832   1.66997   1.68193   1.69281   1.69866
 Alpha virt. eigenvalues --    1.70516   1.73259   1.74262   1.74859   1.77147
 Alpha virt. eigenvalues --    1.77696   1.78884   1.80248   1.80822   1.83618
 Alpha virt. eigenvalues --    1.85875   1.87511   1.91991   1.92662   1.94096
 Alpha virt. eigenvalues --    1.95730   1.96917   1.97698   1.98205   2.02461
 Alpha virt. eigenvalues --    2.03213   2.05788   2.08661   2.12183   2.12801
 Alpha virt. eigenvalues --    2.15150   2.17584   2.18026   2.21913   2.24911
 Alpha virt. eigenvalues --    2.27195   2.27736   2.29541   2.31152   2.32201
 Alpha virt. eigenvalues --    2.34107   2.36058   2.39177   2.40975   2.43694
 Alpha virt. eigenvalues --    2.44648   2.47131   2.47571   2.49391   2.52885
 Alpha virt. eigenvalues --    2.53743   2.54521   2.57669   2.59229   2.59941
 Alpha virt. eigenvalues --    2.60390   2.62513   2.63328   2.64053   2.65152
 Alpha virt. eigenvalues --    2.65636   2.67534   2.69335   2.70927   2.71704
 Alpha virt. eigenvalues --    2.72883   2.74563   2.75919   2.76466   2.78897
 Alpha virt. eigenvalues --    2.81818   2.82344   2.83001   2.85085   2.86406
 Alpha virt. eigenvalues --    2.88322   2.90808   2.91958   2.95220   2.95974
 Alpha virt. eigenvalues --    2.98499   3.00103   3.02605   3.04397   3.06675
 Alpha virt. eigenvalues --    3.08703   3.09694   3.09767   3.11476   3.13192
 Alpha virt. eigenvalues --    3.13720   3.16503   3.17186   3.17379   3.19196
 Alpha virt. eigenvalues --    3.20286   3.22412   3.22715   3.24343   3.24606
 Alpha virt. eigenvalues --    3.27456   3.27886   3.28427   3.29800   3.31930
 Alpha virt. eigenvalues --    3.32803   3.34061   3.36631   3.38644   3.40071
 Alpha virt. eigenvalues --    3.40894   3.41777   3.42342   3.44097   3.44557
 Alpha virt. eigenvalues --    3.46371   3.47169   3.49269   3.51211   3.51539
 Alpha virt. eigenvalues --    3.53405   3.56301   3.60791   3.61021   3.64180
 Alpha virt. eigenvalues --    3.66862   3.71192   3.74656   3.76830   3.78828
 Alpha virt. eigenvalues --    3.80927   3.82875   3.85305   3.86950   3.88980
 Alpha virt. eigenvalues --    3.90295   3.95701   3.97403   4.01292   4.03056
 Alpha virt. eigenvalues --    4.04800   4.05774   4.09848   4.10185   4.11350
 Alpha virt. eigenvalues --    4.11845   4.13857   4.14921   4.16851   4.22737
 Alpha virt. eigenvalues --    4.24793   4.27800   4.28348   4.29368   4.34562
 Alpha virt. eigenvalues --    4.35594   4.37429   4.40106   4.45039   4.47785
 Alpha virt. eigenvalues --    4.49427   4.51609   4.53263   4.55349   4.57072
 Alpha virt. eigenvalues --    4.59253   4.63032   4.72894   4.74769   4.78209
 Alpha virt. eigenvalues --    4.79342   4.83582   4.89584   4.92171   4.92766
 Alpha virt. eigenvalues --    5.02563   5.06115   5.16274   5.17289   5.19960
 Alpha virt. eigenvalues --    5.26684   5.34806   5.41357   5.52782   5.57877
 Alpha virt. eigenvalues --    5.72560   5.95113   7.69013  22.32832  22.43599
 Alpha virt. eigenvalues --   22.52234  22.59979  22.73376  22.85489  22.88765
 Alpha virt. eigenvalues --   23.20748  32.51392
          Condensed to atoms (all electrons):
               1          2          3          4          5          6
     1  Br  35.029759   0.247826  -0.038606  -0.007159   0.000345  -0.000394
     2  C    0.247826   4.941262   0.261180  -0.032496   0.009592   0.000621
     3  C   -0.038606   0.261180   5.301345   0.155492  -0.019867  -0.013061
     4  C   -0.007159  -0.032496   0.155492   5.442629   0.207962  -0.030573
     5  C    0.000345   0.009592  -0.019867   0.207962   5.102790   0.459737
     6  C   -0.000394   0.000621  -0.013061  -0.030573   0.459737   4.893926
     7  N    0.000001   0.000005   0.000327   0.008265  -0.045261   0.513793
     8  C    0.000009  -0.000014  -0.000230  -0.000698  -0.041715  -0.115324
     9  C   -0.000088   0.000021   0.001858   0.008383  -0.046385  -0.015636
    10  C    0.001266  -0.000035  -0.012681  -0.085663   0.452103  -0.059638
    11  H   -0.041164   0.437516  -0.053216   0.010267  -0.000612  -0.000090
    12  H   -0.041542   0.421273  -0.034832  -0.014533   0.000509   0.000252
    13  H   -0.003390  -0.034821   0.432452  -0.057879   0.004132   0.003922
    14  H    0.007415  -0.039050   0.405573  -0.038824   0.003125  -0.003855
    15  H    0.006677  -0.003941  -0.057612   0.442756  -0.042040   0.001308
    16  H    0.000045   0.001120  -0.048701   0.421676  -0.041731  -0.000145
    17  H    0.000016   0.000021  -0.001228   0.004738  -0.090708   0.443048
    18  H    0.000000  -0.000000   0.000012   0.000058  -0.000726   0.006079
    19  H   -0.000002  -0.000001   0.000050   0.000027   0.012473  -0.001776
    20  H    0.001370  -0.000092  -0.002670   0.004148  -0.049026   0.003747
               7          8          9         10         11         12
     1  Br   0.000001   0.000009  -0.000088   0.001266  -0.041164  -0.041542
     2  C    0.000005  -0.000014   0.000021  -0.000035   0.437516   0.421273
     3  C    0.000327  -0.000230   0.001858  -0.012681  -0.053216  -0.034832
     4  C    0.008265  -0.000698   0.008383  -0.085663   0.010267  -0.014533
     5  C   -0.045261  -0.041715  -0.046385   0.452103  -0.000612   0.000509
     6  C    0.513793  -0.115324  -0.015636  -0.059638  -0.000090   0.000252
     7  N    6.420333   0.495982  -0.043202  -0.068134  -0.000000   0.000000
     8  C    0.495982   4.830600   0.489984  -0.017812   0.000002  -0.000004
     9  C   -0.043202   0.489984   4.984813   0.460920  -0.000007   0.000010
    10  C   -0.068134  -0.017812   0.460920   5.101039   0.000078  -0.000202
    11  H   -0.000000   0.000002  -0.000007   0.000078   0.506069  -0.025584
    12  H    0.000000  -0.000004   0.000010  -0.000202  -0.025584   0.516811
    13  H   -0.000078  -0.000145   0.000387  -0.005502  -0.004217   0.005663
    14  H   -0.000165   0.000147  -0.000557   0.005549  -0.004581  -0.000387
    15  H   -0.000396   0.000267  -0.001181  -0.001506  -0.000230   0.002113
    16  H    0.000160  -0.000036  -0.000273   0.005215   0.000166   0.001108
    17  H   -0.032050   0.009166  -0.002482   0.006520   0.000001   0.000015
    18  H   -0.033869   0.432937  -0.066635   0.001980  -0.000000  -0.000000
    19  H    0.007207  -0.030741   0.415136  -0.057462  -0.000000   0.000000
    20  H   -0.002110   0.003360  -0.034094   0.423108   0.000012   0.000019
              13         14         15         16         17         18
     1  Br  -0.003390   0.007415   0.006677   0.000045   0.000016   0.000000
     2  C   -0.034821  -0.039050  -0.003941   0.001120   0.000021  -0.000000
     3  C    0.432452   0.405573  -0.057612  -0.048701  -0.001228   0.000012
     4  C   -0.057879  -0.038824   0.442756   0.421676   0.004738   0.000058
     5  C    0.004132   0.003125  -0.042040  -0.041731  -0.090708  -0.000726
     6  C    0.003922  -0.003855   0.001308  -0.000145   0.443048   0.006079
     7  N   -0.000078  -0.000165  -0.000396   0.000160  -0.032050  -0.033869
     8  C   -0.000145   0.000147   0.000267  -0.000036   0.009166   0.432937
     9  C    0.000387  -0.000557  -0.001181  -0.000273  -0.002482  -0.066635
    10  C   -0.005502   0.005549  -0.001506   0.005215   0.006520   0.001980
    11  H   -0.004217  -0.004581  -0.000230   0.000166   0.000001  -0.000000
    12  H    0.005663  -0.000387   0.002113   0.001108   0.000015  -0.000000
    13  H    0.489989  -0.011457   0.003673   0.003821   0.000020  -0.000002
    14  H   -0.011457   0.514379   0.003729   0.000231   0.000587  -0.000001
    15  H    0.003673   0.003729   0.463558  -0.008697   0.000155  -0.000003
    16  H    0.003821   0.000231  -0.008697   0.501329   0.001267  -0.000002
    17  H    0.000020   0.000587   0.000155   0.001267   0.518106  -0.000026
    18  H   -0.000002  -0.000001  -0.000003  -0.000002  -0.000026   0.516555
    19  H    0.000020  -0.000006  -0.000063   0.000013   0.000097  -0.000318
    20  H    0.000852   0.000263   0.000621   0.000328  -0.000220  -0.000255
              19         20
     1  Br  -0.000002   0.001370
     2  C   -0.000001  -0.000092
     3  C    0.000050  -0.002670
     4  C    0.000027   0.004148
     5  C    0.012473  -0.049026
     6  C   -0.001776   0.003747
     7  N    0.007207  -0.002110
     8  C   -0.030741   0.003360
     9  C    0.415136  -0.034094
    10  C   -0.057462   0.423108
    11  H   -0.000000   0.000012
    12  H    0.000000   0.000019
    13  H    0.000020   0.000852
    14  H   -0.000006   0.000263
    15  H   -0.000063   0.000621
    16  H    0.000013   0.000328
    17  H    0.000097  -0.000220
    18  H   -0.000318  -0.000255
    19  H    0.518127  -0.005606
    20  H   -0.005606   0.491674
 Mulliken charges:
               1
     1  Br  -0.162386
     2  C   -0.209990
     3  C   -0.275584
     4  C   -0.438575
     5  C    0.125302
     6  C   -0.085939
     7  N   -0.220808
     8  C   -0.055737
     9  C   -0.150971
    10  C   -0.149142
    11  H    0.175589
    12  H    0.169309
    13  H    0.172558
    14  H    0.157885
    15  H    0.190810
    16  H    0.163106
    17  H    0.142957
    18  H    0.144216
    19  H    0.142826
    20  H    0.164574
 Sum of Mulliken charges =   0.00000
 Mulliken charges with hydrogens summed into heavy atoms:
               1
     1  Br  -0.162386
     2  C    0.134908
     3  C    0.054859
     4  C   -0.084659
     5  C    0.125302
     6  C    0.057018
     7  N   -0.220808
     8  C    0.088480
     9  C   -0.008146
    10  C    0.015432
 Electronic spatial extent (au):  <R**2>=           3298.7916
 Charge=             -0.0000 electrons
 Dipole moment (field-independent basis, Debye):
    X=             -0.5906    Y=             -0.0172    Z=             -0.9741  Tot=              1.1393
 Quadrupole moment (field-independent basis, Debye-Ang):
   XX=            -85.8596   YY=            -68.0635   ZZ=            -73.9659
   XY=            -10.9145   XZ=             -0.6210   YZ=              0.2022
 Traceless Quadrupole moment (field-independent basis, Debye-Ang):
   XX=             -9.8966   YY=              7.8995   ZZ=              1.9971
   XY=            -10.9145   XZ=             -0.6210   YZ=              0.2022
 Octapole moment (field-independent basis, Debye-Ang**2):
  XXX=           -102.7695  YYY=            -13.2341  ZZZ=              1.8430  XYY=            -36.9410
  XXY=            -38.1853  XXZ=            -12.8273  XZZ=            -40.4756  YZZ=             -0.5344
  YYZ=              0.5414  XYZ=              6.9698
 Hexadecapole moment (field-independent basis, Debye-Ang**3):
 XXXX=          -3522.4346 YYYY=           -416.7959 ZZZZ=           -180.8642 XXXY=           -153.5285
 XXXZ=            -70.1064 YYYX=             11.7700 YYYZ=              6.5956 ZZZX=             -5.6951
 ZZZY=             -5.5840 XXYY=           -635.9704 XXZZ=           -614.7564 YYZZ=           -102.3730
 XXYZ=             -1.0199 YYXZ=            -11.5355 ZZXY=             12.2619
 N-N= 6.946061443990D+02 E-N=-8.390151011414D+03  KE= 2.934433872453D+03
 Unable to Open any file for archive entry.
 1\1\GINC-COMPUTE-0-35\SP\RM062X\def2TZVP\C8H10Br1N1\ZTAN64\14-Aug-2024
 \0\\# M062X/def2tzvp int=(grid=ultrafine) nmr=giao guess=read geom=che
 ck\\pyrd10.xyz\\0,1\Br,0,4.8608639141,-2.0724297081,-0.9166612615\C,0,
 4.3962808602,-0.9865321884,0.6783009502\C,0,3.0540991874,-1.3948569736
 ,1.25852442\C,0,1.8656795644,-1.1314652064,0.3194436834\C,0,0.55953291
 11,-1.5798092582,0.9219944963\C,0,-0.2748067334,-0.6846041325,1.601590
 7116\N,0,-1.4258059112,-1.0197690215,2.1942660349\C,0,-1.7969463814,-2
 .3037920726,2.126964346\C,0,-1.0494235841,-3.2850795372,1.4749016342\C
 ,0,0.1458273465,-2.9142269849,0.8653744103\H,0,5.2167232306,-1.1476571
 411,1.3759049477\H,0,4.4058516635,0.0458564798,0.3279282735\H,0,3.0819
 179816,-2.454922611,1.5322041281\H,0,2.9116826918,-0.831969041,2.19130
 39932\H,0,2.0449722477,-1.6548916428,-0.6251431817\H,0,1.8211006063,-0
 .0607491387,0.0869116568\H,0,0.005693828,0.3668003723,1.6633976595\H,0
 ,-2.7359056246,-2.558948722,2.6139439807\H,0,-1.3998356394,-4.31168252
 71,1.4443941545\H,0,0.7545978411,-3.649270945,0.3448549622\\Version=ES
 64L-G16RevC.01\State=1-A\HF=-2939.7892158\RMSD=3.814e-09\Dipole=0.3484
 583,-0.1616252,0.2309877\Quadrupole=-4.1431443,5.4634185,-1.3202742,7.
 4319713,5.4929563,-1.3101603\PG=C01 [X(C8H10Br1N1)]\\@
 The archive entry for this job was punched.


 IT IS IMPOSSIBLE TO MEDITATE ON TIME AND THE MYSTERY 
 OF NATURE WITHOUT AN OVERWHELMING EMOTION AT THE
 LIMITATIONS OF HUMAN INTELLIGENCE.

                                         -- ALFRED NORTH WHITEHEAD
 Job cpu time:       0 days  0 hours 21 minutes 38.0 seconds.
 Elapsed time:       0 days  0 hours  1 minutes 28.1 seconds.
 File lengths (MBytes):  RWF=     88 Int=      0 D2E=      0 Chk=     15 Scr=      1
 Normal termination of Gaussian 16 at Wed Aug 14 19:01:59 2024.
 
 
-----Kestrel cluster job statistics-----
Time info:

real	10m44.267s
user	166m43.975s
sys	0m30.769s
 
Disk space usage:
15M	/scratch/362956.kestrel.chem.wisc.edu
