 Entering Gaussian System, Link 0=/share/apps/gaussian/g16/g16
 Initial command:
 /share/apps/gaussian/g16/l1.exe "/scratch/362976.kestrel.chem.wisc.edu/Gau-9312.inp" -scrdir="/scratch/362976.kestrel.chem.wisc.edu/"
 Entering Link 1 = /share/apps/gaussian/g16/l1.exe PID=      9313.
  
 Copyright (c) 1988-2019, Gaussian, Inc.  All Rights Reserved.
  
 This is part of the Gaussian(R) 16 program.  It is based on
 the Gaussian(R) 09 system (copyright 2009, Gaussian, Inc.),
 the Gaussian(R) 03 system (copyright 2003, Gaussian, Inc.),
 the Gaussian(R) 98 system (copyright 1998, Gaussian, Inc.),
 the Gaussian(R) 94 system (copyright 1995, Gaussian, Inc.),
 the Gaussian 92(TM) system (copyright 1992, Gaussian, Inc.),
 the Gaussian 90(TM) system (copyright 1990, Gaussian, Inc.),
 the Gaussian 88(TM) system (copyright 1988, Gaussian, Inc.),
 the Gaussian 86(TM) system (copyright 1986, Carnegie Mellon
 University), and the Gaussian 82(TM) system (copyright 1983,
 Carnegie Mellon University). Gaussian is a federally registered
 trademark of Gaussian, Inc.
  
 This software contains proprietary and confidential information,
 including trade secrets, belonging to Gaussian, Inc.
  
 This software is provided under written license and may be
 used, copied, transmitted, or stored only in accord with that
 written license.
  
 The following legend is applicable only to US Government
 contracts under FAR:
  
                    RESTRICTED RIGHTS LEGEND
  
 Use, reproduction and disclosure by the US Government is
 subject to restrictions as set forth in subparagraphs (a)
 and (c) of the Commercial Computer Software - Restricted
 Rights clause in FAR 52.227-19.
  
 Gaussian, Inc.
 340 Quinnipiac St., Bldg. 40, Wallingford CT 06492
  
  
 ---------------------------------------------------------------
 Warning -- This program may not be used in any manner that
 competes with the business of Gaussian, Inc. or will provide
 assistance to any competitor of Gaussian, Inc.  The licensee
 of this program is prohibited from giving any competitor of
 Gaussian, Inc. access to this program.  By using this program,
 the user acknowledges that Gaussian, Inc. is engaged in the
 business of creating and licensing software in the field of
 computational chemistry and represents and warrants to the
 licensee that it is not a competitor of Gaussian, Inc. and that
 it will not use this program in any manner prohibited above.
 ---------------------------------------------------------------
  

 Cite this work as:
 Gaussian 16, Revision C.01,
 M. J. Frisch, G. W. Trucks, H. B. Schlegel, G. E. Scuseria, 
 M. A. Robb, J. R. Cheeseman, G. Scalmani, V. Barone, 
 G. A. Petersson, H. Nakatsuji, X. Li, M. Caricato, A. V. Marenich, 
 J. Bloino, B. G. Janesko, R. Gomperts, B. Mennucci, H. P. Hratchian, 
 J. V. Ortiz, A. F. Izmaylov, J. L. Sonnenberg, D. Williams-Young, 
 F. Ding, F. Lipparini, F. Egidi, J. Goings, B. Peng, A. Petrone, 
 T. Henderson, D. Ranasinghe, V. G. Zakrzewski, J. Gao, N. Rega, 
 G. Zheng, W. Liang, M. Hada, M. Ehara, K. Toyota, R. Fukuda, 
 J. Hasegawa, M. Ishida, T. Nakajima, Y. Honda, O. Kitao, H. Nakai, 
 T. Vreven, K. Throssell, J. A. Montgomery, Jr., J. E. Peralta, 
 F. Ogliaro, M. J. Bearpark, J. J. Heyd, E. N. Brothers, K. N. Kudin, 
 V. N. Staroverov, T. A. Keith, R. Kobayashi, J. Normand, 
 K. Raghavachari, A. P. Rendell, J. C. Burant, S. S. Iyengar, 
 J. Tomasi, M. Cossi, J. M. Millam, M. Klene, C. Adamo, R. Cammi, 
 J. W. Ochterski, R. L. Martin, K. Morokuma, O. Farkas, 
 J. B. Foresman, and D. J. Fox, Gaussian, Inc., Wallingford CT, 2019.
 
 ******************************************
 Gaussian 16:  ES64L-G16RevC.01  3-Jul-2019
                14-Aug-2024 
 ******************************************
 %nprocs=16
 Will use up to   16 processors via shared memory.
 %mem=16GB
 %chk=pyrd7_conf-1.chk
 ----------------------------------------------------------------------
 # B3LYP/6-31G(d,p) symmetry=loose empiricaldispersion=GD3BJ int=(grid=
 ultrafine) opt freq=noraman
 ----------------------------------------------------------------------
 1/18=20,19=15,26=4,38=1/1,3;
 2/9=110,12=2,17=4,18=3,40=1/2;
 3/5=1,6=6,7=101,11=2,25=1,30=1,71=1,74=-5,75=-5,124=41/1,2,3;
 4//1;
 5/5=2,38=5/2;
 6/7=2,8=2,9=2,10=2,28=1/1;
 7//1,2,3,16;
 1/18=20,19=15,26=4/3(2);
 2/9=110/2;
 99//99;
 2/9=110/2;
 3/5=1,6=6,7=101,11=2,25=1,30=1,71=1,74=-5,75=-5,124=41/1,2,3;
 4/5=5,16=3,69=1/1;
 5/5=2,38=5/2;
 7//1,2,3,16;
 1/18=20,19=15,26=4/3(-5);
 2/9=110/2;
 6/7=2,8=2,9=2,10=2,19=2,28=1/1;
 99/9=1/99;
 ---------
 pyrd7.xyz
 ---------
 Symbolic Z-matrix:
 Charge =  0 Multiplicity = 1
 F                    -3.9332    1.8373    2.454 
 C                    -2.7471    2.1936    1.9577 
 F                    -2.9056    3.2946    1.2251 
 C                    -2.1703    1.0893    1.0718 
 C                    -0.7886    0.8784    1.0033 
 C                    -0.2591   -0.1333    0.1943 
 C                     1.2507   -0.3614    0.1203 
 F                     1.59     -1.2892    1.0137 
 F                     1.6113   -0.7849   -1.0923 
 F                     1.9269    0.7564    0.3904 
 C                    -1.1318   -0.9368   -0.5492 
 C                    -2.5183   -0.7467   -0.4998 
 C                    -3.4361   -1.6082   -1.2964 
 C                    -3.1206   -2.0008   -2.6055 
 N                    -3.9222   -2.7843   -3.37 
 C                    -5.0925   -3.2077   -2.8328 
 C                    -5.5006   -2.8681   -1.5411 
 C                    -6.8119   -3.3824   -0.9771 
 C                    -4.6554   -2.0631   -0.7713 
 C                    -3.0213    0.2732    0.3171 
 F                    -1.9352    2.4751    2.9781 
 H                    -0.122     1.5045    1.5825 
 H                    -0.7273   -1.7305   -1.1622 
 H                    -2.2072   -1.6735   -3.0808 
 H                    -5.706    -3.8321   -3.4663 
 H                    -7.0846   -4.3389   -1.425 
 H                    -6.7322   -3.554     0.0971 
 H                    -7.6148   -2.667    -1.1571 
 H                    -4.9428   -1.8032    0.2374 
 H                    -4.0885    0.4433    0.3546 
 

 GradGradGradGradGradGradGradGradGradGradGradGradGradGradGradGradGradGrad
 Berny optimization.
 Initialization pass.
                           ----------------------------
                           !    Initial Parameters    !
                           ! (Angstroms and Degrees)  !
 --------------------------                            --------------------------
 ! Name  Definition              Value          Derivative Info.                !
 --------------------------------------------------------------------------------
 ! R1    R(1,2)                  1.3342         estimate D2E/DX2                !
 ! R2    R(2,3)                  1.3319         estimate D2E/DX2                !
 ! R3    R(2,4)                  1.5287         estimate D2E/DX2                !
 ! R4    R(2,21)                 1.334          estimate D2E/DX2                !
 ! R5    R(4,5)                  1.3994         estimate D2E/DX2                !
 ! R6    R(4,20)                 1.3999         estimate D2E/DX2                !
 ! R7    R(5,6)                  1.3994         estimate D2E/DX2                !
 ! R8    R(5,22)                 1.0825         estimate D2E/DX2                !
 ! R9    R(6,7)                  1.5287         estimate D2E/DX2                !
 ! R10   R(6,11)                 1.4            estimate D2E/DX2                !
 ! R11   R(7,8)                  1.332          estimate D2E/DX2                !
 ! R12   R(7,9)                  1.3341         estimate D2E/DX2                !
 ! R13   R(7,10)                 1.334          estimate D2E/DX2                !
 ! R14   R(11,12)                1.4003         estimate D2E/DX2                !
 ! R15   R(11,23)                1.0814         estimate D2E/DX2                !
 ! R16   R(12,13)                1.4897         estimate D2E/DX2                !
 ! R17   R(12,20)                1.4002         estimate D2E/DX2                !
 ! R18   R(13,14)                1.4026         estimate D2E/DX2                !
 ! R19   R(13,19)                1.4033         estimate D2E/DX2                !
 ! R20   R(14,15)                1.3568         estimate D2E/DX2                !
 ! R21   R(14,24)                1.0804         estimate D2E/DX2                !
 ! R22   R(15,16)                1.3555         estimate D2E/DX2                !
 ! R23   R(16,17)                1.3966         estimate D2E/DX2                !
 ! R24   R(16,25)                1.0805         estimate D2E/DX2                !
 ! R25   R(17,18)                1.5173         estimate D2E/DX2                !
 ! R26   R(17,19)                1.3982         estimate D2E/DX2                !
 ! R27   R(18,26)                1.0908         estimate D2E/DX2                !
 ! R28   R(18,27)                1.0907         estimate D2E/DX2                !
 ! R29   R(18,28)                1.0903         estimate D2E/DX2                !
 ! R30   R(19,29)                1.0806         estimate D2E/DX2                !
 ! R31   R(20,30)                1.0813         estimate D2E/DX2                !
 ! A1    A(1,2,3)              108.6364         estimate D2E/DX2                !
 ! A2    A(1,2,4)              110.9824         estimate D2E/DX2                !
 ! A3    A(1,2,21)             108.2323         estimate D2E/DX2                !
 ! A4    A(3,2,4)              108.8614         estimate D2E/DX2                !
 ! A5    A(3,2,21)             108.5851         estimate D2E/DX2                !
 ! A6    A(4,2,21)             111.4728         estimate D2E/DX2                !
 ! A7    A(2,4,5)              120.6489         estimate D2E/DX2                !
 ! A8    A(2,4,20)             120.2756         estimate D2E/DX2                !
 ! A9    A(5,4,20)             119.0755         estimate D2E/DX2                !
 ! A10   A(4,5,6)              120.7199         estimate D2E/DX2                !
 ! A11   A(4,5,22)             119.6468         estimate D2E/DX2                !
 ! A12   A(6,5,22)             119.6333         estimate D2E/DX2                !
 ! A13   A(5,6,7)              120.6331         estimate D2E/DX2                !
 ! A14   A(5,6,11)             119.0823         estimate D2E/DX2                !
 ! A15   A(7,6,11)             120.2846         estimate D2E/DX2                !
 ! A16   A(6,7,8)              108.8476         estimate D2E/DX2                !
 ! A17   A(6,7,9)              110.9968         estimate D2E/DX2                !
 ! A18   A(6,7,10)             111.4556         estimate D2E/DX2                !
 ! A19   A(8,7,9)              108.6439         estimate D2E/DX2                !
 ! A20   A(8,7,10)             108.5863         estimate D2E/DX2                !
 ! A21   A(9,7,10)             108.2407         estimate D2E/DX2                !
 ! A22   A(6,11,12)            121.3689         estimate D2E/DX2                !
 ! A23   A(6,11,23)            119.2832         estimate D2E/DX2                !
 ! A24   A(12,11,23)           119.3408         estimate D2E/DX2                !
 ! A25   A(11,12,13)           120.8403         estimate D2E/DX2                !
 ! A26   A(11,12,20)           118.3691         estimate D2E/DX2                !
 ! A27   A(13,12,20)           120.7906         estimate D2E/DX2                !
 ! A28   A(12,13,14)           121.4916         estimate D2E/DX2                !
 ! A29   A(12,13,19)           121.5125         estimate D2E/DX2                !
 ! A30   A(14,13,19)           116.9959         estimate D2E/DX2                !
 ! A31   A(13,14,15)           123.6847         estimate D2E/DX2                !
 ! A32   A(13,14,24)           121.0606         estimate D2E/DX2                !
 ! A33   A(15,14,24)           115.2472         estimate D2E/DX2                !
 ! A34   A(14,15,16)           117.849          estimate D2E/DX2                !
 ! A35   A(15,16,17)           122.8801         estimate D2E/DX2                !
 ! A36   A(15,16,25)           115.9977         estimate D2E/DX2                !
 ! A37   A(17,16,25)           121.1221         estimate D2E/DX2                !
 ! A38   A(16,17,18)           120.9264         estimate D2E/DX2                !
 ! A39   A(16,17,19)           118.2022         estimate D2E/DX2                !
 ! A40   A(18,17,19)           120.8591         estimate D2E/DX2                !
 ! A41   A(17,18,26)           111.1404         estimate D2E/DX2                !
 ! A42   A(17,18,27)           110.8708         estimate D2E/DX2                !
 ! A43   A(17,18,28)           110.6491         estimate D2E/DX2                !
 ! A44   A(26,18,27)           106.5409         estimate D2E/DX2                !
 ! A45   A(26,18,28)           108.8722         estimate D2E/DX2                !
 ! A46   A(27,18,28)           108.6396         estimate D2E/DX2                !
 ! A47   A(13,19,17)           120.3867         estimate D2E/DX2                !
 ! A48   A(13,19,29)           120.1601         estimate D2E/DX2                !
 ! A49   A(17,19,29)           119.4489         estimate D2E/DX2                !
 ! A50   A(4,20,12)            121.3842         estimate D2E/DX2                !
 ! A51   A(4,20,30)            119.3111         estimate D2E/DX2                !
 ! A52   A(12,20,30)           119.2986         estimate D2E/DX2                !
 ! D1    D(1,2,4,5)           -146.9362         estimate D2E/DX2                !
 ! D2    D(1,2,4,20)            33.0225         estimate D2E/DX2                !
 ! D3    D(3,2,4,5)             93.546          estimate D2E/DX2                !
 ! D4    D(3,2,4,20)           -86.4953         estimate D2E/DX2                !
 ! D5    D(21,2,4,5)           -26.2096         estimate D2E/DX2                !
 ! D6    D(21,2,4,20)          153.7491         estimate D2E/DX2                !
 ! D7    D(2,4,5,6)            179.9081         estimate D2E/DX2                !
 ! D8    D(2,4,5,22)            -0.0816         estimate D2E/DX2                !
 ! D9    D(20,4,5,6)            -0.0511         estimate D2E/DX2                !
 ! D10   D(20,4,5,22)          179.9591         estimate D2E/DX2                !
 ! D11   D(2,4,20,12)         -179.8676         estimate D2E/DX2                !
 ! D12   D(2,4,20,30)            1.037          estimate D2E/DX2                !
 ! D13   D(5,4,20,12)            0.0918         estimate D2E/DX2                !
 ! D14   D(5,4,20,30)         -179.0036         estimate D2E/DX2                !
 ! D15   D(4,5,6,7)            179.9625         estimate D2E/DX2                !
 ! D16   D(4,5,6,11)            -0.0317         estimate D2E/DX2                !
 ! D17   D(22,5,6,7)            -0.0478         estimate D2E/DX2                !
 ! D18   D(22,5,6,11)          179.9581         estimate D2E/DX2                !
 ! D19   D(5,6,7,8)             93.3513         estimate D2E/DX2                !
 ! D20   D(5,6,7,9)           -147.1216         estimate D2E/DX2                !
 ! D21   D(5,6,7,10)           -26.3861         estimate D2E/DX2                !
 ! D22   D(11,6,7,8)           -86.6546         estimate D2E/DX2                !
 ! D23   D(11,6,7,9)            32.8725         estimate D2E/DX2                !
 ! D24   D(11,6,7,10)          153.608          estimate D2E/DX2                !
 ! D25   D(5,6,11,12)            0.0774         estimate D2E/DX2                !
 ! D26   D(5,6,11,23)         -178.9541         estimate D2E/DX2                !
 ! D27   D(7,6,11,12)         -179.9168         estimate D2E/DX2                !
 ! D28   D(7,6,11,23)            1.0517         estimate D2E/DX2                !
 ! D29   D(6,11,12,13)         179.9708         estimate D2E/DX2                !
 ! D30   D(6,11,12,20)          -0.0382         estimate D2E/DX2                !
 ! D31   D(23,11,12,13)         -0.9982         estimate D2E/DX2                !
 ! D32   D(23,11,12,20)        178.9927         estimate D2E/DX2                !
 ! D33   D(11,12,13,14)        -39.9305         estimate D2E/DX2                !
 ! D34   D(11,12,13,19)        140.0954         estimate D2E/DX2                !
 ! D35   D(20,12,13,14)        140.0787         estimate D2E/DX2                !
 ! D36   D(20,12,13,19)        -39.8954         estimate D2E/DX2                !
 ! D37   D(11,12,20,4)          -0.0475         estimate D2E/DX2                !
 ! D38   D(11,12,20,30)        179.048          estimate D2E/DX2                !
 ! D39   D(13,12,20,4)         179.9435         estimate D2E/DX2                !
 ! D40   D(13,12,20,30)         -0.961          estimate D2E/DX2                !
 ! D41   D(12,13,14,15)        179.9522         estimate D2E/DX2                !
 ! D42   D(12,13,14,24)         -1.0945         estimate D2E/DX2                !
 ! D43   D(19,13,14,15)         -0.0726         estimate D2E/DX2                !
 ! D44   D(19,13,14,24)        178.8807         estimate D2E/DX2                !
 ! D45   D(12,13,19,17)        179.8402         estimate D2E/DX2                !
 ! D46   D(12,13,19,29)         -0.9144         estimate D2E/DX2                !
 ! D47   D(14,13,19,17)         -0.135          estimate D2E/DX2                !
 ! D48   D(14,13,19,29)        179.1104         estimate D2E/DX2                !
 ! D49   D(13,14,15,16)          0.0245         estimate D2E/DX2                !
 ! D50   D(24,14,15,16)       -178.9842         estimate D2E/DX2                !
 ! D51   D(14,15,16,17)          0.2386         estimate D2E/DX2                !
 ! D52   D(14,15,16,25)       -179.8238         estimate D2E/DX2                !
 ! D53   D(15,16,17,18)       -179.1713         estimate D2E/DX2                !
 ! D54   D(15,16,17,19)         -0.438          estimate D2E/DX2                !
 ! D55   D(25,16,17,18)          0.8943         estimate D2E/DX2                !
 ! D56   D(25,16,17,19)        179.6275         estimate D2E/DX2                !
 ! D57   D(16,17,18,26)         28.1723         estimate D2E/DX2                !
 ! D58   D(16,17,18,27)        146.4738         estimate D2E/DX2                !
 ! D59   D(16,17,18,28)        -92.9138         estimate D2E/DX2                !
 ! D60   D(19,17,18,26)       -150.5272         estimate D2E/DX2                !
 ! D61   D(19,17,18,27)        -32.2257         estimate D2E/DX2                !
 ! D62   D(19,17,18,28)         88.3867         estimate D2E/DX2                !
 ! D63   D(16,17,19,13)          0.3761         estimate D2E/DX2                !
 ! D64   D(16,17,19,29)       -178.8746         estimate D2E/DX2                !
 ! D65   D(18,17,19,13)        179.1102         estimate D2E/DX2                !
 ! D66   D(18,17,19,29)         -0.1405         estimate D2E/DX2                !
 --------------------------------------------------------------------------------
 Trust Radius=3.00D-01 FncErr=1.00D-07 GrdErr=1.00D-06 EigMax=2.50D+02 EigMin=1.00D-04
 Number of steps in this run=    159 maximum allowed number of steps=    180.
 GradGradGradGradGradGradGradGradGradGradGradGradGradGradGradGradGradGrad

                          Input orientation:                          
 ---------------------------------------------------------------------
 Center     Atomic      Atomic             Coordinates (Angstroms)
 Number     Number       Type             X           Y           Z
 ---------------------------------------------------------------------
      1          9           0       -3.933200    1.837300    2.454000
      2          6           0       -2.747100    2.193600    1.957700
      3          9           0       -2.905600    3.294600    1.225100
      4          6           0       -2.170300    1.089300    1.071800
      5          6           0       -0.788600    0.878400    1.003300
      6          6           0       -0.259100   -0.133300    0.194300
      7          6           0        1.250700   -0.361400    0.120300
      8          9           0        1.590000   -1.289200    1.013700
      9          9           0        1.611300   -0.784900   -1.092300
     10          9           0        1.926900    0.756400    0.390400
     11          6           0       -1.131800   -0.936800   -0.549200
     12          6           0       -2.518300   -0.746700   -0.499800
     13          6           0       -3.436100   -1.608200   -1.296400
     14          6           0       -3.120600   -2.000800   -2.605500
     15          7           0       -3.922200   -2.784300   -3.370000
     16          6           0       -5.092500   -3.207700   -2.832800
     17          6           0       -5.500600   -2.868100   -1.541100
     18          6           0       -6.811900   -3.382400   -0.977100
     19          6           0       -4.655400   -2.063100   -0.771300
     20          6           0       -3.021300    0.273200    0.317100
     21          9           0       -1.935200    2.475100    2.978100
     22          1           0       -0.122000    1.504500    1.582500
     23          1           0       -0.727300   -1.730500   -1.162200
     24          1           0       -2.207200   -1.673500   -3.080800
     25          1           0       -5.706000   -3.832100   -3.466300
     26          1           0       -7.084600   -4.338900   -1.425000
     27          1           0       -6.732200   -3.554000    0.097100
     28          1           0       -7.614800   -2.667000   -1.157100
     29          1           0       -4.942800   -1.803200    0.237400
     30          1           0       -4.088500    0.443300    0.354600
 ---------------------------------------------------------------------
                    Distance matrix (angstroms):
                    1          2          3          4          5
     1  F    0.000000
     2  C    1.334203   0.000000
     3  F    2.165613   1.331926   0.000000
     4  C    2.361736   1.528724   2.329703   0.000000
     5  C    3.593401   2.544868   3.220079   1.399381   0.000000
     6  C    4.742206   3.835908   4.451630   2.432579   1.399424
     7  C    6.095347   5.087875   5.644621   3.835769   2.544708
     8  F    6.508088   5.641938   6.423888   4.449775   3.218126
     9  F    7.084748   6.096689   6.512684   4.743043   3.594110
    10  F    6.306153   5.135002   5.521978   4.166794   2.786480
    11  C    4.956075   4.323557   4.919274   2.794853   2.413088
    12  C    4.171802   3.838883   4.411053   2.441706   2.809292
    13  C    5.117038   5.051492   5.538668   3.806196   4.298960
    14  C    6.402333   6.209290   6.539188   4.896358   5.172181
    15  N    7.434937   7.385441   7.687746   6.148457   6.508500
    16  C    7.399071   7.591036   7.970507   6.499951   7.066501
    17  C    6.368544   6.741229   7.236350   5.794753   6.535532
    18  C    6.877836   7.498495   8.043084   6.763028   7.639145
    19  C    5.112461   5.404493   5.979328   4.417054   5.172405
    20  C    2.800770   2.540608   3.157009   1.399926   2.412900
    21  F    2.161822   1.334031   2.164778   2.368479   2.786391
    22  H    3.923712   2.739851   3.328757   2.151450   1.082511
    23  H    6.006987   5.404806   5.974598   3.876116   3.391092
    24  H    6.777817   6.374358   6.611396   4.987836   5.020408
    25  H    8.386589   8.630407   8.980052   7.570714   8.145364
    26  H    7.945024   8.539913   9.097109   7.736259   8.529741
    27  H    6.515788   7.237248   7.925817   6.581885   7.469521
    28  H    6.847112   7.551286   7.961917   6.979998   7.989631
    29  H    4.380165   4.873904   5.577930   4.092620   5.003495
    30  H    2.524843   2.726322   3.207325   2.147367   3.391086
                    6          7          8          9         10
     6  C    0.000000
     7  C    1.528725   0.000000
     8  F    2.329526   1.331954   0.000000
     9  F    2.361846   1.334085   2.165643   0.000000
    10  F    2.368252   1.334045   2.164829   2.161853   0.000000
    11  C    1.400003   2.540792   3.158328   2.800469   3.620141
    12  C    2.441725   3.839055   4.411702   4.172063   4.776146
    13  C    3.806684   5.052489   5.540758   5.118176   6.099049
    14  C    4.417535   5.406097   5.982870   5.114593   6.484969
    15  N    5.757633   6.694142   7.199757   6.309131   7.803149
    16  C    6.478968   7.553702   7.945565   7.337591   8.681882
    17  C    6.161499   7.390795   7.700424   7.424302   8.487370
    18  C    7.407295   8.679646   8.884632   8.815360   9.765569
    19  C    4.897343   6.210696   6.541419   6.403777   7.254364
    20  C    2.794650   4.323359   4.918377   4.956508   4.972277
    21  F    4.166846   5.134463   5.518683   6.306617   4.956404
    22  H    2.151345   2.739328   3.325543   3.924313   2.485709
    23  H    2.147173   2.726119   3.209231   2.523509   3.954746
    24  H    4.110181   4.891392   5.597441   4.395985   5.919833
    25  H    7.533249   8.561842   8.931313   8.274309   9.705134
    26  H    8.179037   9.364063   9.512971   9.400015  10.510228
    27  H    7.321998   8.597670   8.673436   8.871109   9.677065
    28  H    7.896343   9.249034   9.557146   9.416338  10.254680
    29  H    4.972672   6.360184   6.598812   6.764707   7.332649
    30  H    3.875883   5.404581   5.973385   6.007472   6.023649
                   11         12         13         14         15
    11  C    0.000000
    12  C    1.400343   0.000000
    13  C    2.513739   1.489668   0.000000
    14  C    3.052178   2.523788   1.402647   0.000000
    15  N    4.376814   3.789564   2.432966   1.356796   0.000000
    16  C    5.104798   4.257454   2.768138   2.323072   1.355527
    17  C    4.878545   3.805096   2.430923   2.747646   2.417280
    18  C    6.198999   5.060606   3.826978   4.264528   3.799218
    19  C    3.705892   2.524642   1.403338   2.392443   2.794808
    20  C    2.405158   1.400189   2.512988   3.704393   4.873873
    21  F    4.972762   4.776588   6.098966   7.253650   8.479849
    22  H    3.394670   3.891803   5.381471   6.230415   7.573809
    23  H    1.081364   2.148096   2.714878   2.807857   4.023961
    24  H    2.847492   2.759946   2.167612   1.080433   2.063671
    25  H    6.149434   5.336782   3.847940   3.283128   2.071014
    26  H    6.912101   5.883111   4.559036   4.751167   4.024994
    27  H    6.215458   5.098448   4.073359   4.770758   4.528722
    28  H    6.737390   5.485791   4.313003   4.768597   4.306504
    29  H    3.986616   2.745516   2.158868   3.382534   3.875244
    30  H    3.385795   2.147470   2.712947   3.958869   4.931298
                   16         17         18         19         20
    16  C    0.000000
    17  C    1.396554   0.000000
    18  C    2.535839   1.517270   0.000000
    19  C    2.398113   1.398206   2.536414   0.000000
    20  C    5.131121   4.412210   5.422823   3.051753   0.000000
    21  F    8.719479   7.853982   8.586974   6.484809   3.620621
    22  H    8.148961   7.603016   8.671108   6.230559   3.394595
    23  H    4.901836   4.921594   6.307566   3.961489   3.386086
    24  H    3.277229   3.826778   5.343141   3.388106   3.999766
    25  H    1.080546   2.162841   2.760681   3.390597   6.194773
    26  H    2.688862   2.164668   1.090813   3.392286   6.388802
    27  H    3.375330   2.161249   1.090736   2.700000   5.335414
    28  H    3.076089   2.158180   1.090342   3.044928   5.649627
    29  H    3.379520   2.146675   2.731743   1.080566   2.830186
    30  H    4.949478   4.068547   4.881220   2.805542   1.081321
                   21         22         23         24         25
    21  F    0.000000
    22  H    2.485449   0.000000
    23  H    6.023967   4.285439   0.000000
    24  H    7.348138   6.016154   2.423712   0.000000
    25  H    9.773945   9.227716   5.874781   4.129136   0.000000
    26  H    9.609069   9.574350   6.876633   5.799574   2.514814
    27  H    8.225656   8.455151   6.400767   5.840458   3.718635
    28  H    8.706258   9.002715   6.950879   5.824929   3.214558
    29  H    5.904316   5.999190   4.442365   4.302416   4.291422
    30  H    3.955713   4.285675   4.280625   4.452202   5.957737
                   26         27         28         29         30
    26  H    0.000000
    27  H    1.748440   0.000000
    28  H    1.774298   1.771657   0.000000
    29  H    3.712231   2.507377   3.135341   0.000000
    30  H    5.917181   4.799361   4.939028   2.406310   0.000000
 Stoichiometry    C14H9F6N
 Framework group  C1[X(C14H9F6N)]
 Deg. of freedom    84
 Full point group                 C1      NOp   1
 Largest Abelian subgroup         C1      NOp   1
 Largest concise Abelian subgroup C1      NOp   1
                         Standard orientation:                         
 ---------------------------------------------------------------------
 Center     Atomic      Atomic             Coordinates (Angstroms)
 Number     Number       Type             X           Y           Z
 ---------------------------------------------------------------------
      1          9           0        1.044131    3.588846    0.414146
      2          6           0        1.876057    2.714932   -0.155300
      3          9           0        2.045056    3.057442   -1.431291
      4          6           0        1.306200    1.297659   -0.095339
      5          6           0        2.154738    0.192513    0.034675
      6          6           0        1.634563   -1.105394    0.091633
      7          6           0        2.563419   -2.311335    0.232824
      8          9           0        2.688199   -2.609401    1.524987
      9          9           0        2.067720   -3.373667   -0.403979
     10          9           0        3.774927   -2.054856   -0.263304
     11          6           0        0.248351   -1.286806    0.017367
     12          6           0       -0.623221   -0.198642   -0.113870
     13          6           0       -2.096389   -0.405303   -0.192474
     14          6           0       -2.649389   -1.466500   -0.924231
     15          7           0       -3.982689   -1.696791   -1.025091
     16          6           0       -4.822121   -0.849828   -0.380530
     17          6           0       -4.372059    0.239035    0.369258
     18          6           0       -5.350746    1.148456    1.088447
     19          6           0       -2.993424    0.453061    0.461665
     20          6           0       -0.076120    1.089047   -0.169253
     21          9           0        3.053990    2.794324    0.465835
     22          1           0        3.225187    0.343123    0.091989
     23          1           0       -0.158202   -2.286987    0.078193
     24          1           0       -2.020164   -2.156309   -1.467899
     25          1           0       -5.876957   -1.062664   -0.478527
     26          1           0       -6.261282    0.611706    1.358064
     27          1           0       -4.922540    1.521002    2.019873
     28          1           0       -5.615978    2.000250    0.461594
     29          1           0       -2.622363    1.278810    1.051643
     30          1           0       -0.734252    1.939031   -0.286068
 ---------------------------------------------------------------------
 Rotational constants (GHZ):           0.3392605           0.1929350           0.1327900
 Standard basis: 6-31G(d,p) (6D, 7F)
 There are   360 symmetry adapted cartesian basis functions of A   symmetry.
 There are   360 symmetry adapted basis functions of A   symmetry.
   360 basis functions,   651 primitive gaussians,   360 cartesian basis functions
    77 alpha electrons       77 beta electrons
       nuclear repulsion energy      1665.0599813068 Hartrees.
 NAtoms=   30 NActive=   30 NUniq=   30 SFac= 1.00D+00 NAtFMM=   60 NAOKFM=F Big=F
 Integral buffers will be    131072 words long.
 Raffenetti 2 integral format.
 Two-electron integral symmetry is turned on.
 Nuclear repulsion after empirical dispersion term =     1664.9979662539 Hartrees.
 One-electron integrals computed using PRISM.
 NBasis=   360 RedAO= T EigKep=  3.74D-04  NBF=   360
 NBsUse=   360 1.00D-06 EigRej= -1.00D+00 NBFU=   360
 ExpMin= 1.61D-01 ExpMax= 7.00D+03 ExpMxC= 1.05D+03 IAcc=3 IRadAn=         5 AccDes= 0.00D+00
 Harris functional with IExCor=  402 and IRadAn=       5 diagonalized for initial guess.
 HarFok:  IExCor=  402 AccDes= 0.00D+00 IRadAn=         5 IDoV= 1 UseB2=F ITyADJ=14
 ICtDFT=  3500011 ScaDFX=  1.000000  1.000000  1.000000  1.000000
 FoFCou: FMM=F IPFlag=           0 FMFlag=      100000 FMFlg1=           0
         NFxFlg=           0 DoJE=T BraDBF=F KetDBF=T FulRan=T
         wScrn=  0.000000 ICntrl=       500 IOpCl=  0 I1Cent=   200000004 NGrid=           0
         NMat0=    1 NMatS0=      1 NMatT0=    0 NMatD0=    1 NMtDS0=    0 NMtDT0=    0
 Petite list used in FoFCou.
 Requested convergence on RMS density matrix=1.00D-08 within 128 cycles.
 Requested convergence on MAX density matrix=1.00D-06.
 Requested convergence on             energy=1.00D-06.
 No special actions if energy rises.
 Integral accuracy reduced to 1.0D-05 until final iterations.
 Initial convergence to 1.0D-05 achieved.  Increase integral accuracy.
 SCF Done:  E(RB3LYP) =  -1192.80411315     A.U. after   14 cycles
            NFock= 14  Conv=0.55D-08     -V/T= 2.0081

 **********************************************************************

            Population analysis using the SCF Density.

 **********************************************************************

 Orbital symmetries:
       Occupied  (A) (A) (A) (A) (A) (A) (A) (A) (A) (A) (A) (A)
                 (A) (A) (A) (A) (A) (A) (A) (A) (A) (A) (A) (A)
                 (A) (A) (A) (A) (A) (A) (A) (A) (A) (A) (A) (A)
                 (A) (A) (A) (A) (A) (A) (A) (A) (A) (A) (A) (A)
                 (A) (A) (A) (A) (A) (A) (A) (A) (A) (A) (A) (A)
                 (A) (A) (A) (A) (A) (A) (A) (A) (A) (A) (A) (A)
                 (A) (A) (A) (A) (A)
       Virtual   (A) (A) (A) (A) (A) (A) (A) (A) (A) (A) (A) (A)
                 (A) (A) (A) (A) (A) (A) (A) (A) (A) (A) (A) (A)
                 (A) (A) (A) (A) (A) (A) (A) (A) (A) (A) (A) (A)
                 (A) (A) (A) (A) (A) (A) (A) (A) (A) (A) (A) (A)
                 (A) (A) (A) (A) (A) (A) (A) (A) (A) (A) (A) (A)
                 (A) (A) (A) (A) (A) (A) (A) (A) (A) (A) (A) (A)
                 (A) (A) (A) (A) (A) (A) (A) (A) (A) (A) (A) (A)
                 (A) (A) (A) (A) (A) (A) (A) (A) (A) (A) (A) (A)
                 (A) (A) (A) (A) (A) (A) (A) (A) (A) (A) (A) (A)
                 (A) (A) (A) (A) (A) (A) (A) (A) (A) (A) (A) (A)
                 (A) (A) (A) (A) (A) (A) (A) (A) (A) (A) (A) (A)
                 (A) (A) (A) (A) (A) (A) (A) (A) (A) (A) (A) (A)
                 (A) (A) (A) (A) (A) (A) (A) (A) (A) (A) (A) (A)
                 (A) (A) (A) (A) (A) (A) (A) (A) (A) (A) (A) (A)
                 (A) (A) (A) (A) (A) (A) (A) (A) (A) (A) (A) (A)
                 (A) (A) (A) (A) (A) (A) (A) (A) (A) (A) (A) (A)
                 (A) (A) (A) (A) (A) (A) (A) (A) (A) (A) (A) (A)
                 (A) (A) (A) (A) (A) (A) (A) (A) (A) (A) (A) (A)
                 (A) (A) (A) (A) (A) (A) (A) (A) (A) (A) (A) (A)
                 (A) (A) (A) (A) (A) (A) (A) (A) (A) (A) (A) (A)
                 (A) (A) (A) (A) (A) (A) (A) (A) (A) (A) (A) (A)
                 (A) (A) (A) (A) (A) (A) (A) (A) (A) (A) (A) (A)
                 (A) (A) (A) (A) (A) (A) (A) (A) (A) (A) (A) (A)
                 (A) (A) (A) (A) (A) (A) (A)
 The electronic state is 1-A.
 Alpha  occ. eigenvalues --  -24.73817 -24.73811 -24.73721 -24.73656 -24.73228
 Alpha  occ. eigenvalues --  -24.73142 -14.34003 -10.44388 -10.44292 -10.23277
 Alpha  occ. eigenvalues --  -10.23239 -10.23123 -10.23090 -10.22862 -10.22537
 Alpha  occ. eigenvalues --  -10.22350 -10.22290 -10.22173 -10.21699 -10.21564
 Alpha  occ. eigenvalues --  -10.19899  -1.32216  -1.32103  -1.23341  -1.23215
 Alpha  occ. eigenvalues --   -1.23085  -1.22985  -0.94018  -0.89562  -0.83074
 Alpha  occ. eigenvalues --   -0.81049  -0.80736  -0.76080  -0.71409  -0.71246
 Alpha  occ. eigenvalues --   -0.70464  -0.65881  -0.64720  -0.63014  -0.61774
 Alpha  occ. eigenvalues --   -0.59812  -0.59674  -0.59576  -0.59467  -0.57273
 Alpha  occ. eigenvalues --   -0.54013  -0.52966  -0.51682  -0.50484  -0.48123
 Alpha  occ. eigenvalues --   -0.47225  -0.47136  -0.46874  -0.46490  -0.46460
 Alpha  occ. eigenvalues --   -0.44023  -0.43819  -0.43427  -0.43179  -0.42750
 Alpha  occ. eigenvalues --   -0.42618  -0.41741  -0.41240  -0.41064  -0.40788
 Alpha  occ. eigenvalues --   -0.40643  -0.40126  -0.39802  -0.38534  -0.38271
 Alpha  occ. eigenvalues --   -0.36471  -0.35939  -0.30724  -0.28345  -0.27726
 Alpha  occ. eigenvalues --   -0.26086  -0.25065
 Alpha virt. eigenvalues --   -0.05474  -0.04547  -0.03225  -0.00210   0.09050
 Alpha virt. eigenvalues --    0.09710   0.10467   0.11968   0.12463   0.13357
 Alpha virt. eigenvalues --    0.13726   0.14026   0.15211   0.16009   0.16573
 Alpha virt. eigenvalues --    0.17761   0.18575   0.20523   0.20857   0.21490
 Alpha virt. eigenvalues --    0.22313   0.22585   0.23483   0.24279   0.26595
 Alpha virt. eigenvalues --    0.26981   0.28057   0.28728   0.31241   0.33583
 Alpha virt. eigenvalues --    0.35813   0.36930   0.39949   0.41772   0.42417
 Alpha virt. eigenvalues --    0.44735   0.45709   0.46694   0.47183   0.49562
 Alpha virt. eigenvalues --    0.49910   0.51377   0.52148   0.52807   0.53043
 Alpha virt. eigenvalues --    0.53878   0.54677   0.55561   0.56718   0.56825
 Alpha virt. eigenvalues --    0.57155   0.58760   0.59335   0.59981   0.60163
 Alpha virt. eigenvalues --    0.61396   0.62255   0.63866   0.65310   0.65764
 Alpha virt. eigenvalues --    0.66868   0.68955   0.69720   0.70970   0.71691
 Alpha virt. eigenvalues --    0.72858   0.73763   0.75673   0.77502   0.77799
 Alpha virt. eigenvalues --    0.79180   0.79875   0.80465   0.81737   0.83927
 Alpha virt. eigenvalues --    0.85731   0.86309   0.87174   0.87309   0.88438
 Alpha virt. eigenvalues --    0.90652   0.91744   0.92276   0.92758   0.94530
 Alpha virt. eigenvalues --    0.96703   0.97242   1.01275   1.02567   1.04825
 Alpha virt. eigenvalues --    1.06842   1.07034   1.08166   1.08458   1.09447
 Alpha virt. eigenvalues --    1.10137   1.11923   1.12320   1.13157   1.13379
 Alpha virt. eigenvalues --    1.13891   1.15514   1.17023   1.18833   1.19741
 Alpha virt. eigenvalues --    1.21768   1.22611   1.26036   1.28135   1.29549
 Alpha virt. eigenvalues --    1.31656   1.31779   1.32403   1.32644   1.33824
 Alpha virt. eigenvalues --    1.33924   1.35277   1.36705   1.36939   1.37102
 Alpha virt. eigenvalues --    1.37287   1.37864   1.38615   1.38896   1.39237
 Alpha virt. eigenvalues --    1.39704   1.40620   1.42430   1.44349   1.46174
 Alpha virt. eigenvalues --    1.47778   1.49787   1.51484   1.55614   1.60227
 Alpha virt. eigenvalues --    1.61010   1.64383   1.66413   1.66927   1.67243
 Alpha virt. eigenvalues --    1.68550   1.69541   1.69864   1.70511   1.72636
 Alpha virt. eigenvalues --    1.73936   1.74944   1.75371   1.75893   1.76535
 Alpha virt. eigenvalues --    1.78420   1.79970   1.81965   1.83098   1.83697
 Alpha virt. eigenvalues --    1.84020   1.84282   1.86151   1.86634   1.87478
 Alpha virt. eigenvalues --    1.89364   1.94115   1.94598   1.96102   1.96462
 Alpha virt. eigenvalues --    1.96498   1.97506   1.98732   1.99024   1.99130
 Alpha virt. eigenvalues --    1.99935   2.00334   2.00408   2.01082   2.03365
 Alpha virt. eigenvalues --    2.03702   2.04781   2.05904   2.06068   2.06301
 Alpha virt. eigenvalues --    2.06981   2.07282   2.07650   2.08485   2.09473
 Alpha virt. eigenvalues --    2.10556   2.11513   2.12793   2.12899   2.13941
 Alpha virt. eigenvalues --    2.16316   2.20349   2.21355   2.22512   2.25297
 Alpha virt. eigenvalues --    2.26271   2.28154   2.30285   2.31660   2.33184
 Alpha virt. eigenvalues --    2.35350   2.36878   2.39351   2.40600   2.41215
 Alpha virt. eigenvalues --    2.41583   2.41639   2.44824   2.47432   2.48212
 Alpha virt. eigenvalues --    2.49249   2.51175   2.52924   2.53755   2.56447
 Alpha virt. eigenvalues --    2.57669   2.58741   2.59813   2.60681   2.62990
 Alpha virt. eigenvalues --    2.64590   2.65647   2.66346   2.67733   2.68326
 Alpha virt. eigenvalues --    2.69270   2.71584   2.72047   2.72540   2.76390
 Alpha virt. eigenvalues --    2.77154   2.79573   2.80884   2.83282   2.84386
 Alpha virt. eigenvalues --    2.86013   2.87686   2.87890   2.91296   2.97011
 Alpha virt. eigenvalues --    2.99330   3.02171   3.03527   3.05196   3.05618
 Alpha virt. eigenvalues --    3.06685   3.06983   3.07970   3.09970   3.17582
 Alpha virt. eigenvalues --    3.18195   3.18781   3.20710   3.32507   3.37536
 Alpha virt. eigenvalues --    3.38521   3.38861   3.41177   3.42963   3.45201
 Alpha virt. eigenvalues --    3.65874   3.74220   4.07767   4.08204   4.09416
 Alpha virt. eigenvalues --    4.10353   4.14237   4.20386   4.26531   4.28271
 Alpha virt. eigenvalues --    4.31190   4.36558   4.43929   4.50299   4.51065
 Alpha virt. eigenvalues --    4.52454   4.54169   4.57965   4.72084   4.75652
 Alpha virt. eigenvalues --    4.88089   5.42910   5.62872
          Condensed to atoms (all electrons):
               1          2          3          4          5          6
     1  F    9.084990   0.288747  -0.039230  -0.051924   0.002675  -0.000035
     2  C    0.288747   4.079255   0.293824   0.295848  -0.023778   0.004137
     3  F   -0.039230   0.293824   9.088465  -0.056502  -0.000003  -0.000010
     4  C   -0.051924   0.295848  -0.056502   5.171519   0.448352  -0.019201
     5  C    0.002675  -0.023778  -0.000003   0.448352   5.053922   0.448252
     6  C   -0.000035   0.004137  -0.000010  -0.019201   0.448252   5.173847
     7  C    0.000000  -0.000081   0.000000   0.004120  -0.023530   0.295234
     8  F   -0.000000   0.000000   0.000000  -0.000009  -0.000002  -0.056396
     9  F   -0.000000   0.000000  -0.000000  -0.000035   0.002683  -0.051881
    10  F    0.000000  -0.000004   0.000000   0.000759   0.004606  -0.050963
    11  C   -0.000005   0.000432  -0.000004  -0.038041  -0.069728   0.449029
    12  C    0.000683   0.003452   0.000041  -0.016422  -0.029980  -0.016949
    13  C   -0.000000  -0.000141  -0.000000   0.006220   0.001349   0.006200
    14  C    0.000000   0.000000  -0.000000  -0.000149   0.000003   0.000256
    15  N    0.000000   0.000000   0.000000   0.000000  -0.000000  -0.000002
    16  C    0.000000   0.000000   0.000000  -0.000000   0.000000  -0.000000
    17  C   -0.000000  -0.000000   0.000000  -0.000003  -0.000000   0.000001
    18  C   -0.000000  -0.000000  -0.000000   0.000000   0.000000  -0.000000
    19  C   -0.000002  -0.000001   0.000000   0.000307  -0.000000  -0.000157
    20  C    0.004685  -0.020671   0.000459   0.451242  -0.069514  -0.037619
    21  F   -0.038141   0.292319  -0.039303  -0.050938   0.004566   0.000756
    22  H    0.000107  -0.005650   0.000216  -0.041345   0.368000  -0.041254
    23  H   -0.000000   0.000006  -0.000000   0.000260   0.004999  -0.046069
    24  H   -0.000000   0.000000   0.000000  -0.000003  -0.000002  -0.000086
    25  H    0.000000  -0.000000   0.000000   0.000000   0.000000   0.000000
    26  H    0.000000  -0.000000   0.000000   0.000000   0.000000   0.000000
    27  H   -0.000000   0.000000   0.000000  -0.000000   0.000000   0.000000
    28  H    0.000000   0.000000  -0.000000  -0.000000  -0.000000  -0.000000
    29  H   -0.000003  -0.000001   0.000000  -0.000047  -0.000004  -0.000004
    30  H    0.006393  -0.004914   0.000299  -0.046862   0.005069   0.000246
               7          8          9         10         11         12
     1  F    0.000000  -0.000000  -0.000000   0.000000  -0.000005   0.000683
     2  C   -0.000081   0.000000   0.000000  -0.000004   0.000432   0.003452
     3  F    0.000000   0.000000  -0.000000   0.000000  -0.000004   0.000041
     4  C    0.004120  -0.000009  -0.000035   0.000759  -0.038041  -0.016422
     5  C   -0.023530  -0.000002   0.002683   0.004606  -0.069728  -0.029980
     6  C    0.295234  -0.056396  -0.051881  -0.050963   0.449029  -0.016949
     7  C    4.078042   0.293632   0.289634   0.292202  -0.020489   0.003424
     8  F    0.293632   9.088918  -0.039233  -0.039286   0.000429   0.000040
     9  F    0.289634  -0.039233   9.082659  -0.038165   0.004689   0.000684
    10  F    0.292202  -0.039286  -0.038165   9.078102   0.002869  -0.000036
    11  C   -0.020489   0.000429   0.004689   0.002869   5.043371   0.478634
    12  C    0.003424   0.000040   0.000684  -0.000036   0.478634   4.906299
    13  C   -0.000140  -0.000000  -0.000000   0.000000  -0.042899   0.288062
    14  C   -0.000001   0.000000  -0.000002   0.000000  -0.009053  -0.033195
    15  N   -0.000000   0.000000  -0.000000   0.000000   0.000039   0.006163
    16  C    0.000000  -0.000000  -0.000000   0.000000   0.000012   0.000981
    17  C    0.000000   0.000000   0.000000   0.000000  -0.000173   0.007448
    18  C    0.000000  -0.000000  -0.000000  -0.000000   0.000001  -0.000132
    19  C    0.000000  -0.000000   0.000000   0.000000   0.004782  -0.051015
    20  C    0.000440  -0.000004  -0.000005  -0.000001  -0.056341   0.477929
    21  F   -0.000004   0.000000   0.000000   0.000000  -0.000001  -0.000036
    22  H   -0.005611   0.000217   0.000108   0.007332   0.004972   0.000382
    23  H   -0.004816   0.000294   0.006366   0.000100   0.364671  -0.035882
    24  H   -0.000001   0.000000  -0.000003  -0.000000   0.003828  -0.002488
    25  H   -0.000000  -0.000000  -0.000000   0.000000  -0.000000   0.000016
    26  H   -0.000000  -0.000000   0.000000   0.000000  -0.000000   0.000003
    27  H   -0.000000   0.000000   0.000000   0.000000   0.000000  -0.000012
    28  H    0.000000  -0.000000  -0.000000   0.000000  -0.000000   0.000006
    29  H    0.000000   0.000000  -0.000000  -0.000000   0.000112  -0.009787
    30  H    0.000006  -0.000000  -0.000000  -0.000000   0.006295  -0.036873
              13         14         15         16         17         18
     1  F   -0.000000   0.000000   0.000000   0.000000  -0.000000  -0.000000
     2  C   -0.000141   0.000000   0.000000   0.000000  -0.000000  -0.000000
     3  F   -0.000000  -0.000000   0.000000   0.000000   0.000000  -0.000000
     4  C    0.006220  -0.000149   0.000000  -0.000000  -0.000003   0.000000
     5  C    0.001349   0.000003  -0.000000   0.000000  -0.000000   0.000000
     6  C    0.006200   0.000256  -0.000002  -0.000000   0.000001  -0.000000
     7  C   -0.000140  -0.000001  -0.000000   0.000000   0.000000   0.000000
     8  F   -0.000000   0.000000   0.000000  -0.000000   0.000000  -0.000000
     9  F   -0.000000  -0.000002  -0.000000  -0.000000   0.000000  -0.000000
    10  F    0.000000   0.000000   0.000000   0.000000   0.000000  -0.000000
    11  C   -0.042899  -0.009053   0.000039   0.000012  -0.000173   0.000001
    12  C    0.288062  -0.033195   0.006163   0.000981   0.007448  -0.000132
    13  C    4.956999   0.467220  -0.006386  -0.034213  -0.012372   0.007113
    14  C    0.467220   4.837656   0.437664  -0.079525  -0.034392   0.000446
    15  N   -0.006386   0.437664   6.734142   0.438247  -0.010303   0.005904
    16  C   -0.034213  -0.079525   0.438247   4.802989   0.496282  -0.049661
    17  C   -0.012372  -0.034392  -0.010303   0.496282   4.800028   0.338767
    18  C    0.007113   0.000446   0.005904  -0.049661   0.338767   5.024540
    19  C    0.492900  -0.056827  -0.065546  -0.038371   0.511695  -0.058768
    20  C   -0.043303   0.004106  -0.000087  -0.000009   0.000182  -0.000001
    21  F    0.000000  -0.000000   0.000000  -0.000000   0.000000   0.000000
    22  H    0.000004   0.000000   0.000000  -0.000000   0.000000  -0.000000
    23  H   -0.008351   0.004480  -0.000076  -0.000005  -0.000008   0.000000
    24  H   -0.065323   0.386460  -0.046440   0.004538   0.000583   0.000016
    25  H    0.000597   0.004627  -0.049404   0.388580  -0.064540  -0.003876
    26  H   -0.000148  -0.000003   0.000083  -0.003708  -0.028619   0.378929
    27  H    0.000015   0.000030  -0.000148   0.002466  -0.027922   0.376458
    28  H   -0.000226   0.000031  -0.000102  -0.001382  -0.025742   0.374292
    29  H   -0.048571   0.005550  -0.000510   0.005602  -0.045749  -0.009637
    30  H   -0.008614   0.000114  -0.000008   0.000001  -0.000118   0.000005
              19         20         21         22         23         24
     1  F   -0.000002   0.004685  -0.038141   0.000107  -0.000000  -0.000000
     2  C   -0.000001  -0.020671   0.292319  -0.005650   0.000006   0.000000
     3  F    0.000000   0.000459  -0.039303   0.000216  -0.000000   0.000000
     4  C    0.000307   0.451242  -0.050938  -0.041345   0.000260  -0.000003
     5  C   -0.000000  -0.069514   0.004566   0.368000   0.004999  -0.000002
     6  C   -0.000157  -0.037619   0.000756  -0.041254  -0.046069  -0.000086
     7  C    0.000000   0.000440  -0.000004  -0.005611  -0.004816  -0.000001
     8  F   -0.000000  -0.000004   0.000000   0.000217   0.000294   0.000000
     9  F    0.000000  -0.000005   0.000000   0.000108   0.006366  -0.000003
    10  F    0.000000  -0.000001   0.000000   0.007332   0.000100  -0.000000
    11  C    0.004782  -0.056341  -0.000001   0.004972   0.364671   0.003828
    12  C   -0.051015   0.477929  -0.000036   0.000382  -0.035882  -0.002488
    13  C    0.492900  -0.043303   0.000000   0.000004  -0.008351  -0.065323
    14  C   -0.056827   0.004106  -0.000000   0.000000   0.004480   0.386460
    15  N   -0.065546  -0.000087   0.000000   0.000000  -0.000076  -0.046440
    16  C   -0.038371  -0.000009  -0.000000  -0.000000  -0.000005   0.004538
    17  C    0.511695   0.000182   0.000000   0.000000  -0.000008   0.000583
    18  C   -0.058768  -0.000001   0.000000  -0.000000   0.000000   0.000016
    19  C    4.997259  -0.009475   0.000000   0.000000   0.000084   0.003785
    20  C   -0.009475   5.042219   0.002879   0.004978   0.006202   0.000037
    21  F    0.000000   0.002879   9.077934   0.007316  -0.000000  -0.000000
    22  H    0.000000   0.004978   0.007316   0.578046  -0.000164  -0.000000
    23  H    0.000084   0.006202  -0.000000  -0.000164   0.590054   0.002121
    24  H    0.003785   0.000037  -0.000000  -0.000000   0.002121   0.606316
    25  H    0.003927  -0.000000   0.000000  -0.000000  -0.000000  -0.000198
    26  H    0.002825   0.000000   0.000000   0.000000   0.000000  -0.000000
    27  H   -0.003743  -0.000001  -0.000000   0.000000   0.000000  -0.000000
    28  H   -0.002096  -0.000001  -0.000000  -0.000000  -0.000000  -0.000000
    29  H    0.371480   0.004388  -0.000000  -0.000000   0.000001  -0.000184
    30  H    0.004548   0.364034   0.000100  -0.000165  -0.000161   0.000004
              25         26         27         28         29         30
     1  F    0.000000   0.000000  -0.000000   0.000000  -0.000003   0.006393
     2  C   -0.000000  -0.000000   0.000000   0.000000  -0.000001  -0.004914
     3  F    0.000000   0.000000   0.000000  -0.000000   0.000000   0.000299
     4  C    0.000000   0.000000  -0.000000  -0.000000  -0.000047  -0.046862
     5  C    0.000000   0.000000   0.000000  -0.000000  -0.000004   0.005069
     6  C    0.000000   0.000000   0.000000  -0.000000  -0.000004   0.000246
     7  C   -0.000000  -0.000000  -0.000000   0.000000   0.000000   0.000006
     8  F   -0.000000  -0.000000   0.000000  -0.000000   0.000000  -0.000000
     9  F   -0.000000   0.000000   0.000000  -0.000000  -0.000000  -0.000000
    10  F    0.000000   0.000000   0.000000   0.000000  -0.000000  -0.000000
    11  C   -0.000000  -0.000000   0.000000  -0.000000   0.000112   0.006295
    12  C    0.000016   0.000003  -0.000012   0.000006  -0.009787  -0.036873
    13  C    0.000597  -0.000148   0.000015  -0.000226  -0.048571  -0.008614
    14  C    0.004627  -0.000003   0.000030   0.000031   0.005550   0.000114
    15  N   -0.049404   0.000083  -0.000148  -0.000102  -0.000510  -0.000008
    16  C    0.388580  -0.003708   0.002466  -0.001382   0.005602   0.000001
    17  C   -0.064540  -0.028619  -0.027922  -0.025742  -0.045749  -0.000118
    18  C   -0.003876   0.378929   0.376458   0.374292  -0.009637   0.000005
    19  C    0.003927   0.002825  -0.003743  -0.002096   0.371480   0.004548
    20  C   -0.000000   0.000000  -0.000001  -0.000001   0.004388   0.364034
    21  F    0.000000   0.000000  -0.000000  -0.000000  -0.000000   0.000100
    22  H   -0.000000   0.000000   0.000000  -0.000000  -0.000000  -0.000165
    23  H   -0.000000   0.000000   0.000000  -0.000000   0.000001  -0.000161
    24  H   -0.000198  -0.000000  -0.000000  -0.000000  -0.000184   0.000004
    25  H    0.613577   0.004387  -0.000051   0.000415  -0.000182  -0.000000
    26  H    0.004387   0.580601  -0.029946  -0.027925   0.000005   0.000000
    27  H   -0.000051  -0.029946   0.585563  -0.028850   0.004429   0.000001
    28  H    0.000415  -0.027925  -0.028850   0.575416   0.000756  -0.000003
    29  H   -0.000182   0.000005   0.004429   0.000756   0.623076   0.002288
    30  H   -0.000000   0.000000   0.000001  -0.000003   0.002288   0.597833
 Mulliken charges:
               1
     1  F   -0.258940
     2  C    0.797221
     3  F   -0.248253
     4  C   -0.057142
     5  C   -0.127933
     6  C   -0.057331
     7  C    0.797940
     8  F   -0.248601
     9  F   -0.257498
    10  F   -0.257514
    11  C   -0.127430
    12  C    0.058562
    13  C    0.044008
    14  C    0.064505
    15  N   -0.443231
    16  C    0.067178
    17  C    0.094955
    18  C   -0.384395
    19  C   -0.107593
    20  C   -0.126747
    21  F   -0.257448
    22  H    0.122511
    23  H    0.115892
    24  H    0.107040
    25  H    0.102126
    26  H    0.123517
    27  H    0.121712
    28  H    0.135412
    29  H    0.096995
    30  H    0.110481
 Sum of Mulliken charges =  -0.00000
 Mulliken charges with hydrogens summed into heavy atoms:
               1
     1  F   -0.258940
     2  C    0.797221
     3  F   -0.248253
     4  C   -0.057142
     5  C   -0.005422
     6  C   -0.057331
     7  C    0.797940
     8  F   -0.248601
     9  F   -0.257498
    10  F   -0.257514
    11  C   -0.011537
    12  C    0.058562
    13  C    0.044008
    14  C    0.171545
    15  N   -0.443231
    16  C    0.169304
    17  C    0.094955
    18  C   -0.003754
    19  C   -0.010598
    20  C   -0.016266
    21  F   -0.257448
 Electronic spatial extent (au):  <R**2>=           7488.0926
 Charge=             -0.0000 electrons
 Dipole moment (field-independent basis, Debye):
    X=             -1.9081    Y=              1.5809    Z=              1.2318  Tot=              2.7672
 Quadrupole moment (field-independent basis, Debye-Ang):
   XX=           -110.6443   YY=           -122.2808   ZZ=           -117.5860
   XY=             -8.1904   XZ=             -6.5340   YZ=              0.0956
 Traceless Quadrupole moment (field-independent basis, Debye-Ang):
   XX=              6.1928   YY=             -5.4438   ZZ=             -0.7490
   XY=             -8.1904   XZ=             -6.5340   YZ=              0.0956
 Octapole moment (field-independent basis, Debye-Ang**2):
  XXX=             39.7071  YYY=             12.4006  ZZZ=              5.8538  XYY=             27.6837
  XXY=             45.3284  XXZ=             29.9424  XZZ=             37.3588  YZZ=              7.4752
  YYZ=              5.3480  XYZ=              8.1836
 Hexadecapole moment (field-independent basis, Debye-Ang**3):
 XXXX=          -5442.7720 YYYY=          -2628.8127 ZZZZ=           -405.7030 XXXY=           -147.6460
 XXXZ=           -121.3967 YYYX=            -76.3516 YYYZ=            -33.2520 ZZZX=            -10.0486
 ZZZY=            -18.9214 XXYY=          -1504.7280 XXZZ=          -1082.3015 YYZZ=           -506.7294
 XXYZ=            -35.6208 YYXZ=            -21.6351 ZZXY=            -28.4675
 N-N= 1.664997966254D+03 E-N=-6.132661252093D+03  KE= 1.183260387617D+03
 Calling FoFJK, ICntrl=      2127 FMM=F ISym2X=0 I1Cent= 0 IOpClX= 0 NMat=1 NMatS=1 NMatT=0.
 ***** Axes restored to original set *****
 -------------------------------------------------------------------
 Center     Atomic                   Forces (Hartrees/Bohr)
 Number     Number              X              Y              Z
 -------------------------------------------------------------------
      1        9          -0.012446701   -0.000227261    0.005127136
      2        6           0.014719863   -0.025509137   -0.021246210
      3        9          -0.005221457    0.017776804   -0.003279375
      4        6           0.001940873   -0.010190692    0.002235570
      5        6           0.002581471    0.002295107    0.002139730
      6        6          -0.006460321    0.006287380   -0.005922849
      7        6          -0.035407893    0.005608637    0.002306322
      8        9           0.011711383   -0.011621384    0.009162810
      9        9           0.006057177   -0.005492485   -0.010113483
     10        9           0.008145399    0.008716369    0.003247499
     11        6           0.006353057    0.000399441    0.001162636
     12        6          -0.001062959   -0.001425522   -0.001561669
     13        6           0.000015034    0.001390436    0.002885125
     14        6          -0.017562594   -0.013939529   -0.008268282
     15        7          -0.001825685    0.004916117    0.013267980
     16        6           0.023659752    0.013528797   -0.001039347
     17        6          -0.006104401   -0.003665378    0.006980348
     18        6           0.008451221   -0.000325529   -0.001643318
     19        6           0.002011296   -0.000455759   -0.008453844
     20        6          -0.000151638    0.005006565    0.003848631
     21        9           0.006289947    0.004921734    0.009389226
     22        1           0.000608106    0.000598891    0.000557896
     23        1           0.000956955   -0.001413994   -0.001613484
     24        1           0.004084953    0.002132201   -0.001029997
     25        1          -0.002797036   -0.003177852   -0.002276955
     26        1          -0.001699174   -0.000047081   -0.003014268
     27        1          -0.000569642    0.002155714    0.002399287
     28        1          -0.003631018    0.000803709    0.000184399
     29        1          -0.000257909    0.000646793    0.004077915
     30        1          -0.002388060    0.000306908    0.000490570
 -------------------------------------------------------------------
 Cartesian Forces:  Max     0.035407893 RMS     0.008298200

 GradGradGradGradGradGradGradGradGradGradGradGradGradGradGradGradGradGrad
 Berny optimization.
 FormGI is forming the generalized inverse of G from B-inverse, IUseBI=4.
 Internal  Forces:  Max     0.020369140 RMS     0.004696311
 Search for a local minimum.
 Step number   1 out of a maximum of  159
 All quantities printed in internal units (Hartrees-Bohrs-Radians)
 Mixed Optimization -- RFO/linear search
 Second derivative matrix not updated -- first step.
 ITU=  0
     Eigenvalues ---    0.00386   0.00386   0.00537   0.00903   0.01372
     Eigenvalues ---    0.01428   0.01463   0.01680   0.01714   0.02061
     Eigenvalues ---    0.02079   0.02086   0.02087   0.02088   0.02091
     Eigenvalues ---    0.02095   0.02097   0.02119   0.02124   0.02179
     Eigenvalues ---    0.02232   0.07083   0.07171   0.10795   0.10796
     Eigenvalues ---    0.11233   0.11235   0.15998   0.15998   0.15999
     Eigenvalues ---    0.15999   0.16000   0.16000   0.16000   0.16000
     Eigenvalues ---    0.16000   0.23189   0.23409   0.23460   0.23461
     Eigenvalues ---    0.23492   0.23500   0.24993   0.25000   0.25000
     Eigenvalues ---    0.25000   0.25000   0.25000   0.25000   0.25000
     Eigenvalues ---    0.25000   0.25000   0.25000   0.29541   0.29542
     Eigenvalues ---    0.30631   0.33486   0.34719   0.34728   0.34773
     Eigenvalues ---    0.35693   0.35830   0.35835   0.35926   0.35928
     Eigenvalues ---    0.35942   0.41721   0.41793   0.41975   0.43243
     Eigenvalues ---    0.45441   0.45585   0.45627   0.45649   0.45704
     Eigenvalues ---    0.45888   0.51905   0.53072   0.58524   0.58551
     Eigenvalues ---    0.58560   0.58564   0.59047   0.59053
 RFO step:  Lambda=-8.74669908D-03 EMin= 3.85964250D-03
 Linear search not attempted -- first point.
 Iteration  1 RMS(Cart)=  0.02435585 RMS(Int)=  0.00030145
 Iteration  2 RMS(Cart)=  0.00048964 RMS(Int)=  0.00012941
 Iteration  3 RMS(Cart)=  0.00000010 RMS(Int)=  0.00012941
 Variable       Old X    -DE/DX   Delta X   Delta X   Delta X     New X
                                 (Linear)    (Quad)   (Total)
    R1        2.52128   0.01303   0.00000   0.02194   0.02194   2.54322
    R2        2.51697   0.01712   0.00000   0.02857   0.02857   2.54554
    R3        2.88887  -0.00926   0.00000  -0.03043  -0.03043   2.85844
    R4        2.52095   0.01205   0.00000   0.02027   0.02027   2.54122
    R5        2.64445  -0.00598   0.00000  -0.01327  -0.01321   2.63123
    R6        2.64548  -0.00610   0.00000  -0.01313  -0.01313   2.63235
    R7        2.64453  -0.00602   0.00000  -0.01334  -0.01328   2.63125
    R8        2.04565   0.00102   0.00000   0.00279   0.00279   2.04844
    R9        2.88887  -0.00918   0.00000  -0.03019  -0.03019   2.85868
   R10        2.64562  -0.00598   0.00000  -0.01285  -0.01285   2.63277
   R11        2.51703   0.01722   0.00000   0.02875   0.02875   2.54577
   R12        2.52106   0.01257   0.00000   0.02116   0.02116   2.54221
   R13        2.52098   0.01209   0.00000   0.02034   0.02034   2.54132
   R14        2.64626  -0.00031   0.00000  -0.00024  -0.00030   2.64597
   R15        2.04348   0.00231   0.00000   0.00629   0.00629   2.04978
   R16        2.81506  -0.00679   0.00000  -0.01977  -0.01977   2.79529
   R17        2.64597  -0.00033   0.00000  -0.00030  -0.00036   2.64562
   R18        2.65062  -0.00141   0.00000  -0.00328  -0.00332   2.64730
   R19        2.65192  -0.00476   0.00000  -0.00892  -0.00893   2.64300
   R20        2.56397  -0.02037   0.00000  -0.03871  -0.03874   2.52523
   R21        2.04172   0.00455   0.00000   0.01237   0.01237   2.05409
   R22        2.56157  -0.01581   0.00000  -0.03007  -0.03006   2.53151
   R23        2.63910   0.00163   0.00000   0.00353   0.00357   2.64267
   R24        2.04194   0.00476   0.00000   0.01293   0.01293   2.05487
   R25        2.86722  -0.00385   0.00000  -0.01223  -0.01223   2.85499
   R26        2.64223  -0.00532   0.00000  -0.00983  -0.00979   2.63243
   R27        2.06134   0.00170   0.00000   0.00479   0.00479   2.06612
   R28        2.06119   0.00198   0.00000   0.00557   0.00557   2.06676
   R29        2.06045   0.00317   0.00000   0.00889   0.00889   2.06934
   R30        2.04197   0.00403   0.00000   0.01095   0.01095   2.05293
   R31        2.04340   0.00242   0.00000   0.00660   0.00660   2.05000
    A1        1.89606  -0.00748   0.00000  -0.02851  -0.02881   1.86725
    A2        1.93701   0.00255   0.00000   0.00902   0.00885   1.94586
    A3        1.88901  -0.00260   0.00000  -0.01202  -0.01203   1.87698
    A4        1.89999   0.01230   0.00000   0.04860   0.04829   1.94828
    A5        1.89517  -0.00663   0.00000  -0.02402  -0.02428   1.87089
    A6        1.94557   0.00129   0.00000   0.00476   0.00462   1.95018
    A7        2.10572  -0.00295   0.00000  -0.01147  -0.01177   2.09395
    A8        2.09920  -0.00291   0.00000  -0.01134  -0.01164   2.08757
    A9        2.07826   0.00586   0.00000   0.02284   0.02273   2.10099
   A10        2.10696  -0.00523   0.00000  -0.02350  -0.02330   2.08366
   A11        2.08823   0.00259   0.00000   0.01160   0.01150   2.09973
   A12        2.08799   0.00264   0.00000   0.01190   0.01180   2.09979
   A13        2.10544  -0.00307   0.00000  -0.01198  -0.01228   2.09316
   A14        2.07838   0.00594   0.00000   0.02321   0.02309   2.10147
   A15        2.09936  -0.00287   0.00000  -0.01123  -0.01153   2.08783
   A16        1.89975   0.01215   0.00000   0.04793   0.04763   1.94738
   A17        1.93726   0.00253   0.00000   0.00912   0.00895   1.94621
   A18        1.94527   0.00123   0.00000   0.00443   0.00429   1.94956
   A19        1.89619  -0.00736   0.00000  -0.02785  -0.02816   1.86803
   A20        1.89519  -0.00661   0.00000  -0.02429  -0.02453   1.87066
   A21        1.88916  -0.00251   0.00000  -0.01146  -0.01147   1.87769
   A22        2.11829  -0.00365   0.00000  -0.01393  -0.01390   2.10439
   A23        2.08188   0.00175   0.00000   0.00655   0.00653   2.08841
   A24        2.08289   0.00189   0.00000   0.00733   0.00731   2.09020
   A25        2.10906  -0.00035   0.00000  -0.00261  -0.00260   2.10646
   A26        2.06593   0.00059   0.00000   0.00482   0.00479   2.07072
   A27        2.10819  -0.00024   0.00000  -0.00221  -0.00219   2.10600
   A28        2.12043  -0.00155   0.00000  -0.00715  -0.00714   2.11329
   A29        2.12079   0.00029   0.00000  -0.00006  -0.00005   2.12075
   A30        2.04196   0.00126   0.00000   0.00721   0.00718   2.04915
   A31        2.15871   0.00195   0.00000   0.00502   0.00496   2.16367
   A32        2.11291  -0.00224   0.00000  -0.01003  -0.01000   2.10291
   A33        2.01144   0.00029   0.00000   0.00502   0.00505   2.01649
   A34        2.05685  -0.00122   0.00000  -0.01294  -0.01296   2.04389
   A35        2.14466   0.00674   0.00000   0.02676   0.02681   2.17147
   A36        2.02454  -0.00290   0.00000  -0.01056  -0.01059   2.01395
   A37        2.11398  -0.00385   0.00000  -0.01619  -0.01622   2.09776
   A38        2.11056   0.00231   0.00000   0.00750   0.00740   2.11796
   A39        2.06302  -0.00558   0.00000  -0.01837  -0.01835   2.04467
   A40        2.10939   0.00328   0.00000   0.01127   0.01117   2.12056
   A41        1.93977  -0.00052   0.00000  -0.00133  -0.00136   1.93841
   A42        1.93506   0.00003   0.00000   0.00322   0.00320   1.93826
   A43        1.93119   0.00203   0.00000   0.00717   0.00717   1.93837
   A44        1.85949   0.00207   0.00000   0.02165   0.02159   1.88108
   A45        1.90018  -0.00194   0.00000  -0.01723  -0.01723   1.88295
   A46        1.89612  -0.00176   0.00000  -0.01377  -0.01377   1.88235
   A47        2.10114  -0.00316   0.00000  -0.00769  -0.00766   2.09349
   A48        2.09719   0.00101   0.00000   0.00046   0.00043   2.09762
   A49        2.08478   0.00214   0.00000   0.00715   0.00712   2.09190
   A50        2.11855  -0.00352   0.00000  -0.01344  -0.01342   2.10513
   A51        2.08237   0.00155   0.00000   0.00547   0.00546   2.08783
   A52        2.08215   0.00196   0.00000   0.00791   0.00790   2.09005
    D1       -2.56452  -0.00019   0.00000  -0.01759  -0.01722  -2.58175
    D2        0.57635   0.00075   0.00000   0.02304   0.02291   0.59926
    D3        1.63269  -0.00032   0.00000  -0.01877  -0.01854   1.61414
    D4       -1.50963   0.00061   0.00000   0.02185   0.02159  -1.48804
    D5       -0.45744  -0.00088   0.00000  -0.02345  -0.02330  -0.48074
    D6        2.68343   0.00006   0.00000   0.01718   0.01683   2.70026
    D7        3.13999   0.00100   0.00000   0.04015   0.04035  -3.10284
    D8       -0.00142   0.00100   0.00000   0.04006   0.04027   0.03884
    D9       -0.00089   0.00008   0.00000   0.00002  -0.00008  -0.00097
   D10        3.14088   0.00007   0.00000  -0.00007  -0.00016   3.14072
   D11       -3.13928  -0.00106   0.00000  -0.03912  -0.03925   3.10465
   D12        0.01810  -0.00088   0.00000  -0.03496  -0.03515  -0.01705
   D13        0.00160  -0.00014   0.00000   0.00085   0.00103   0.00263
   D14       -3.12420   0.00004   0.00000   0.00502   0.00514  -3.11907
   D15        3.14094   0.00100   0.00000   0.04021   0.04042  -3.10183
   D16       -0.00055   0.00006   0.00000  -0.00067  -0.00077  -0.00132
   D17       -0.00083   0.00100   0.00000   0.04029   0.04050   0.03967
   D18        3.14086   0.00006   0.00000  -0.00058  -0.00068   3.14018
   D19        1.62929  -0.00039   0.00000  -0.01961  -0.01938   1.60991
   D20       -2.56776  -0.00020   0.00000  -0.01797  -0.01760  -2.58536
   D21       -0.46052  -0.00082   0.00000  -0.02328  -0.02311  -0.48364
   D22       -1.51241   0.00056   0.00000   0.02176   0.02148  -1.49093
   D23        0.57373   0.00075   0.00000   0.02340   0.02326   0.59699
   D24        2.68096   0.00013   0.00000   0.01809   0.01775   2.69871
   D25        0.00135  -0.00015   0.00000   0.00043   0.00062   0.00197
   D26       -3.12334   0.00002   0.00000   0.00408   0.00421  -3.11913
   D27       -3.14014  -0.00109   0.00000  -0.04030  -0.04043   3.10261
   D28        0.01836  -0.00092   0.00000  -0.03665  -0.03684  -0.01849
   D29        3.14108   0.00006   0.00000  -0.00109  -0.00117   3.13991
   D30       -0.00067   0.00010   0.00000   0.00043   0.00034  -0.00032
   D31       -0.01742  -0.00011   0.00000  -0.00475  -0.00478  -0.02220
   D32        3.12401  -0.00007   0.00000  -0.00323  -0.00326   3.12075
   D33       -0.69692   0.00036   0.00000   0.01984   0.01984  -0.67708
   D34        2.44513   0.00036   0.00000   0.02033   0.02033   2.46545
   D35        2.44483   0.00032   0.00000   0.01829   0.01829   2.46313
   D36       -0.69631   0.00032   0.00000   0.01878   0.01878  -0.67753
   D37       -0.00083   0.00006   0.00000  -0.00105  -0.00114  -0.00196
   D38        3.12498  -0.00013   0.00000  -0.00523  -0.00527   3.11971
   D39        3.14061   0.00010   0.00000   0.00047   0.00038   3.14099
   D40       -0.01677  -0.00009   0.00000  -0.00372  -0.00375  -0.02052
   D41        3.14076  -0.00015   0.00000  -0.00390  -0.00394   3.13682
   D42       -0.01910  -0.00009   0.00000  -0.00324  -0.00325  -0.02235
   D43       -0.00127  -0.00015   0.00000  -0.00437  -0.00440  -0.00567
   D44        3.12206  -0.00009   0.00000  -0.00371  -0.00372   3.11834
   D45        3.13880   0.00005   0.00000   0.00239   0.00235   3.14115
   D46       -0.01596  -0.00017   0.00000  -0.00501  -0.00502  -0.02098
   D47       -0.00236   0.00006   0.00000   0.00286   0.00282   0.00046
   D48        3.12607  -0.00016   0.00000  -0.00454  -0.00455   3.12151
   D49        0.00043   0.00011   0.00000   0.00278   0.00279   0.00322
   D50       -3.12386   0.00008   0.00000   0.00230   0.00228  -3.12158
   D51        0.00416   0.00004   0.00000   0.00043   0.00046   0.00463
   D52       -3.13852   0.00006   0.00000   0.00163   0.00166  -3.13686
   D53       -3.12713  -0.00065   0.00000  -0.02260  -0.02251   3.13355
   D54       -0.00765  -0.00011   0.00000  -0.00170  -0.00176  -0.00941
   D55        0.01561  -0.00067   0.00000  -0.02386  -0.02377  -0.00816
   D56        3.13509  -0.00013   0.00000  -0.00296  -0.00302   3.13207
   D57        0.49170  -0.00107   0.00000  -0.00885  -0.00877   0.48293
   D58        2.55645   0.00120   0.00000   0.01942   0.01954   2.57599
   D59       -1.62165   0.00036   0.00000   0.00899   0.00909  -1.61256
   D60       -2.62719  -0.00151   0.00000  -0.02993  -0.03005  -2.65724
   D61       -0.56245   0.00076   0.00000  -0.00166  -0.00174  -0.56418
   D62        1.54264  -0.00008   0.00000  -0.01209  -0.01219   1.53045
   D63        0.00656   0.00002   0.00000  -0.00019  -0.00014   0.00642
   D64       -3.12195   0.00024   0.00000   0.00721   0.00726  -3.11469
   D65        3.12606   0.00054   0.00000   0.02065   0.02059  -3.13653
   D66       -0.00245   0.00077   0.00000   0.02805   0.02799   0.02554
         Item               Value     Threshold  Converged?
 Maximum Force            0.020369     0.000450     NO 
 RMS     Force            0.004696     0.000300     NO 
 Maximum Displacement     0.083929     0.001800     NO 
 RMS     Displacement     0.024461     0.001200     NO 
 Predicted change in Energy=-4.577317D-03
 GradGradGradGradGradGradGradGradGradGradGradGradGradGradGradGradGradGrad

                          Input orientation:                          
 ---------------------------------------------------------------------
 Center     Atomic      Atomic             Coordinates (Angstroms)
 Number     Number       Type             X           Y           Z
 ---------------------------------------------------------------------
      1          9           0       -3.927877    1.832733    2.454412
      2          6           0       -2.735672    2.172307    1.930437
      3          9           0       -2.926051    3.298580    1.216442
      4          6           0       -2.168644    1.059980    1.076487
      5          6           0       -0.790546    0.877644    0.996825
      6          6           0       -0.280024   -0.120271    0.170807
      7          6           0        1.212012   -0.363241    0.114218
      8          9           0        1.594651   -1.304135    0.999181
      9          9           0        1.596870   -0.787479   -1.103028
     10          9           0        1.908507    0.752468    0.394576
     11          6           0       -1.138324   -0.931016   -0.568806
     12          6           0       -2.525290   -0.753813   -0.495035
     13          6           0       -3.438894   -1.611707   -1.280781
     14          6           0       -3.119195   -2.002308   -2.587578
     15          7           0       -3.898064   -2.779017   -3.346371
     16          6           0       -5.052008   -3.196737   -2.809251
     17          6           0       -5.488602   -2.869717   -1.521584
     18          6           0       -6.810005   -3.371882   -0.988446
     19          6           0       -4.652573   -2.063423   -0.752519
     20          6           0       -3.029908    0.253162    0.336448
     21          9           0       -1.917633    2.482553    2.951678
     22          1           0       -0.121368    1.506697    1.572602
     23          1           0       -0.728545   -1.718374   -1.192273
     24          1           0       -2.198768   -1.662262   -3.055231
     25          1           0       -5.661586   -3.830543   -3.448876
     26          1           0       -7.089244   -4.318580   -1.458757
     27          1           0       -6.760627   -3.537302    0.091525
     28          1           0       -7.611606   -2.651217   -1.181343
     29          1           0       -4.936824   -1.803087    0.263162
     30          1           0       -4.100461    0.419588    0.391578
 ---------------------------------------------------------------------
                    Distance matrix (angstroms):
                    1          2          3          4          5
     1  F    0.000000
     2  C    1.345814   0.000000
     3  F    2.164471   1.347043   0.000000
     4  C    2.364472   1.512621   2.367400   0.000000
     5  C    3.588817   2.516208   3.235668   1.392390   0.000000
     6  C    4.726088   3.792416   4.447848   2.404191   1.392398
     7  C    6.059478   5.031089   5.634483   3.792144   2.515755
     8  F    6.515824   5.630682   6.455148   4.444931   3.232542
     9  F    7.074159   6.060789   6.521705   4.726784   3.589118
    10  F    6.282776   5.093448   5.525496   4.145205   2.768259
    11  C    4.955781   4.292825   4.926719   2.780757   2.417312
    12  C    4.166139   3.806488   4.417200   2.426257   2.810095
    13  C    5.104404   5.012504   5.532635   3.782612   4.289301
    14  C    6.386170   6.163356   6.527426   4.868934   5.154093
    15  N    7.410682   7.328811   7.661675   6.106592   6.472340
    16  C    7.366505   7.527064   7.931901   6.444563   7.017611
    17  C    6.352751   6.702020   7.218819   5.763212   6.515891
    18  C    6.873714   7.473827   8.027559   6.741482   7.631098
    19  C    5.098002   5.367883   5.967308   4.389853   5.159974
    20  C    2.790549   2.512069   3.171711   1.392978   2.416779
    21  F    2.170397   1.344758   2.166530   2.367079   2.769027
    22  H    3.920893   2.721335   3.347229   2.153375   1.083986
    23  H    6.012022   5.377479   5.983375   3.865283   3.396366
    24  H    6.749887   6.312612   6.586812   4.947990   4.985315
    25  H    8.362252   8.575091   8.948338   7.523082   8.102982
    26  H    7.946432   8.518910   9.083502   7.718074   8.526677
    27  H    6.514981   7.223675   7.918250   6.572020   7.480186
    28  H    6.847947   7.531553   7.943796   6.963951   7.982740
    29  H    4.363340   4.840313   5.565875   4.064661   4.991614
    30  H    2.506401   2.702361   3.216868   2.147351   3.395832
                    6          7          8          9         10
     6  C    0.000000
     7  C    1.512749   0.000000
     8  F    2.366885   1.347165   0.000000
     9  F    2.364435   1.345281   2.164768   0.000000
    10  F    2.366731   1.344809   2.166488   2.170570   0.000000
    11  C    1.393202   2.512562   3.172846   2.790570   3.611842
    12  C    2.426096   3.806726   4.416951   4.166892   4.766429
    13  C    3.782849   5.013544   5.534385   5.105866   6.082010
    14  C    4.383109   5.361492   5.964280   5.091264   6.462184
    15  N    5.703480   6.627559   7.157446   6.260441   7.757728
    16  C    6.412271   7.470832   7.890766   7.274841   8.620296
    17  C    6.128044   7.338699   7.679700   7.396947   8.456307
    18  C    7.386304   8.638319   8.880568   8.795898   9.743483
    19  C    4.873146   6.167269   6.532441   6.387990   7.231379
    20  C    2.780063   4.292228   4.924524   4.956016   4.963933
    21  F    4.146046   5.093564   5.521539   6.283747   4.916433
    22  H    2.153422   2.720561   3.342800   3.921043   2.465157
    23  H    2.147811   2.703529   3.220451   2.506409   3.946796
    24  H    4.057910   4.833869   5.563860   4.356973   5.882330
    25  H    7.471910   8.483171   8.878116   8.212700   9.647924
    26  H    8.163746   9.328977   9.515166   9.383165  10.493326
    27  H    7.326704   8.581267   8.696065   8.878977   9.677182
    28  H    7.873125   9.207038   9.556385   9.395514  10.232358
    29  H    4.952392   6.316924   6.591726   6.751822   7.307989
    30  H    3.864702   5.376999   5.981196   6.012523   6.018182
                   11         12         13         14         15
    11  C    0.000000
    12  C    1.400185   0.000000
    13  C    2.502574   1.479206   0.000000
    14  C    3.024394   2.508026   1.400891   0.000000
    15  N    4.329682   3.757137   2.416633   1.336294   0.000000
    16  C    5.046783   4.208061   2.729593   2.282886   1.339617
    17  C    4.857085   3.783130   2.416998   2.739130   2.422372
    18  C    6.188852   5.045446   3.814192   4.249121   3.793508
    19  C    3.696761   2.511316   1.398614   2.392158   2.794535
    20  C    2.408288   1.400001   2.502086   3.693920   4.848810
    21  F    4.965237   4.766880   6.082015   7.227799   8.442254
    22  H    3.400333   3.894081   5.373287   6.213467   7.538373
    23  H    1.084695   2.155183   2.713892   2.782571   3.976299
    24  H    2.800281   2.736147   2.165443   1.086976   2.054145
    25  H    6.096062   5.294129   3.816311   3.247773   2.055778
    26  H    6.905147   5.870775   4.547954   4.732931   4.014594
    27  H    6.232099   5.101954   4.077382   4.774287   4.537443
    28  H    6.725896   5.471908   4.301394   4.751877   4.300473
    29  H    3.985133   2.737031   2.159671   3.386766   3.880746
    30  H    3.394219   2.155021   2.713045   3.962806   4.923850
                   16         17         18         19         20
    16  C    0.000000
    17  C    1.398443   0.000000
    18  C    2.537038   1.510798   0.000000
    19  C    2.382036   1.393024   2.534214   0.000000
    20  C    5.087840   4.387463   5.402353   3.030751   0.000000
    21  F    8.675653   7.836370   8.586867   6.470461   3.612031
    22  H    8.101490   7.585129   8.665873   6.219627   3.399857
    23  H    4.846908   4.908379   6.305537   3.963639   3.394145
    24  H    3.249015   3.825315   5.334595   3.388889   3.982855
    25  H    1.087389   2.160455   2.753716   3.378041   6.158819
    26  H    2.689367   2.159908   1.093346   3.394388   6.371954
[...]
 Alpha virt. eigenvalues --    3.95734   3.96091   3.96652   3.96789   3.97933
 Alpha virt. eigenvalues --    3.99307   3.99492   4.02262   4.03968   4.04230
 Alpha virt. eigenvalues --    4.06307   4.06850   4.07150   4.07921   4.08392
 Alpha virt. eigenvalues --    4.09971   4.10647   4.12701   4.12895   4.14079
 Alpha virt. eigenvalues --    4.14806   4.16792   4.17003   4.18268   4.18938
 Alpha virt. eigenvalues --    4.21643   4.22847   4.24722   4.27285   4.28954
 Alpha virt. eigenvalues --    4.29433   4.30236   4.31045   4.33717   4.37259
 Alpha virt. eigenvalues --    4.37639   4.39321   4.41922   4.43399   4.45779
 Alpha virt. eigenvalues --    4.48692   4.52438   4.53005   4.55361   4.57060
 Alpha virt. eigenvalues --    4.60441   4.62336   4.62712   4.64151   4.68030
 Alpha virt. eigenvalues --    4.70830   4.72355   4.79149   4.83376   4.85255
 Alpha virt. eigenvalues --    4.88535   4.91481   4.92974   4.97578   5.00315
 Alpha virt. eigenvalues --    5.01566   5.07384   5.10464   5.12628   5.14862
 Alpha virt. eigenvalues --    5.16940   5.19179   5.19773   5.22417   5.24919
 Alpha virt. eigenvalues --    5.25897   5.27499   5.32772   5.35439   5.42084
 Alpha virt. eigenvalues --    5.43026   5.45528   5.47325   5.49575   5.50600
 Alpha virt. eigenvalues --    5.56448   5.58743   5.66565   5.75729   5.99453
 Alpha virt. eigenvalues --    6.82487   6.82607   6.87173   6.87277   6.87404
 Alpha virt. eigenvalues --    6.87490   6.87676   6.87733   6.87827   6.87878
 Alpha virt. eigenvalues --    6.88319   6.88377   6.88566   6.88910   6.89035
 Alpha virt. eigenvalues --    6.89110   6.89885   6.90407   6.97562   6.97982
 Alpha virt. eigenvalues --    7.00050   7.00103   7.00423   7.00887   7.05177
 Alpha virt. eigenvalues --    7.05452   7.06335   7.06770   7.12657   7.13113
 Alpha virt. eigenvalues --    7.33756   7.33968   7.34428   7.35021   7.37931
 Alpha virt. eigenvalues --    7.38441   7.48464   7.49290   7.55386   7.56185
 Alpha virt. eigenvalues --    7.56464   7.56708   8.28839   8.29177   8.30614
 Alpha virt. eigenvalues --    8.31275   8.32459   8.33035   8.45468   8.45535
 Alpha virt. eigenvalues --    8.45643   8.45811   8.54114   8.55905   8.67304
 Alpha virt. eigenvalues --    8.67862   8.74367   8.74739   8.75222   8.75369
 Alpha virt. eigenvalues --    8.85030   8.85160   8.91044   8.91660   8.98039
 Alpha virt. eigenvalues --    8.98192   8.99054   8.99247   9.05222   9.06374
 Alpha virt. eigenvalues --    9.09809   9.11146  22.26541  22.49013  22.60854
 Alpha virt. eigenvalues --   22.80105  22.80756  22.82920  22.87101  22.91397
 Alpha virt. eigenvalues --   22.94990  23.07840  23.10154  23.11331  23.26072
 Alpha virt. eigenvalues --   23.42723  32.53895  57.35954  57.36975  57.37658
 Alpha virt. eigenvalues --   57.38947  57.43644  57.51938
          Condensed to atoms (all electrons):
               1          2          3          4          5          6
     1  F    8.997972   0.326270  -0.048185  -0.072971   0.004790  -0.000127
     2  C    0.326270   4.132636   0.348646   0.450892  -0.044244   0.003483
     3  F   -0.048185   0.348646   8.993969  -0.078203   0.002639  -0.000906
     4  C   -0.072971   0.450892  -0.078203   5.183667   0.370114  -0.012330
     5  C    0.004790  -0.044244   0.002639   0.370114   5.236274   0.373556
     6  C   -0.000127   0.003483  -0.000906  -0.012330   0.373556   5.184602
     7  C   -0.000001  -0.000224  -0.000014   0.003177  -0.042306   0.450568
     8  F   -0.000000  -0.000014  -0.000000  -0.000923   0.002602  -0.077339
     9  F   -0.000000  -0.000001  -0.000000  -0.000176   0.004938  -0.073391
    10  F    0.000000  -0.000058   0.000000   0.002700   0.009223  -0.075664
    11  C   -0.000321   0.002100   0.000311  -0.060093  -0.041758   0.340101
    12  C    0.002232   0.002632  -0.001073  -0.028432  -0.050651  -0.034583
    13  C    0.000413  -0.001004  -0.000166   0.010597   0.000912   0.014562
    14  C    0.000003   0.000017  -0.000001  -0.000165  -0.000404   0.004988
    15  N   -0.000000  -0.000001   0.000000   0.000017   0.000005  -0.000100
    16  C    0.000000   0.000001   0.000000   0.000003   0.000002  -0.000046
    17  C   -0.000000  -0.000022  -0.000000  -0.000374   0.000013   0.000201
    18  C   -0.000000  -0.000001  -0.000000   0.000008   0.000000   0.000002
    19  C   -0.000302   0.000241   0.000014   0.004023   0.000094  -0.001453
    20  C    0.006397  -0.041257   0.002470   0.344114  -0.039476  -0.059388
    21  F   -0.043146   0.328790  -0.047716  -0.075873   0.009420   0.002612
    22  H    0.000201  -0.007036   0.000137  -0.022325   0.388976  -0.022300
    23  H   -0.000001   0.000057   0.000000  -0.000261   0.006261  -0.008348
    24  H    0.000000  -0.000002  -0.000000  -0.000014  -0.000165   0.000731
    25  H   -0.000000  -0.000000   0.000000   0.000000   0.000000  -0.000000
    26  H   -0.000000   0.000000   0.000000  -0.000000  -0.000000   0.000000
    27  H    0.000000  -0.000000   0.000000   0.000003   0.000000   0.000001
    28  H    0.000000  -0.000000   0.000000  -0.000007   0.000000  -0.000001
    29  H    0.000205   0.000171   0.000001   0.001112  -0.000254   0.000085
    30  H    0.007510  -0.004838   0.000258  -0.009781   0.006892  -0.000571
               7          8          9         10         11         12
     1  F   -0.000001  -0.000000  -0.000000   0.000000  -0.000321   0.002232
     2  C   -0.000224  -0.000014  -0.000001  -0.000058   0.002100   0.002632
     3  F   -0.000014  -0.000000  -0.000000   0.000000   0.000311  -0.001073
     4  C    0.003177  -0.000923  -0.000176   0.002700  -0.060093  -0.028432
     5  C   -0.042306   0.002602   0.004938   0.009223  -0.041758  -0.050651
     6  C    0.450568  -0.077339  -0.073391  -0.075664   0.340101  -0.034583
     7  C    4.130942   0.347897   0.327267   0.328392  -0.040885   0.002473
     8  F    0.347897   8.994912  -0.047988  -0.047787   0.001974  -0.001103
     9  F    0.327267  -0.047988   8.994024  -0.043046   0.007019   0.002215
    10  F    0.328392  -0.047787  -0.043046   8.991905   0.004820  -0.000305
    11  C   -0.040885   0.001974   0.007019   0.004820   5.310278   0.440241
    12  C    0.002473  -0.001103   0.002215  -0.000305   0.440241   5.011947
    13  C   -0.000853  -0.000155   0.000403   0.000007  -0.088244   0.262565
    14  C    0.000214   0.000007  -0.000243  -0.000001  -0.000076  -0.046418
    15  N   -0.000003  -0.000000   0.000000  -0.000000  -0.000652   0.006153
    16  C    0.000001   0.000000  -0.000000   0.000000   0.000676   0.000463
    17  C   -0.000003  -0.000000  -0.000000  -0.000000  -0.002034   0.005227
    18  C   -0.000000  -0.000000   0.000000  -0.000000  -0.000012  -0.001358
    19  C    0.000030  -0.000000   0.000002   0.000000   0.016901  -0.105663
    20  C    0.002019   0.000310  -0.000288  -0.000191  -0.026206   0.436848
    21  F   -0.000060   0.000000   0.000000   0.000001  -0.000178  -0.000321
    22  H   -0.006708   0.000167   0.000209   0.007099   0.007340   0.000492
    23  H   -0.004491   0.000222   0.007392   0.000275   0.370852  -0.024423
    24  H    0.000109   0.000000   0.000204   0.000000   0.000387   0.001475
    25  H   -0.000000   0.000000  -0.000000   0.000000  -0.000007   0.000065
    26  H    0.000000   0.000000   0.000000   0.000000   0.000000   0.000029
    27  H   -0.000000   0.000000  -0.000000   0.000000   0.000001  -0.000329
    28  H   -0.000000   0.000000  -0.000000  -0.000000  -0.000003   0.000122
    29  H    0.000002  -0.000000   0.000000  -0.000000   0.000386   0.002779
    30  H    0.000052   0.000000  -0.000001  -0.000001   0.005455  -0.024061
              13         14         15         16         17         18
     1  F    0.000413   0.000003  -0.000000   0.000000  -0.000000  -0.000000
     2  C   -0.001004   0.000017  -0.000001   0.000001  -0.000022  -0.000001
     3  F   -0.000166  -0.000001   0.000000   0.000000  -0.000000  -0.000000
     4  C    0.010597  -0.000165   0.000017   0.000003  -0.000374   0.000008
     5  C    0.000912  -0.000404   0.000005   0.000002   0.000013   0.000000
     6  C    0.014562   0.004988  -0.000100  -0.000046   0.000201   0.000002
     7  C   -0.000853   0.000214  -0.000003   0.000001  -0.000003  -0.000000
     8  F   -0.000155   0.000007  -0.000000   0.000000  -0.000000  -0.000000
     9  F    0.000403  -0.000243   0.000000  -0.000000  -0.000000   0.000000
    10  F    0.000007  -0.000001  -0.000000   0.000000  -0.000000  -0.000000
    11  C   -0.088244  -0.000076  -0.000652   0.000676  -0.002034  -0.000012
    12  C    0.262565  -0.046418   0.006153   0.000463   0.005227  -0.001358
    13  C    5.200174   0.436934  -0.033215  -0.028984  -0.027095   0.012881
    14  C    0.436934   4.921531   0.508955  -0.119954  -0.026006  -0.001375
    15  N   -0.033215   0.508955   6.409977   0.501799  -0.034305   0.009570
    16  C   -0.028984  -0.119954   0.501799   4.876646   0.496655  -0.044971
    17  C   -0.027095  -0.026006  -0.034305   0.496655   5.131026   0.260296
    18  C    0.012881  -0.001375   0.009570  -0.044971   0.260296   5.090770
    19  C    0.404970  -0.032851  -0.088522  -0.060004   0.382520  -0.094198
    20  C   -0.093780   0.008230  -0.000758   0.000524   0.002139   0.000213
    21  F    0.000006   0.000000   0.000000  -0.000000   0.000000  -0.000000
    22  H    0.000185  -0.000002   0.000000  -0.000000   0.000000   0.000000
    23  H    0.005199  -0.001260  -0.000007  -0.000007  -0.000134   0.000001
    24  H   -0.083753   0.443127  -0.028938   0.008603  -0.001696   0.000108
    25  H   -0.001838   0.007880  -0.032955   0.440895  -0.081521  -0.002903
    26  H   -0.001297   0.000530   0.000151  -0.010798  -0.058195   0.424537
    27  H    0.000798   0.000094  -0.000276   0.001146  -0.040964   0.420852
    28  H   -0.001090   0.000133  -0.000305   0.000242  -0.031359   0.408939
    29  H   -0.044973   0.003734  -0.002199   0.003332  -0.027128  -0.002740
    30  H    0.001162   0.000196  -0.000061   0.000004   0.000831   0.000120
              19         20         21         22         23         24
     1  F   -0.000302   0.006397  -0.043146   0.000201  -0.000001   0.000000
     2  C    0.000241  -0.041257   0.328790  -0.007036   0.000057  -0.000002
     3  F    0.000014   0.002470  -0.047716   0.000137   0.000000  -0.000000
     4  C    0.004023   0.344114  -0.075873  -0.022325  -0.000261  -0.000014
     5  C    0.000094  -0.039476   0.009420   0.388976   0.006261  -0.000165
     6  C   -0.001453  -0.059388   0.002612  -0.022300  -0.008348   0.000731
     7  C    0.000030   0.002019  -0.000060  -0.006708  -0.004491   0.000109
     8  F   -0.000000   0.000310   0.000000   0.000167   0.000222   0.000000
     9  F    0.000002  -0.000288   0.000000   0.000209   0.007392   0.000204
    10  F    0.000000  -0.000191   0.000001   0.007099   0.000275   0.000000
    11  C    0.016901  -0.026206  -0.000178   0.007340   0.370852   0.000387
    12  C   -0.105663   0.436848  -0.000321   0.000492  -0.024423   0.001475
    13  C    0.404970  -0.093780   0.000006   0.000185   0.005199  -0.083753
    14  C   -0.032851   0.008230   0.000000  -0.000002  -0.001260   0.443127
    15  N   -0.088522  -0.000758   0.000000   0.000000  -0.000007  -0.028938
    16  C   -0.060004   0.000524  -0.000000  -0.000000  -0.000007   0.008603
    17  C    0.382520   0.002139   0.000000   0.000000  -0.000134  -0.001696
    18  C   -0.094198   0.000213  -0.000000   0.000000   0.000001   0.000108
    19  C    5.322120   0.007348  -0.000002  -0.000008   0.001038   0.003916
    20  C    0.007348   5.307085   0.004815   0.007313   0.005078   0.000550
    21  F   -0.000002   0.004815   8.991324   0.007123  -0.000001  -0.000000
    22  H   -0.000008   0.007313   0.007123   0.445140  -0.000145  -0.000001
    23  H    0.001038   0.005078  -0.000001  -0.000145   0.439678  -0.003122
    24  H    0.003916   0.000550  -0.000000  -0.000001  -0.003122   0.494133
    25  H    0.008538  -0.000011  -0.000000   0.000000  -0.000002   0.000037
    26  H    0.018698  -0.000002   0.000000  -0.000000  -0.000000  -0.000000
    27  H   -0.011637   0.000057  -0.000000  -0.000000   0.000001  -0.000004
    28  H   -0.011942  -0.000067   0.000000   0.000000  -0.000000  -0.000001
    29  H    0.409470   0.002438  -0.000000  -0.000002   0.000057  -0.000222
    30  H    0.003141   0.369812   0.000288  -0.000146  -0.000167   0.000033
              25         26         27         28         29         30
     1  F   -0.000000  -0.000000   0.000000   0.000000   0.000205   0.007510
     2  C   -0.000000   0.000000  -0.000000  -0.000000   0.000171  -0.004838
     3  F    0.000000   0.000000   0.000000   0.000000   0.000001   0.000258
     4  C    0.000000  -0.000000   0.000003  -0.000007   0.001112  -0.009781
     5  C    0.000000  -0.000000   0.000000   0.000000  -0.000254   0.006892
     6  C   -0.000000   0.000000   0.000001  -0.000001   0.000085  -0.000571
     7  C   -0.000000   0.000000  -0.000000  -0.000000   0.000002   0.000052
     8  F    0.000000   0.000000   0.000000   0.000000  -0.000000   0.000000
     9  F   -0.000000   0.000000  -0.000000  -0.000000   0.000000  -0.000001
    10  F    0.000000   0.000000   0.000000  -0.000000  -0.000000  -0.000001
    11  C   -0.000007   0.000000   0.000001  -0.000003   0.000386   0.005455
    12  C    0.000065   0.000029  -0.000329   0.000122   0.002779  -0.024061
    13  C   -0.001838  -0.001297   0.000798  -0.001090  -0.044973   0.001162
    14  C    0.007880   0.000530   0.000094   0.000133   0.003734   0.000196
    15  N   -0.032955   0.000151  -0.000276  -0.000305  -0.002199  -0.000061
    16  C    0.440895  -0.010798   0.001146   0.000242   0.003332   0.000004
    17  C   -0.081521  -0.058195  -0.040964  -0.031359  -0.027128   0.000831
    18  C   -0.002903   0.424537   0.420852   0.408939  -0.002740   0.000120
    19  C    0.008538   0.018698  -0.011637  -0.011942   0.409470   0.003141
    20  C   -0.000011  -0.000002   0.000057  -0.000067   0.002438   0.369812
    21  F   -0.000000   0.000000  -0.000000   0.000000  -0.000000   0.000288
    22  H    0.000000  -0.000000  -0.000000   0.000000  -0.000002  -0.000146
    23  H   -0.000002  -0.000000   0.000001  -0.000000   0.000057  -0.000167
    24  H    0.000037  -0.000000  -0.000004  -0.000001  -0.000222   0.000033
    25  H    0.516575   0.001901  -0.000110  -0.000008  -0.000231  -0.000001
    26  H    0.001901   0.522256  -0.022728  -0.021896   0.000121  -0.000004
    27  H   -0.000110  -0.022728   0.525582  -0.034775  -0.000425   0.000021
    28  H   -0.000008  -0.021896  -0.034775   0.526976   0.000551  -0.000009
    29  H   -0.000231   0.000121  -0.000425   0.000551   0.475416  -0.001887
    30  H   -0.000001  -0.000004   0.000021  -0.000009  -0.001887   0.447030
 Mulliken charges:
               1
     1  F   -0.180938
     2  C    0.502765
     3  F   -0.172182
     4  C   -0.008499
     5  C   -0.197451
     6  C   -0.008947
     7  C    0.502407
     8  F   -0.172782
     9  F   -0.178538
    10  F   -0.177370
    11  C   -0.248374
    12  C    0.140763
    13  C    0.054679
    14  C   -0.107816
    15  N   -0.214330
    16  C   -0.066229
    17  C    0.051930
    18  C   -0.480738
    19  C   -0.176484
    20  C   -0.246339
    21  F   -0.177083
    22  H    0.194292
    23  H    0.206258
    24  H    0.164503
    25  H    0.143694
    26  H    0.146695
    27  H    0.162694
    28  H    0.164498
    29  H    0.180199
    30  H    0.198720
 Sum of Mulliken charges =  -0.00000
 Mulliken charges with hydrogens summed into heavy atoms:
               1
     1  F   -0.180938
     2  C    0.502765
     3  F   -0.172182
     4  C   -0.008499
     5  C   -0.003159
     6  C   -0.008947
     7  C    0.502407
     8  F   -0.172782
     9  F   -0.178538
    10  F   -0.177370
    11  C   -0.042117
    12  C    0.140763
    13  C    0.054679
    14  C    0.056688
    15  N   -0.214330
    16  C    0.077466
    17  C    0.051930
    18  C   -0.006851
    19  C    0.003716
    20  C   -0.047620
    21  F   -0.177083
 Electronic spatial extent (au):  <R**2>=           7445.6317
 Charge=             -0.0000 electrons
 Dipole moment (field-independent basis, Debye):
    X=             -2.8390    Y=              1.5299    Z=              1.2215  Tot=              3.4486
 Quadrupole moment (field-independent basis, Debye-Ang):
   XX=           -113.5827   YY=           -128.2432   ZZ=           -121.3228
   XY=             -8.1435   XZ=             -6.7664   YZ=              0.8828
 Traceless Quadrupole moment (field-independent basis, Debye-Ang):
   XX=              7.4669   YY=             -7.1937   ZZ=             -0.2732
   XY=             -8.1435   XZ=             -6.7664   YZ=              0.8828
 Octapole moment (field-independent basis, Debye-Ang**2):
  XXX=             18.5754  YYY=              9.9548  ZZZ=              6.3256  XYY=             16.3352
  XXY=             48.0253  XXZ=             30.2217  XZZ=             34.2447  YZZ=              7.1035
  YYZ=              5.0106  XYZ=              6.8206
 Hexadecapole moment (field-independent basis, Debye-Ang**3):
 XXXX=          -5494.3203 YYYY=          -2749.7761 ZZZZ=           -419.8309 XXXY=           -140.3355
 XXXZ=           -122.0507 YYYX=            -81.5038 YYYZ=            -31.0279 ZZZX=            -14.8751
 ZZZY=            -15.7804 XXYY=          -1557.6953 XXZZ=          -1109.4427 YYZZ=           -527.9306
 XXYZ=            -23.7616 YYXZ=            -22.6403 ZZXY=            -28.3557
 N-N= 1.668384639796D+03 E-N=-6.141814868773D+03  KE= 1.187382391539D+03
 Unable to Open any file for archive entry.
 1\1\GINC-COMPUTE-0-1\SP\RM062X\def2TZVP\C14H9F6N1\ZTAN64\14-Aug-2024\0
 \\# M062X/def2tzvp int=(grid=ultrafine) nmr=giao guess=read geom=check
 \\pyrd7.xyz\\0,1\F,0,-3.9528189045,1.8576993391,2.4093857298\C,0,-2.73
 69207304,2.1756282474,1.9127679753\F,0,-2.890177764,3.3057036602,1.186
 9446932\C,0,-2.1695587699,1.0589420833,1.0783277396\C,0,-0.7886030852,
 0.8920345487,0.9943728859\C,0,-0.279559608,-0.1039419108,0.1630512042\
 C,0,1.2049889753,-0.3491667232,0.118758579\F,0,1.5836172653,-1.2483216
 099,1.0548908585\F,0,1.5945432934,-0.8368293987,-1.0786285975\F,0,1.90
 48439866,0.781920908,0.3492289176\C,0,-1.1340042075,-0.9226641889,-0.5
 725293291\C,0,-2.5238888684,-0.7579300162,-0.4936139112\C,0,-3.4347573
 465,-1.6225177143,-1.27467149\C,0,-3.1062931114,-2.0311188989,-2.57770
 33671\N,0,-3.8831746115,-2.8132806971,-3.32726293\C,0,-5.0433495523,-3
 .2215254039,-2.8010534428\C,0,-5.4938078467,-2.875929188,-1.5217752203
 \C,0,-6.8154372051,-3.369394238,-0.9945579769\C,0,-4.6572148948,-2.061
 7248702,-0.7560732961\C,0,-3.029688636,0.2464366349,0.3426635946\F,0,-
 1.9347584217,2.4785516095,2.9551035163\H,0,-0.1221667716,1.5254231769,
 1.5659158363\H,0,-0.7166788062,-1.7036877294,-1.1969912845\H,0,-2.1815
 728231,-1.6884766577,-3.0373333398\H,0,-5.6551577224,-3.8644255619,-3.
 4319277414\H,0,-7.2961371595,-4.0464811597,-1.7050241234\H,0,-6.690040
 2139,-3.9063926146,-0.0485125308\H,0,-7.502858083,-2.5371894822,-0.807
 2691895\H,0,-4.9461678753,-1.7885446929,0.2555257162\H,0,-4.0995005017
 ,0.4068025484,0.4084905239\\Version=ES64L-G16RevC.01\State=1-A\HF=-119
 2.8015367\RMSD=2.893e-09\Dipole=-1.2040685,-0.5996849,0.1773021\Quadru
 pole=6.039916,-0.4033013,-5.6366147,6.7008216,0.0366226,-3.6080611\PG=
 C01 [X(C14H9F6N1)]\\@
 The archive entry for this job was punched.


 THERE IS MORE TO LIFE THAN INCREASING ITS SPEED.

                                       -- GANDHI
 Job cpu time:       0 days  1 hours 49 minutes 40.5 seconds.
 Elapsed time:       0 days  0 hours  7 minutes 15.7 seconds.
 File lengths (MBytes):  RWF=    276 Int=      0 D2E=      0 Chk=     44 Scr=      1
 Normal termination of Gaussian 16 at Wed Aug 14 19:52:40 2024.
 
 
-----Kestrel cluster job statistics-----
Time info:

real	38m37.054s
user	565m13.427s
sys	0m39.578s
 
Disk space usage:
44M	/scratch/362976.kestrel.chem.wisc.edu
