 Entering Gaussian System, Link 0=/share/apps/gaussian/g16/g16
 Initial command:
 /share/apps/gaussian/g16/l1.exe "/scratch/362953.kestrel.chem.wisc.edu/Gau-257405.inp" -scrdir="/scratch/362953.kestrel.chem.wisc.edu/"
 Entering Link 1 = /share/apps/gaussian/g16/l1.exe PID=    257412.
  
 Copyright (c) 1988-2019, Gaussian, Inc.  All Rights Reserved.
  
 This is part of the Gaussian(R) 16 program.  It is based on
 the Gaussian(R) 09 system (copyright 2009, Gaussian, Inc.),
 the Gaussian(R) 03 system (copyright 2003, Gaussian, Inc.),
 the Gaussian(R) 98 system (copyright 1998, Gaussian, Inc.),
 the Gaussian(R) 94 system (copyright 1995, Gaussian, Inc.),
 the Gaussian 92(TM) system (copyright 1992, Gaussian, Inc.),
 the Gaussian 90(TM) system (copyright 1990, Gaussian, Inc.),
 the Gaussian 88(TM) system (copyright 1988, Gaussian, Inc.),
 the Gaussian 86(TM) system (copyright 1986, Carnegie Mellon
 University), and the Gaussian 82(TM) system (copyright 1983,
 Carnegie Mellon University). Gaussian is a federally registered
 trademark of Gaussian, Inc.
  
 This software contains proprietary and confidential information,
 including trade secrets, belonging to Gaussian, Inc.
  
 This software is provided under written license and may be
 used, copied, transmitted, or stored only in accord with that
 written license.
  
 The following legend is applicable only to US Government
 contracts under FAR:
  
                    RESTRICTED RIGHTS LEGEND
  
 Use, reproduction and disclosure by the US Government is
 subject to restrictions as set forth in subparagraphs (a)
 and (c) of the Commercial Computer Software - Restricted
 Rights clause in FAR 52.227-19.
  
 Gaussian, Inc.
 340 Quinnipiac St., Bldg. 40, Wallingford CT 06492
  
  
 ---------------------------------------------------------------
 Warning -- This program may not be used in any manner that
 competes with the business of Gaussian, Inc. or will provide
 assistance to any competitor of Gaussian, Inc.  The licensee
 of this program is prohibited from giving any competitor of
 Gaussian, Inc. access to this program.  By using this program,
 the user acknowledges that Gaussian, Inc. is engaged in the
 business of creating and licensing software in the field of
 computational chemistry and represents and warrants to the
 licensee that it is not a competitor of Gaussian, Inc. and that
 it will not use this program in any manner prohibited above.
 ---------------------------------------------------------------
  

 Cite this work as:
 Gaussian 16, Revision C.01,
 M. J. Frisch, G. W. Trucks, H. B. Schlegel, G. E. Scuseria, 
 M. A. Robb, J. R. Cheeseman, G. Scalmani, V. Barone, 
 G. A. Petersson, H. Nakatsuji, X. Li, M. Caricato, A. V. Marenich, 
 J. Bloino, B. G. Janesko, R. Gomperts, B. Mennucci, H. P. Hratchian, 
 J. V. Ortiz, A. F. Izmaylov, J. L. Sonnenberg, D. Williams-Young, 
 F. Ding, F. Lipparini, F. Egidi, J. Goings, B. Peng, A. Petrone, 
 T. Henderson, D. Ranasinghe, V. G. Zakrzewski, J. Gao, N. Rega, 
 G. Zheng, W. Liang, M. Hada, M. Ehara, K. Toyota, R. Fukuda, 
 J. Hasegawa, M. Ishida, T. Nakajima, Y. Honda, O. Kitao, H. Nakai, 
 T. Vreven, K. Throssell, J. A. Montgomery, Jr., J. E. Peralta, 
 F. Ogliaro, M. J. Bearpark, J. J. Heyd, E. N. Brothers, K. N. Kudin, 
 V. N. Staroverov, T. A. Keith, R. Kobayashi, J. Normand, 
 K. Raghavachari, A. P. Rendell, J. C. Burant, S. S. Iyengar, 
 J. Tomasi, M. Cossi, J. M. Millam, M. Klene, C. Adamo, R. Cammi, 
 J. W. Ochterski, R. L. Martin, K. Morokuma, O. Farkas, 
 J. B. Foresman, and D. J. Fox, Gaussian, Inc., Wallingford CT, 2019.
 
 ******************************************
 Gaussian 16:  ES64L-G16RevC.01  3-Jul-2019
                14-Aug-2024 
 ******************************************
 %nprocs=16
 Will use up to   16 processors via shared memory.
 %mem=16GB
 %chk=pyrd10_conf-6.chk
 ----------------------------------------------------------------------
 # B3LYP/6-31G(d,p) symmetry=loose empiricaldispersion=GD3BJ int=(grid=
 ultrafine) opt freq=noraman
 ----------------------------------------------------------------------
 1/18=20,19=15,26=4,38=1/1,3;
 2/9=110,12=2,17=4,18=3,40=1/2;
 3/5=1,6=6,7=101,11=2,25=1,30=1,71=1,74=-5,75=-5,124=41/1,2,3;
 4//1;
 5/5=2,38=5/2;
 6/7=2,8=2,9=2,10=2,28=1/1;
 7//1,2,3,16;
 1/18=20,19=15,26=4/3(2);
 2/9=110/2;
 99//99;
 2/9=110/2;
 3/5=1,6=6,7=101,11=2,25=1,30=1,71=1,74=-5,75=-5,124=41/1,2,3;
 4/5=5,16=3,69=1/1;
 5/5=2,38=5/2;
 7//1,2,3,16;
 1/18=20,19=15,26=4/3(-5);
 2/9=110/2;
 6/7=2,8=2,9=2,10=2,19=2,28=1/1;
 99/9=1/99;
 ----------
 pyrd10.xyz
 ----------
 Symbolic Z-matrix:
 Charge =  0 Multiplicity = 1
 Br                    5.1435   -0.2379    1.4206 
 C                     3.3136   -0.6425    0.7531 
 C                     3.2182   -2.1396    0.4184 
 C                     1.8612   -2.5628   -0.1795 
 C                     0.6867   -2.335     0.7609 
 C                     0.431    -3.2185    1.8154 
 N                    -0.5997   -3.0555    2.6835 
 C                    -1.413    -1.9834    2.5089 
 C                    -1.2309   -1.0543    1.4825 
 C                    -0.1656   -1.2367    0.5981 
 H                     2.6058   -0.3549    1.5326 
 H                     3.1332   -0.0166   -0.1216 
 H                     4.0101   -2.3942   -0.2879 
 H                     3.4214   -2.7219    1.3188 
 H                     1.8895   -3.622    -0.4419 
 H                     1.6841   -2.044    -1.1235 
 H                     1.0603   -4.0804    1.9844 
 H                    -2.2248   -1.8799    3.2149 
 H                    -1.8998   -0.213     1.3742 
 H                    -0.0066   -0.5296   -0.2033 
 

 GradGradGradGradGradGradGradGradGradGradGradGradGradGradGradGradGradGrad
 Berny optimization.
 Initialization pass.
                           ----------------------------
                           !    Initial Parameters    !
                           ! (Angstroms and Degrees)  !
 --------------------------                            --------------------------
 ! Name  Definition              Value          Derivative Info.                !
 --------------------------------------------------------------------------------
 ! R1    R(1,2)                  1.9894         estimate D2E/DX2                !
 ! R2    R(2,3)                  1.537          estimate D2E/DX2                !
 ! R3    R(2,11)                 1.0915         estimate D2E/DX2                !
 ! R4    R(2,12)                 1.0906         estimate D2E/DX2                !
 ! R5    R(3,4)                  1.5421         estimate D2E/DX2                !
 ! R6    R(3,13)                 1.0912         estimate D2E/DX2                !
 ! R7    R(3,14)                 1.0914         estimate D2E/DX2                !
 ! R8    R(4,5)                  1.5217         estimate D2E/DX2                !
 ! R9    R(4,15)                 1.0916         estimate D2E/DX2                !
 ! R10   R(4,16)                 1.0916         estimate D2E/DX2                !
 ! R11   R(5,6)                  1.3993         estimate D2E/DX2                !
 ! R12   R(5,10)                 1.3997         estimate D2E/DX2                !
 ! R13   R(6,7)                  1.3574         estimate D2E/DX2                !
 ! R14   R(6,17)                 1.0805         estimate D2E/DX2                !
 ! R15   R(7,8)                  1.357          estimate D2E/DX2                !
 ! R16   R(8,9)                  1.3964         estimate D2E/DX2                !
 ! R17   R(8,18)                 1.0808         estimate D2E/DX2                !
 ! R18   R(9,10)                 1.3965         estimate D2E/DX2                !
 ! R19   R(9,19)                 1.0803         estimate D2E/DX2                !
 ! R20   R(10,20)                1.0805         estimate D2E/DX2                !
 ! A1    A(1,2,3)              109.1625         estimate D2E/DX2                !
 ! A2    A(1,2,11)             107.6542         estimate D2E/DX2                !
 ! A3    A(1,2,12)             107.7303         estimate D2E/DX2                !
 ! A4    A(3,2,11)             111.8341         estimate D2E/DX2                !
 ! A5    A(3,2,12)             111.9677         estimate D2E/DX2                !
 ! A6    A(11,2,12)            108.3188         estimate D2E/DX2                !
 ! A7    A(2,3,4)              113.976          estimate D2E/DX2                !
 ! A8    A(2,3,13)             108.8539         estimate D2E/DX2                !
 ! A9    A(2,3,14)             109.1766         estimate D2E/DX2                !
 ! A10   A(4,3,13)             108.8815         estimate D2E/DX2                !
 ! A11   A(4,3,14)             109.7122         estimate D2E/DX2                !
 ! A12   A(13,3,14)            105.9259         estimate D2E/DX2                !
 ! A13   A(3,4,5)              113.484          estimate D2E/DX2                !
 ! A14   A(3,4,15)             109.6747         estimate D2E/DX2                !
 ! A15   A(3,4,16)             110.3421         estimate D2E/DX2                !
 ! A16   A(5,4,15)             108.2894         estimate D2E/DX2                !
 ! A17   A(5,4,16)             109.7578         estimate D2E/DX2                !
 ! A18   A(15,4,16)            104.9208         estimate D2E/DX2                !
 ! A19   A(4,5,6)              120.8129         estimate D2E/DX2                !
 ! A20   A(4,5,10)             121.0344         estimate D2E/DX2                !
 ! A21   A(6,5,10)             118.1526         estimate D2E/DX2                !
 ! A22   A(5,6,7)              123.0178         estimate D2E/DX2                !
 ! A23   A(5,6,17)             121.0049         estimate D2E/DX2                !
 ! A24   A(7,6,17)             115.9768         estimate D2E/DX2                !
 ! A25   A(6,7,8)              117.8845         estimate D2E/DX2                !
 ! A26   A(7,8,9)              122.8269         estimate D2E/DX2                !
 ! A27   A(7,8,18)             116.2177         estimate D2E/DX2                !
 ! A28   A(9,8,18)             120.9554         estimate D2E/DX2                !
 ! A29   A(8,9,10)             118.5591         estimate D2E/DX2                !
 ! A30   A(8,9,19)             120.7388         estimate D2E/DX2                !
 ! A31   A(10,9,19)            120.702          estimate D2E/DX2                !
 ! A32   A(5,10,9)             119.5589         estimate D2E/DX2                !
 ! A33   A(5,10,20)            120.6741         estimate D2E/DX2                !
 ! A34   A(9,10,20)            119.767          estimate D2E/DX2                !
 ! D1    D(1,2,3,4)           -177.0374         estimate D2E/DX2                !
 ! D2    D(1,2,3,13)           -55.294          estimate D2E/DX2                !
 ! D3    D(1,2,3,14)            59.9037         estimate D2E/DX2                !
 ! D4    D(11,2,3,4)            63.9433         estimate D2E/DX2                !
 ! D5    D(11,2,3,13)         -174.3133         estimate D2E/DX2                !
 ! D6    D(11,2,3,14)          -59.1155         estimate D2E/DX2                !
 ! D7    D(12,2,3,4)           -57.8405         estimate D2E/DX2                !
 ! D8    D(12,2,3,13)           63.9029         estimate D2E/DX2                !
 ! D9    D(12,2,3,14)          179.1007         estimate D2E/DX2                !
 ! D10   D(2,3,4,5)            -61.9249         estimate D2E/DX2                !
 ! D11   D(2,3,4,15)           176.8286         estimate D2E/DX2                !
 ! D12   D(2,3,4,16)            61.7287         estimate D2E/DX2                !
 ! D13   D(13,3,4,5)           176.347          estimate D2E/DX2                !
 ! D14   D(13,3,4,15)           55.1004         estimate D2E/DX2                !
 ! D15   D(13,3,4,16)          -59.9995         estimate D2E/DX2                !
 ! D16   D(14,3,4,5)            60.8419         estimate D2E/DX2                !
 ! D17   D(14,3,4,15)          -60.4047         estimate D2E/DX2                !
 ! D18   D(14,3,4,16)         -175.5046         estimate D2E/DX2                !
 ! D19   D(3,4,5,6)            -78.1148         estimate D2E/DX2                !
 ! D20   D(3,4,5,10)           101.7577         estimate D2E/DX2                !
 ! D21   D(15,4,5,6)            43.9053         estimate D2E/DX2                !
 ! D22   D(15,4,5,10)         -136.2222         estimate D2E/DX2                !
 ! D23   D(16,4,5,6)           157.9132         estimate D2E/DX2                !
 ! D24   D(16,4,5,10)          -22.2142         estimate D2E/DX2                !
 ! D25   D(4,5,6,7)            179.7217         estimate D2E/DX2                !
 ! D26   D(4,5,6,17)            -0.0336         estimate D2E/DX2                !
 ! D27   D(10,5,6,7)            -0.1544         estimate D2E/DX2                !
 ! D28   D(10,5,6,17)         -179.9097         estimate D2E/DX2                !
 ! D29   D(4,5,10,9)          -179.7312         estimate D2E/DX2                !
 ! D30   D(4,5,10,20)            0.2064         estimate D2E/DX2                !
 ! D31   D(6,5,10,9)             0.1447         estimate D2E/DX2                !
 ! D32   D(6,5,10,20)         -179.9178         estimate D2E/DX2                !
 ! D33   D(5,6,7,8)              0.0774         estimate D2E/DX2                !
 ! D34   D(17,6,7,8)           179.844          estimate D2E/DX2                !
 ! D35   D(6,7,8,9)              0.0086         estimate D2E/DX2                !
 ! D36   D(6,7,8,18)           179.9858         estimate D2E/DX2                !
 ! D37   D(7,8,9,10)            -0.0129         estimate D2E/DX2                !
 ! D38   D(7,8,9,19)           179.9424         estimate D2E/DX2                !
 ! D39   D(18,8,9,10)         -179.989          estimate D2E/DX2                !
 ! D40   D(18,8,9,19)           -0.0338         estimate D2E/DX2                !
 ! D41   D(8,9,10,5)            -0.0662         estimate D2E/DX2                !
 ! D42   D(8,9,10,20)          179.9957         estimate D2E/DX2                !
 ! D43   D(19,9,10,5)          179.9786         estimate D2E/DX2                !
 ! D44   D(19,9,10,20)           0.0404         estimate D2E/DX2                !
 --------------------------------------------------------------------------------
 Trust Radius=3.00D-01 FncErr=1.00D-07 GrdErr=1.00D-06 EigMax=2.50D+02 EigMin=1.00D-04
 Number of steps in this run=    108 maximum allowed number of steps=    120.
 GradGradGradGradGradGradGradGradGradGradGradGradGradGradGradGradGradGrad

                          Input orientation:                          
 ---------------------------------------------------------------------
 Center     Atomic      Atomic             Coordinates (Angstroms)
 Number     Number       Type             X           Y           Z
 ---------------------------------------------------------------------
      1         35           0        5.143500   -0.237900    1.420600
      2          6           0        3.313600   -0.642500    0.753100
      3          6           0        3.218200   -2.139600    0.418400
      4          6           0        1.861200   -2.562800   -0.179500
      5          6           0        0.686700   -2.335000    0.760900
      6          6           0        0.431000   -3.218500    1.815400
      7          7           0       -0.599700   -3.055500    2.683500
      8          6           0       -1.413000   -1.983400    2.508900
      9          6           0       -1.230900   -1.054300    1.482500
     10          6           0       -0.165600   -1.236700    0.598100
     11          1           0        2.605800   -0.354900    1.532600
     12          1           0        3.133200   -0.016600   -0.121600
     13          1           0        4.010100   -2.394200   -0.287900
     14          1           0        3.421400   -2.721900    1.318800
     15          1           0        1.889500   -3.622000   -0.441900
     16          1           0        1.684100   -2.044000   -1.123500
     17          1           0        1.060300   -4.080400    1.984400
     18          1           0       -2.224800   -1.879900    3.214900
     19          1           0       -1.899800   -0.213000    1.374200
     20          1           0       -0.006600   -0.529600   -0.203300
 ---------------------------------------------------------------------
                    Distance matrix (angstroms):
                    1          2          3          4          5
     1  Br   0.000000
     2  C    1.989420   0.000000
     3  C    2.885766   1.537021   0.000000
     4  C    4.328854   2.582007   1.542087   0.000000
     5  C    4.969517   3.124935   2.562026   1.521741   0.000000
     6  C    5.589946   4.009194   3.299109   2.540677   1.399259
     7  N    6.520593   4.986274   4.532760   3.807302   2.422878
     8  C    6.871598   5.217432   5.083562   4.275931   2.754608
     9  C    6.426766   4.621048   4.701561   3.820851   2.416214
    10  C    5.464490   3.532978   3.506797   2.543840   1.399708
    11  H    2.542863   1.091474   2.191262   2.891459   2.863435
    12  H    2.543356   1.090594   2.192249   2.846835   3.484128
    13  H    2.975432   2.153427   1.091232   2.158228   3.485466
    14  H    3.024276   2.157670   1.091368   2.168972   2.817717
    15  H    5.050698   3.511909   2.168656   1.091586   2.133032
    16  H    4.658529   2.853261   2.177167   1.091629   2.151848
    17  H    5.635175   4.290993   3.297816   2.761705   2.164013
    18  H    7.759351   6.185911   6.124876   5.355717   3.834849
    19  H    7.043497   5.267806   5.551510   4.699007   3.401324
    20  H    5.407927   3.457047   3.657587   2.761004   2.160976
                    6          7          8          9         10
     6  C    0.000000
     7  N    1.357391   0.000000
     8  C    2.325242   1.356960   0.000000
     9  C    2.748908   2.417771   1.396383   0.000000
    10  C    2.401100   2.800959   2.400984   1.396530   0.000000
    11  H    3.606929   4.346613   4.444764   3.900248   3.054754
    12  H    4.615844   5.571180   5.608544   4.763961   3.590083
    13  H    4.232410   5.524201   6.115624   5.691900   4.422813
    14  H    3.071761   4.259453   5.033204   4.944854   3.948645
    15  H    2.717616   4.035488   4.722154   4.475857   3.315824
    16  H    3.403945   4.553254   4.773891   4.033357   2.652740
    17  H    1.080487   2.072380   3.284771   3.828679   3.392829
    18  H    3.286902   2.074939   1.080818   2.161172   3.391409
    19  H    3.828879   3.388854   2.158433   1.080251   2.158180
    20  H    3.390697   3.881437   3.383419   2.148521   1.080515
                   11         12         13         14         15
    11  H    0.000000
    12  H    1.768891   0.000000
    13  H    3.073276   2.539605   0.000000
    14  H    2.512688   3.078386   1.742251   0.000000
    15  H    3.884029   3.827309   2.455230   2.501392   0.000000
    16  H    3.279856   2.685897   2.496226   3.072880   1.731142
    17  H    4.058577   5.024602   4.087534   2.804165   2.604733
    18  H    5.337645   6.581207   7.169944   6.015292   5.773609
    19  H    4.510616   5.254244   6.515146   5.883266   5.410942
    20  H    3.141417   3.182481   4.429195   4.344439   3.635253
                   16         17         18         19         20
    16  H    0.000000
    17  H    3.767638   0.000000
    18  H    5.841930   4.141040   0.000000
    19  H    4.736603   4.908291   2.504467   0.000000
    20  H    2.449213   4.304938   4.292763   2.484542   0.000000
 Stoichiometry    C8H10BrN
 Framework group  C1[X(C8H10BrN)]
 Deg. of freedom    54
 Full point group                 C1      NOp   1
 Largest Abelian subgroup         C1      NOp   1
 Largest concise Abelian subgroup C1      NOp   1
                         Standard orientation:                         
 ---------------------------------------------------------------------
 Center     Atomic      Atomic             Coordinates (Angstroms)
 Number     Number       Type             X           Y           Z
 ---------------------------------------------------------------------
      1         35           0        3.039347   -0.419351   -0.193013
      2          6           0        1.230490   -0.070040    0.557858
      3          6           0        0.706054    1.266596    0.009403
      4          6           0       -0.665257    1.682804    0.578884
      5          6           0       -1.781619    0.702669    0.249086
      6          6           0       -2.376331    0.693395   -1.017468
      7          7           0       -3.370629   -0.164249   -1.361453
      8          6           0       -3.799594   -1.047153   -0.424538
      9          6           0       -3.262857   -1.104757    0.863282
     10          6           0       -2.240441   -0.215370    1.200856
     11          1           0        0.587548   -0.905328    0.274600
     12          1           0        1.318632   -0.058582    1.644824
     13          1           0        1.433288    2.048987    0.232522
     14          1           0        0.650954    1.210562   -1.079132
     15          1           0       -0.943459    2.663164    0.187658
     16          1           0       -0.601548    1.819375    1.660060
     17          1           0       -2.056947    1.380940   -1.787356
     18          1           0       -4.592071   -1.716970   -0.727016
     19          1           0       -3.630787   -1.821122    1.583274
     20          1           0       -1.811037   -0.242861    2.192002
 ---------------------------------------------------------------------
 Rotational constants (GHZ):           2.2140953           0.3320402           0.3242379
 Standard basis: 6-31G(d,p) (6D, 7F)
 There are   215 symmetry adapted cartesian basis functions of A   symmetry.
 There are   215 symmetry adapted basis functions of A   symmetry.
   215 basis functions,   405 primitive gaussians,   215 cartesian basis functions
    50 alpha electrons       50 beta electrons
       nuclear repulsion energy       692.0672817249 Hartrees.
 NAtoms=   20 NActive=   20 NUniq=   20 SFac= 1.00D+00 NAtFMM=   60 NAOKFM=F Big=F
 Integral buffers will be    131072 words long.
 Raffenetti 2 integral format.
 Two-electron integral symmetry is turned on.
 Nuclear repulsion after empirical dispersion term =      692.0294509312 Hartrees.
 One-electron integrals computed using PRISM.
 NBasis=   215 RedAO= T EigKep=  7.51D-04  NBF=   215
 NBsUse=   215 1.00D-06 EigRej= -1.00D+00 NBFU=   215
 ExpMin= 1.43D-01 ExpMax= 5.74D+05 ExpMxC= 5.74D+03 IAcc=3 IRadAn=         5 AccDes= 0.00D+00
 Harris functional with IExCor=  402 and IRadAn=       5 diagonalized for initial guess.
 HarFok:  IExCor=  402 AccDes= 0.00D+00 IRadAn=         5 IDoV= 1 UseB2=F ITyADJ=14
 ICtDFT=  3500011 ScaDFX=  1.000000  1.000000  1.000000  1.000000
 FoFCou: FMM=F IPFlag=           0 FMFlag=      100000 FMFlg1=           0
         NFxFlg=           0 DoJE=T BraDBF=F KetDBF=T FulRan=T
         wScrn=  0.000000 ICntrl=       500 IOpCl=  0 I1Cent=   200000004 NGrid=           0
         NMat0=    1 NMatS0=      1 NMatT0=    0 NMatD0=    1 NMtDS0=    0 NMtDT0=    0
 Petite list used in FoFCou.
 Requested convergence on RMS density matrix=1.00D-08 within 128 cycles.
 Requested convergence on MAX density matrix=1.00D-06.
 Requested convergence on             energy=1.00D-06.
 No special actions if energy rises.
 Integral accuracy reduced to 1.0D-05 until final iterations.
 Initial convergence to 1.0D-05 achieved.  Increase integral accuracy.
 SCF Done:  E(RB3LYP) =  -2937.38414090     A.U. after   14 cycles
            NFock= 14  Conv=0.63D-08     -V/T= 2.0066

 **********************************************************************

            Population analysis using the SCF Density.

 **********************************************************************

 Orbital symmetries:
       Occupied  (A) (A) (A) (A) (A) (A) (A) (A) (A) (A) (A) (A)
                 (A) (A) (A) (A) (A) (A) (A) (A) (A) (A) (A) (A)
                 (A) (A) (A) (A) (A) (A) (A) (A) (A) (A) (A) (A)
                 (A) (A) (A) (A) (A) (A) (A) (A) (A) (A) (A) (A)
                 (A) (A)
       Virtual   (A) (A) (A) (A) (A) (A) (A) (A) (A) (A) (A) (A)
                 (A) (A) (A) (A) (A) (A) (A) (A) (A) (A) (A) (A)
                 (A) (A) (A) (A) (A) (A) (A) (A) (A) (A) (A) (A)
                 (A) (A) (A) (A) (A) (A) (A) (A) (A) (A) (A) (A)
                 (A) (A) (A) (A) (A) (A) (A) (A) (A) (A) (A) (A)
                 (A) (A) (A) (A) (A) (A) (A) (A) (A) (A) (A) (A)
                 (A) (A) (A) (A) (A) (A) (A) (A) (A) (A) (A) (A)
                 (A) (A) (A) (A) (A) (A) (A) (A) (A) (A) (A) (A)
                 (A) (A) (A) (A) (A) (A) (A) (A) (A) (A) (A) (A)
                 (A) (A) (A) (A) (A) (A) (A) (A) (A) (A) (A) (A)
                 (A) (A) (A) (A) (A) (A) (A) (A) (A) (A) (A) (A)
                 (A) (A) (A) (A) (A) (A) (A) (A) (A) (A) (A) (A)
                 (A) (A) (A) (A) (A) (A) (A) (A) (A) (A) (A) (A)
                 (A) (A) (A) (A) (A) (A) (A) (A) (A)
 The electronic state is 1-A.
 Alpha  occ. eigenvalues -- -482.89610 -61.85858 -56.37933 -56.37555 -56.37549
 Alpha  occ. eigenvalues --  -14.33537 -10.24688 -10.22649 -10.22620 -10.21249
 Alpha  occ. eigenvalues --  -10.21163 -10.20695 -10.20554 -10.20488  -8.57004
 Alpha  occ. eigenvalues --   -6.52390  -6.51119  -6.51107  -2.63952  -2.63599
 Alpha  occ. eigenvalues --   -2.63589  -2.62575  -2.62575  -0.93408  -0.83599
 Alpha  occ. eigenvalues --   -0.80541  -0.78006  -0.74162  -0.67899  -0.63697
 Alpha  occ. eigenvalues --   -0.62480  -0.59267  -0.52478  -0.49434  -0.48322
 Alpha  occ. eigenvalues --   -0.46161  -0.44380  -0.42787  -0.42017  -0.40592
 Alpha  occ. eigenvalues --   -0.39100  -0.38711  -0.36005  -0.35753  -0.34678
 Alpha  occ. eigenvalues --   -0.28712  -0.27398  -0.27245  -0.25845  -0.25494
 Alpha virt. eigenvalues --   -0.03191  -0.01735  -0.00223   0.08451   0.10552
 Alpha virt. eigenvalues --    0.11412   0.11706   0.13766   0.14735   0.14964
 Alpha virt. eigenvalues --    0.16110   0.16412   0.17326   0.18390   0.20260
 Alpha virt. eigenvalues --    0.21560   0.24739   0.25015   0.29723   0.30680
 Alpha virt. eigenvalues --    0.32189   0.35445   0.40299   0.43057   0.43204
 Alpha virt. eigenvalues --    0.45057   0.45986   0.46600   0.47650   0.50547
 Alpha virt. eigenvalues --    0.51254   0.51655   0.52694   0.53167   0.54885
 Alpha virt. eigenvalues --    0.55955   0.57788   0.58376   0.58614   0.59403
 Alpha virt. eigenvalues --    0.62081   0.62767   0.64103   0.65074   0.66122
 Alpha virt. eigenvalues --    0.69521   0.71023   0.75376   0.77002   0.78320
 Alpha virt. eigenvalues --    0.79390   0.80696   0.82292   0.82538   0.84373
 Alpha virt. eigenvalues --    0.85514   0.86108   0.87082   0.87990   0.90771
 Alpha virt. eigenvalues --    0.91417   0.92453   0.93720   0.96197   0.97148
 Alpha virt. eigenvalues --    0.99587   1.03551   1.06777   1.08078   1.12722
 Alpha virt. eigenvalues --    1.15454   1.18814   1.24573   1.29830   1.31606
 Alpha virt. eigenvalues --    1.34731   1.35785   1.39549   1.42595   1.44056
 Alpha virt. eigenvalues --    1.46570   1.47650   1.48991   1.51460   1.57339
 Alpha virt. eigenvalues --    1.64381   1.65939   1.70967   1.71719   1.77429
 Alpha virt. eigenvalues --    1.79356   1.80433   1.81230   1.84815   1.86066
 Alpha virt. eigenvalues --    1.89188   1.89656   1.93408   1.96500   1.98037
 Alpha virt. eigenvalues --    2.00014   2.07161   2.07255   2.09458   2.10583
 Alpha virt. eigenvalues --    2.12324   2.12990   2.15193   2.18167   2.20619
 Alpha virt. eigenvalues --    2.22400   2.26654   2.30191   2.30567   2.31598
 Alpha virt. eigenvalues --    2.33812   2.34778   2.38668   2.40435   2.43158
 Alpha virt. eigenvalues --    2.46764   2.47833   2.48820   2.50497   2.52524
 Alpha virt. eigenvalues --    2.54119   2.58133   2.60845   2.61959   2.63976
 Alpha virt. eigenvalues --    2.67264   2.67994   2.70418   2.71828   2.76353
 Alpha virt. eigenvalues --    2.80024   2.82328   2.85905   2.86877   2.88811
 Alpha virt. eigenvalues --    2.98470   3.03466   3.17576   3.20969   3.23370
 Alpha virt. eigenvalues --    3.27891   3.28240   3.33225   3.38555   3.39275
 Alpha virt. eigenvalues --    3.45899   3.49235   3.54283   3.78836   4.09602
 Alpha virt. eigenvalues --    4.16050   4.17384   4.26123   4.32315   4.44288
 Alpha virt. eigenvalues --    4.50742   4.66663   4.74082   8.62435  72.90927
          Condensed to atoms (all electrons):
               1          2          3          4          5          6
     1  Br  35.011099   0.252912  -0.048650   0.004599   0.000056  -0.000013
     2  C    0.252912   4.977931   0.348958  -0.039358  -0.005735  -0.000629
     3  C   -0.048650   0.348958   4.961908   0.330188  -0.044953  -0.003203
     4  C    0.004599  -0.039358   0.330188   5.060318   0.339542  -0.047579
     5  C    0.000056  -0.005735  -0.044953   0.339542   4.831380   0.482785
     6  C   -0.000013  -0.000629  -0.003203  -0.047579   0.482785   4.813686
     7  N   -0.000000  -0.000012   0.000023   0.005365  -0.015123   0.439997
     8  C   -0.000000   0.000016   0.000019   0.000271  -0.032882  -0.072069
     9  C    0.000001  -0.000119  -0.000142   0.007538  -0.023857  -0.041566
    10  C    0.000004   0.000735  -0.002814  -0.057618   0.538386  -0.037796
    11  H   -0.035161   0.377958  -0.034548  -0.004621   0.007370   0.000679
    12  H   -0.036669   0.377405  -0.038867  -0.000530  -0.001212   0.000030
    13  H    0.000741  -0.040933   0.380273  -0.030108   0.004828   0.000104
    14  H    0.001207  -0.040336   0.387842  -0.034794  -0.006673   0.003337
    15  H   -0.000140   0.004592  -0.028918   0.372565  -0.030793  -0.005810
    16  H    0.000011  -0.006217  -0.035725   0.373107  -0.033687   0.003710
    17  H   -0.000001   0.000058   0.000417  -0.003440  -0.068129   0.389086
    18  H   -0.000000  -0.000000   0.000000   0.000014   0.000722   0.004554
    19  H    0.000000  -0.000001   0.000001  -0.000111   0.005106   0.000471
    20  H   -0.000002   0.000231   0.000079  -0.010176  -0.047030   0.005606
               7          8          9         10         11         12
     1  Br  -0.000000  -0.000000   0.000001   0.000004  -0.035161  -0.036669
     2  C   -0.000012   0.000016  -0.000119   0.000735   0.377958   0.377405
     3  C    0.000023   0.000019  -0.000142  -0.002814  -0.034548  -0.038867
     4  C    0.005365   0.000271   0.007538  -0.057618  -0.004621  -0.000530
     5  C   -0.015123  -0.032882  -0.023857   0.538386   0.007370  -0.001212
     6  C    0.439997  -0.072069  -0.041566  -0.037796   0.000679   0.000030
     7  N    6.725101   0.457367  -0.024230  -0.055416  -0.000041  -0.000000
     8  C    0.457367   4.726588   0.503956  -0.039110  -0.000027  -0.000000
     9  C   -0.024230   0.503956   4.907359   0.511806   0.000056   0.000013
    10  C   -0.055416  -0.039110   0.511806   4.892271   0.002558   0.000416
    11  H   -0.000041  -0.000027   0.000056   0.002558   0.568568  -0.038479
    12  H   -0.000000  -0.000000   0.000013   0.000416  -0.038479   0.591631
    13  H    0.000002  -0.000000   0.000003  -0.000064   0.005463  -0.005250
    14  H   -0.000076  -0.000003   0.000006   0.000103  -0.005616   0.005470
    15  H    0.000038   0.000021  -0.000253   0.003401  -0.000016  -0.000062
    16  H   -0.000157   0.000010   0.000086  -0.005357  -0.000158   0.004206
    17  H   -0.048788   0.004784   0.000306   0.004047   0.000001  -0.000001
    18  H   -0.050055   0.388573  -0.061487   0.003423   0.000000  -0.000000
    19  H    0.004844  -0.035225   0.358813  -0.039509  -0.000004  -0.000001
    20  H   -0.000277   0.004773  -0.045294   0.373833   0.000027   0.000497
              13         14         15         16         17         18
     1  Br   0.000741   0.001207  -0.000140   0.000011  -0.000001  -0.000000
     2  C   -0.040933  -0.040336   0.004592  -0.006217   0.000058  -0.000000
     3  C    0.380273   0.387842  -0.028918  -0.035725   0.000417   0.000000
     4  C   -0.030108  -0.034794   0.372565   0.373107  -0.003440   0.000014
     5  C    0.004828  -0.006673  -0.030793  -0.033687  -0.068129   0.000722
     6  C    0.000104   0.003337  -0.005810   0.003710   0.389086   0.004554
     7  N    0.000002  -0.000076   0.000038  -0.000157  -0.048788  -0.050055
     8  C   -0.000000  -0.000003   0.000021   0.000010   0.004784   0.388573
     9  C    0.000003   0.000006  -0.000253   0.000086   0.000306  -0.061487
    10  C   -0.000064   0.000103   0.003401  -0.005357   0.004047   0.003423
    11  H    0.005463  -0.005616  -0.000016  -0.000158   0.000001   0.000000
    12  H   -0.005250   0.005470  -0.000062   0.004206  -0.000001  -0.000000
    13  H    0.606167  -0.034836  -0.003777  -0.003878  -0.000059   0.000000
    14  H   -0.034836   0.596845  -0.003870   0.005465   0.001086  -0.000000
    15  H   -0.003777  -0.003870   0.605914  -0.036169   0.003494  -0.000000
    16  H   -0.003878   0.005465  -0.036169   0.623825  -0.000062  -0.000000
    17  H   -0.000059   0.001086   0.003494  -0.000062   0.616205  -0.000190
    18  H    0.000000  -0.000000  -0.000000  -0.000000  -0.000190   0.612650
    19  H   -0.000000   0.000000   0.000003  -0.000013   0.000026  -0.002301
    20  H   -0.000028   0.000022   0.000054   0.005626  -0.000174  -0.000190
              19         20
     1  Br   0.000000  -0.000002
     2  C   -0.000001   0.000231
     3  C    0.000001   0.000079
     4  C   -0.000111  -0.010176
     5  C    0.005106  -0.047030
     6  C    0.000471   0.005606
     7  N    0.004844  -0.000277
     8  C   -0.035225   0.004773
     9  C    0.358813  -0.045294
    10  C   -0.039509   0.373833
    11  H   -0.000004   0.000027
    12  H   -0.000001   0.000497
    13  H   -0.000000  -0.000028
    14  H    0.000000   0.000022
    15  H    0.000003   0.000054
    16  H   -0.000013   0.005626
    17  H    0.000026  -0.000174
    18  H   -0.002301  -0.000190
    19  H    0.620210  -0.006472
    20  H   -0.006472   0.625451
 Mulliken charges:
               1
     1  Br  -0.149994
     2  C   -0.207455
     3  C   -0.171889
     4  C   -0.265172
     5  C    0.099899
     6  C    0.064623
     7  N   -0.438562
     8  C    0.092939
     9  C   -0.092995
    10  C   -0.093299
    11  H    0.155991
    12  H    0.141405
    13  H    0.121354
    14  H    0.124823
    15  H    0.119725
    16  H    0.105377
    17  H    0.101334
    18  H    0.104288
    19  H    0.094162
    20  H    0.093445
 Sum of Mulliken charges =  -0.00000
 Mulliken charges with hydrogens summed into heavy atoms:
               1
     1  Br  -0.149994
     2  C    0.089941
     3  C    0.074288
     4  C   -0.040069
     5  C    0.099899
     6  C    0.165957
     7  N   -0.438562
     8  C    0.197227
     9  C    0.001167
    10  C    0.000146
 Electronic spatial extent (au):  <R**2>=           3142.3221
 Charge=             -0.0000 electrons
 Dipole moment (field-independent basis, Debye):
    X=             -0.9390    Y=              0.6793    Z=              2.5808  Tot=              2.8291
 Quadrupole moment (field-independent basis, Debye-Ang):
   XX=            -81.9477   YY=            -68.4972   ZZ=            -72.0258
   XY=              4.3187   XZ=             -6.0430   YZ=             -1.8191
 Traceless Quadrupole moment (field-independent basis, Debye-Ang):
   XX=             -7.7908   YY=              5.6597   ZZ=              2.1311
   XY=              4.3187   XZ=             -6.0430   YZ=             -1.8191
 Octapole moment (field-independent basis, Debye-Ang**2):
  XXX=             95.1160  YYY=             -9.8493  ZZZ=              6.1219  XYY=             21.6739
  XXY=            -22.2225  XXZ=             17.8605  XZZ=             41.5883  YZZ=             -3.1802
  YYZ=             -2.8190  XYZ=              5.3265
 Hexadecapole moment (field-independent basis, Debye-Ang**3):
 XXXX=          -2971.8547 YYYY=           -429.1051 ZZZZ=           -343.6285 XXXY=             53.0417
 XXXZ=           -108.9646 YYYX=            -25.8278 YYYZ=             -1.0048 ZZZX=            -48.8969
 ZZZY=             -7.0030 XXYY=           -527.7130 XXZZ=           -587.6277 YYZZ=           -124.7266
 XXYZ=             -5.4938 YYXZ=             -4.1283 ZZXY=            -10.5721
 N-N= 6.920294509312D+02 E-N=-8.364594406760D+03  KE= 2.918021749500D+03
 Calling FoFJK, ICntrl=      2127 FMM=F ISym2X=0 I1Cent= 0 IOpClX= 0 NMat=1 NMatS=1 NMatT=0.
 ***** Axes restored to original set *****
 -------------------------------------------------------------------
 Center     Atomic                   Forces (Hartrees/Bohr)
 Number     Number              X              Y              Z
 -------------------------------------------------------------------
      1       35          -0.006896827    0.001192144   -0.001890772
      2        6          -0.004138463   -0.010661639   -0.001156283
      3        6           0.001340774    0.003445829   -0.001096838
      4        6          -0.006130972    0.002117600    0.006204194
      5        6           0.005924060    0.001373603   -0.008756473
      6        6          -0.022811607    0.014992774    0.010459622
      7        7           0.002907737    0.006645897   -0.008673746
      8        6           0.017252195   -0.012344608   -0.005616677
      9        6           0.004346994   -0.004505426    0.000426382
     10        6          -0.003811465   -0.004099211    0.008771351
     11        1           0.003838473    0.000121905    0.001633007
     12        1           0.004198702    0.000868725   -0.000460278
     13        1           0.001766862    0.000407285   -0.002022596
     14        1          -0.000500290   -0.000052893    0.002935936
     15        1           0.003890581   -0.003179540    0.001091775
     16        1          -0.000275492    0.004085871   -0.001344785
     17        1           0.002865629   -0.004279696    0.000225897
     18        1          -0.002999328   -0.000227040    0.002989830
     19        1          -0.002553236    0.002500715    0.000102787
     20        1           0.001785673    0.001597704   -0.003822332
 -------------------------------------------------------------------
 Cartesian Forces:  Max     0.022811607 RMS     0.006028273

 GradGradGradGradGradGradGradGradGradGradGradGradGradGradGradGradGradGrad
 Berny optimization.
 FormGI is forming the generalized inverse of G from B-inverse, IUseBI=4.
 Internal  Forces:  Max     0.018110965 RMS     0.003629524
 Search for a local minimum.
 Step number   1 out of a maximum of  108
 All quantities printed in internal units (Hartrees-Bohrs-Radians)
 Mixed Optimization -- RFO/linear search
 Second derivative matrix not updated -- first step.
 ITU=  0
     Eigenvalues ---    0.00230   0.00276   0.00478   0.01426   0.02102
     Eigenvalues ---    0.02113   0.02136   0.02140   0.02147   0.02177
     Eigenvalues ---    0.02228   0.03299   0.03814   0.04712   0.05234
     Eigenvalues ---    0.05565   0.05636   0.08523   0.09539   0.12354
     Eigenvalues ---    0.12955   0.14497   0.16000   0.16000   0.16000
     Eigenvalues ---    0.16000   0.16000   0.16000   0.21889   0.21912
     Eigenvalues ---    0.22000   0.22251   0.23191   0.23456   0.25000
     Eigenvalues ---    0.28335   0.28784   0.30200   0.34625   0.34630
     Eigenvalues ---    0.34643   0.34655   0.34671   0.34744   0.35896
     Eigenvalues ---    0.35932   0.35936   0.35964   0.42099   0.43619
     Eigenvalues ---    0.45879   0.46081   0.51749   0.52867
 RFO step:  Lambda=-4.39926903D-03 EMin= 2.30000000D-03
 Linear search not attempted -- first point.
 Iteration  1 RMS(Cart)=  0.04665566 RMS(Int)=  0.00086369
 Iteration  2 RMS(Cart)=  0.00100107 RMS(Int)=  0.00011096
 Iteration  3 RMS(Cart)=  0.00000051 RMS(Int)=  0.00011096
 Variable       Old X    -DE/DX   Delta X   Delta X   Delta X     New X
                                 (Linear)    (Quad)   (Total)
    R1        3.75946  -0.00674   0.00000  -0.04509  -0.04509   3.71436
    R2        2.90455  -0.00885   0.00000  -0.03030  -0.03030   2.87425
    R3        2.06259  -0.00129   0.00000  -0.00368  -0.00368   2.05891
    R4        2.06092   0.00017   0.00000   0.00049   0.00049   2.06141
    R5        2.91412  -0.00243   0.00000  -0.00843  -0.00843   2.90569
    R6        2.06213   0.00250   0.00000   0.00711   0.00711   2.06924
    R7        2.06239   0.00236   0.00000   0.00672   0.00672   2.06910
    R8        2.87567  -0.00440   0.00000  -0.01436  -0.01436   2.86131
    R9        2.06280   0.00292   0.00000   0.00834   0.00834   2.07113
   R10        2.06288   0.00315   0.00000   0.00898   0.00898   2.07186
   R11        2.64422  -0.00062   0.00000  -0.00149  -0.00144   2.64277
   R12        2.64506  -0.00457   0.00000  -0.00839  -0.00836   2.63671
   R13        2.56510  -0.01811   0.00000  -0.03496  -0.03494   2.53016
   R14        2.04182   0.00512   0.00000   0.01407   0.01407   2.05589
   R15        2.56428  -0.01765   0.00000  -0.03396  -0.03399   2.53029
   R16        2.63878  -0.00223   0.00000  -0.00475  -0.00480   2.63398
   R17        2.04245   0.00418   0.00000   0.01152   0.01152   2.05397
   R18        2.63906  -0.00414   0.00000  -0.00729  -0.00730   2.63176
   R19        2.04138   0.00352   0.00000   0.00966   0.00966   2.05104
   R20        2.04188   0.00414   0.00000   0.01139   0.01139   2.05327
    A1        1.90524   0.00561   0.00000   0.01758   0.01761   1.92285
    A2        1.87892  -0.00430   0.00000  -0.03206  -0.03205   1.84687
    A3        1.88025  -0.00421   0.00000  -0.03279  -0.03275   1.84750
    A4        1.95187   0.00102   0.00000   0.01259   0.01236   1.96424
    A5        1.95420   0.00050   0.00000   0.00876   0.00854   1.96275
    A6        1.89052   0.00093   0.00000   0.02237   0.02197   1.91249
    A7        1.98926  -0.00653   0.00000  -0.03480  -0.03496   1.95430
    A8        1.89986   0.00163   0.00000   0.00701   0.00718   1.90704
    A9        1.90549   0.00123   0.00000  -0.00546  -0.00571   1.89978
   A10        1.90034   0.00241   0.00000   0.01594   0.01593   1.91627
   A11        1.91484   0.00199   0.00000   0.00342   0.00295   1.91779
   A12        1.84876  -0.00030   0.00000   0.01784   0.01773   1.86648
   A13        1.98067  -0.00036   0.00000  -0.00663  -0.00669   1.97398
   A14        1.91418  -0.00305   0.00000  -0.02426  -0.02419   1.89000
   A15        1.92583  -0.00028   0.00000  -0.00943  -0.00953   1.91630
   A16        1.89001   0.00262   0.00000   0.02362   0.02353   1.91354
   A17        1.91563  -0.00051   0.00000  -0.00678  -0.00695   1.90868
   A18        1.83121   0.00179   0.00000   0.02658   0.02646   1.85767
   A19        2.10858   0.00064   0.00000   0.00129   0.00113   2.10971
   A20        2.11245   0.00450   0.00000   0.01645   0.01628   2.12873
   A21        2.06215  -0.00514   0.00000  -0.01778  -0.01779   2.04436
   A22        2.14707   0.00746   0.00000   0.02945   0.02951   2.17658
   A23        2.11193  -0.00407   0.00000  -0.01680  -0.01685   2.09509
   A24        2.02418  -0.00338   0.00000  -0.01262  -0.01267   2.01151
   A25        2.05747  -0.00237   0.00000  -0.01830  -0.01831   2.03917
   A26        2.14373   0.00356   0.00000   0.01264   0.01258   2.15631
   A27        2.02838  -0.00248   0.00000  -0.01058  -0.01055   2.01783
   A28        2.11107  -0.00108   0.00000  -0.00206  -0.00203   2.10904
   A29        2.06925  -0.00090   0.00000  -0.00068  -0.00073   2.06852
   A30        2.10729  -0.00020   0.00000  -0.00359  -0.00357   2.10373
   A31        2.10665   0.00109   0.00000   0.00426   0.00428   2.11093
   A32        2.08670  -0.00261   0.00000  -0.00531  -0.00528   2.08142
   A33        2.10616  -0.00048   0.00000  -0.00819  -0.00821   2.09795
   A34        2.09033   0.00309   0.00000   0.01350   0.01348   2.10381
    D1       -3.08989  -0.00037   0.00000  -0.02407  -0.02397  -3.11386
    D2       -0.96506  -0.00050   0.00000  -0.02195  -0.02193  -0.98699
    D3        1.04552   0.00070   0.00000   0.00012   0.00002   1.04554
    D4        1.11602   0.00069   0.00000  -0.00347  -0.00327   1.11275
    D5       -3.04234   0.00056   0.00000  -0.00135  -0.00123  -3.04357
    D6       -1.03176   0.00176   0.00000   0.02072   0.02072  -1.01104
    D7       -1.00951  -0.00162   0.00000  -0.04791  -0.04793  -1.05744
    D8        1.11532  -0.00174   0.00000  -0.04579  -0.04588   1.06943
    D9        3.12590  -0.00054   0.00000  -0.02372  -0.02394   3.10196
   D10       -1.08079   0.00102   0.00000   0.01919   0.01912  -1.06167
   D11        3.08624   0.00011   0.00000   0.01093   0.01084   3.09708
   D12        1.07737  -0.00013   0.00000  -0.00184  -0.00189   1.07548
   D13        3.07784   0.00157   0.00000   0.02202   0.02211   3.09994
   D14        0.96168   0.00066   0.00000   0.01376   0.01383   0.97551
   D15       -1.04719   0.00042   0.00000   0.00099   0.00110  -1.04609
   D16        1.06189  -0.00052   0.00000  -0.01013  -0.01015   1.05174
   D17       -1.05426  -0.00142   0.00000  -0.01839  -0.01843  -1.07269
   D18       -3.06313  -0.00166   0.00000  -0.03116  -0.03116  -3.09429
   D19       -1.36336   0.00062   0.00000   0.00691   0.00708  -1.35628
   D20        1.77601   0.00009   0.00000  -0.02118  -0.02123   1.75478
   D21        0.76629  -0.00163   0.00000  -0.01143  -0.01142   0.75487
   D22       -2.37753  -0.00216   0.00000  -0.03952  -0.03973  -2.41726
   D23        2.75611   0.00164   0.00000   0.02926   0.02941   2.78551
   D24       -0.38771   0.00111   0.00000   0.00117   0.00109  -0.38662
   D25        3.13674  -0.00044   0.00000  -0.02112  -0.02087   3.11586
   D26       -0.00059  -0.00065   0.00000  -0.02964  -0.02944  -0.03003
   D27       -0.00270   0.00006   0.00000   0.00614   0.00608   0.00338
   D28       -3.14002  -0.00015   0.00000  -0.00239  -0.00249   3.14068
   D29       -3.13690   0.00048   0.00000   0.02299   0.02307  -3.11383
   D30        0.00360   0.00054   0.00000   0.02571   0.02573   0.02933
   D31        0.00252  -0.00003   0.00000  -0.00435  -0.00422  -0.00169
   D32       -3.14016   0.00003   0.00000  -0.00163  -0.00156   3.14147
   D33        0.00135  -0.00006   0.00000  -0.00404  -0.00402  -0.00267
   D34        3.13887   0.00013   0.00000   0.00407   0.00417  -3.14014
   D35        0.00015   0.00003   0.00000   0.00017   0.00015   0.00030
   D36        3.14134  -0.00006   0.00000  -0.00218  -0.00220   3.13915
   D37       -0.00022   0.00001   0.00000   0.00143   0.00139   0.00117
   D38        3.14059  -0.00007   0.00000  -0.00152  -0.00151   3.13908
   D39       -3.14140   0.00011   0.00000   0.00389   0.00385  -3.13755
   D40       -0.00059   0.00002   0.00000   0.00094   0.00095   0.00036
   D41       -0.00116  -0.00002   0.00000   0.00074   0.00077  -0.00038
   D42        3.14152  -0.00008   0.00000  -0.00194  -0.00188   3.13964
   D43        3.14122   0.00007   0.00000   0.00369   0.00369  -3.13828
   D44        0.00071   0.00001   0.00000   0.00101   0.00104   0.00174
         Item               Value     Threshold  Converged?
 Maximum Force            0.018111     0.000450     NO 
 RMS     Force            0.003630     0.000300     NO 
 Maximum Displacement     0.249343     0.001800     NO 
 RMS     Displacement     0.046745     0.001200     NO 
 Predicted change in Energy=-2.269906D-03
 GradGradGradGradGradGradGradGradGradGradGradGradGradGradGradGradGradGrad

                          Input orientation:                          
 ---------------------------------------------------------------------
 Center     Atomic      Atomic             Coordinates (Angstroms)
 Number     Number       Type             X           Y           Z
 ---------------------------------------------------------------------
      1         35           0        5.011553   -0.189303    1.478621
      2          6           0        3.252223   -0.674854    0.748955
      3          6           0        3.212334   -2.159337    0.420135
      4          6           0        1.864793   -2.577177   -0.191285
      5          6           0        0.691431   -2.333377    0.734137
      6          6           0        0.424360   -3.200592    1.798280
      7          7           0       -0.572501   -3.043342    2.678164
      8          6           0       -1.359219   -1.972191    2.515209
      9          6           0       -1.188028   -1.038914    1.494185
     10          6           0       -0.144886   -1.225771    0.590603
     11          1           0        2.526835   -0.396597    1.512795
     12          1           0        3.112394   -0.048730   -0.133302
     13          1           0        4.024514   -2.397444   -0.274618
     14          1           0        3.398471   -2.729671    1.336064
     15          1           0        1.918027   -3.641845   -0.445959
     16          1           0        1.702202   -2.040578   -1.133453
     17          1           0        1.046310   -4.079562    1.953801
     18          1           0       -2.163194   -1.865255    3.238786
     19          1           0       -1.856912   -0.188673    1.406428
     20          1           0        0.017492   -0.519488   -0.218948
 ---------------------------------------------------------------------
                    Distance matrix (angstroms):
                    1          2          3          4          5
     1  Br   0.000000
     2  C    1.965557   0.000000
     3  C    2.870299   1.520987   0.000000
     4  C    4.288663   2.535320   1.537625   0.000000
     5  C    4.880037   3.050995   2.546338   1.514141   0.000000
     6  C    5.496579   3.934112   3.279678   2.534139   1.398495
     7  N    6.384834   4.894905   4.495012   3.793606   2.425039
     8  C    6.696263   5.105696   5.032241   4.252689   2.740043
     9  C    6.257546   4.517049   4.666059   3.811401   2.405343
    10  C    5.334014   3.445132   3.488771   2.544889   1.395284
    11  H    2.493585   1.089526   2.184278   2.845544   2.779592
    12  H    2.494968   1.090854   2.184249   2.820092   3.439931
    13  H    2.987303   2.147428   1.094994   2.168788   3.482977
    14  H    3.012611   2.142045   1.094922   2.169842   2.801326
    15  H    5.019358   3.465679   2.150158   1.095997   2.146917
    16  H    4.604559   2.794857   2.169847   1.096383   2.143660
    17  H    5.575218   4.231990   3.275828   2.743805   2.159324
    18  H    7.575223   6.078080   6.076806   5.338249   3.826394
    19  H    6.868845   5.174157   5.527526   4.701992   3.397909
    20  H    5.285018   3.380009   3.647540   2.765389   2.157026
                    6          7          8          9         10
     6  C    0.000000
     7  N    1.338901   0.000000
     8  C    2.281252   1.338972   0.000000
     9  C    2.713876   2.407989   1.393844   0.000000
    10  C    2.383787   2.800773   2.394964   1.392667   0.000000
    11  H    3.516289   4.239012   4.311466   3.770029   2.945515
    12  H    4.570642   5.518196   5.541627   4.703488   3.538267
    13  H    4.231200   5.501695   6.078531   5.669643   4.416482
    14  H    3.046431   4.203360   4.959815   4.890770   3.920816
    15  H    2.731731   4.039935   4.721927   4.492993   3.341778
    16  H    3.401994   4.550629   4.763370   4.032522   2.654809
    17  H    1.087932   2.054021   3.246962   3.801191   3.379553
    18  H    3.248634   2.057302   1.086912   2.162735   3.390484
    19  H    3.798606   3.378781   2.158246   1.085365   2.161522
    20  H    3.379804   3.887312   3.388405   2.158219   1.086543
                   11         12         13         14         15
    11  H    0.000000
    12  H    1.781439   0.000000
    13  H    3.072666   2.523567   0.000000
    14  H    2.496842   3.070557   1.759716   0.000000
    15  H    3.839141   3.799308   2.452586   2.489855   0.000000
    16  H    3.222627   2.637500   2.501616   3.074197   1.755928
    17  H    3.993829   4.987214   4.082286   2.781450   2.590431
    18  H    5.208874   6.519400   7.135472   5.941354   5.778407
    19  H    4.389964   5.204263   6.503518   5.837865   5.441130
    20  H    3.051367   3.131671   4.425612   4.328278   3.662332
                   16         17         18         19         20
    16  H    0.000000
    17  H    3.757497   0.000000
    18  H    5.838535   4.105516   0.000000
    19  H    4.748456   4.885421   2.502453   0.000000
    20  H    2.447096   4.295746   4.303767   2.502934   0.000000
 Stoichiometry    C8H10BrN
 Framework group  C1[X(C8H10BrN)]
 Deg. of freedom    54
 Full point group                 C1      NOp   1
 Largest Abelian subgroup         C1      NOp   1
 Largest concise Abelian subgroup C1      NOp   1
                         Standard orientation:                         
 ---------------------------------------------------------------------
 Center     Atomic      Atomic             Coordinates (Angstroms)
 Number     Number       Type             X           Y           Z
 ---------------------------------------------------------------------
      1         35           0        2.965923   -0.448026   -0.178418
      2          6           0        1.199188    0.014075    0.548579
      3          6           0        0.708776    1.320835   -0.055802
      4          6           0       -0.655491    1.742328    0.514644
      5          6           0       -1.750396    0.732154    0.243803
      6          6           0       -2.354794    0.648861   -1.014590
      7          7           0       -3.307515   -0.231568   -1.345988
      8          6           0       -3.696143   -1.088737   -0.393582
      9          6           0       -3.164163   -1.101774    0.894683
     10          6           0       -2.175554   -0.174717    1.215216
     11          1           0        0.549796   -0.827052    0.308031
     12          1           0        1.329249    0.077930    1.629767
     13          1           0        1.448207    2.106112    0.132864
     14          1           0        0.637990    1.203586   -1.142124
     15          1           0       -0.928582    2.708342    0.074816
     16          1           0       -0.571441    1.906209    1.595446
     17          1           0       -2.059725    1.333551   -1.806884
     18          1           0       -4.471864   -1.792826   -0.683223
     19          1           0       -3.517503   -1.817682    1.629968
     20          1           0       -1.739383   -0.154450    2.210163
 ---------------------------------------------------------------------
 Rotational constants (GHZ):           2.1530150           0.3474717           0.3369502
 Standard basis: 6-31G(d,p) (6D, 7F)
 There are   215 symmetry adapted cartesian basis functions of A   symmetry.
 There are   215 symmetry adapted basis functions of A   symmetry.
   215 basis functions,   405 primitive gaussians,   215 cartesian basis functions
    50 alpha electrons       50 beta electrons
       nuclear repulsion energy       699.0480066978 Hartrees.
 NAtoms=   20 NActive=   20 NUniq=   20 SFac= 1.00D+00 NAtFMM=   60 NAOKFM=F Big=F
 Integral buffers will be    131072 words long.
 Raffenetti 2 integral format.
 Two-electron integral symmetry is turned on.
 Nuclear repulsion after empirical dispersion term =      699.0097652893 Hartrees.
 One-electron integrals computed using PRISM.
 NBasis=   215 RedAO= T EigKep=  7.48D-04  NBF=   215
 NBsUse=   215 1.00D-06 EigRej= -1.00D+00 NBFU=   215
 Initial guess from the checkpoint file:  "pyrd10_conf-6.chk"
 B after Tr=    -0.000000   -0.000000    0.000000
         Rot=    0.999794    0.020271   -0.001074   -0.000404 Ang=   2.33 deg.
 ExpMin= 1.43D-01 ExpMax= 5.74D+05 ExpMxC= 5.74D+03 IAcc=3 IRadAn=         5 AccDes= 0.00D+00
 Harris functional with IExCor=  402 and IRadAn=       5 diagonalized for initial guess.
 HarFok:  IExCor=  402 AccDes= 0.00D+00 IRadAn=         5 IDoV= 1 UseB2=F ITyADJ=14
 ICtDFT=  3500011 ScaDFX=  1.000000  1.000000  1.000000  1.000000
 FoFCou: FMM=F IPFlag=           0 FMFlag=      100000 FMFlg1=           0
         NFxFlg=           0 DoJE=T BraDBF=F KetDBF=T FulRan=T
         wScrn=  0.000000 ICntrl=       500 IOpCl=  0 I1Cent=   200000004 NGrid=           0
         NMat0=    1 NMatS0=      1 NMatT0=    0 NMatD0=    1 NMtDS0=    0 NMtDT0=    0
 Petite list used in FoFCou.
 Requested convergence on RMS density matrix=1.00D-08 within 128 cycles.
 Requested convergence on MAX density matrix=1.00D-06.
 Requested convergence on             energy=1.00D-06.
 No special actions if energy rises.
 Integral accuracy reduced to 1.0D-05 until final iterations.
 Initial convergence to 1.0D-05 achieved.  Increase integral accuracy.
 SCF Done:  E(RB3LYP) =  -2937.38628428     A.U. after   12 cycles
            NFock= 12  Conv=0.51D-08     -V/T= 2.0066
 Calling FoFJK, ICntrl=      2127 FMM=F ISym2X=0 I1Cent= 0 IOpClX= 0 NMat=1 NMatS=1 NMatT=0.
 ***** Axes restored to original set *****
 -------------------------------------------------------------------
 Center     Atomic                   Forces (Hartrees/Bohr)
 Number     Number              X              Y              Z
 -------------------------------------------------------------------
      1       35           0.002757971    0.001846578    0.001387238
      2        6          -0.001440609   -0.001629532   -0.000779447
      3        6           0.001105054    0.001532393    0.000859728
      4        6          -0.003596641   -0.001368067    0.000198341
      5        6           0.003498063   -0.000681333   -0.003247147
      6        6          -0.002143900   -0.001527046    0.003506278
      7        7           0.001861008    0.001192934   -0.002826952
      8        6          -0.000759565   -0.000820014    0.001522611
      9        6          -0.000527612    0.000900748   -0.000294423
     10        6          -0.001420390    0.000585788    0.000949657
     11        1           0.000323255   -0.000203432   -0.000441394
     12        1           0.000104563   -0.000112324    0.000032632
     13        1          -0.000449113   -0.000002799   -0.000025493
     14        1          -0.000103994   -0.000203081   -0.000028067
     15        1          -0.000042646    0.000096570    0.000162730
     16        1           0.000333477    0.000302896    0.000129722
     17        1           0.001367540   -0.000720402   -0.001071170
     18        1          -0.000860429    0.001137096   -0.000026395
     19        1          -0.000080380   -0.000255986    0.000344761
     20        1           0.000074350   -0.000070987   -0.000353209
 -------------------------------------------------------------------
 Cartesian Forces:  Max     0.003596641 RMS     0.001338908

 GradGradGradGradGradGradGradGradGradGradGradGradGradGradGradGradGradGrad
 Berny optimization.
 Using GEDIIS/GDIIS optimizer.
 FormGI is forming the generalized inverse of G from B-inverse, IUseBI=4.
 Internal  Forces:  Max     0.003439788 RMS     0.000813118
 Search for a local minimum.
 Step number   2 out of a maximum of  108
 All quantities printed in internal units (Hartrees-Bohrs-Radians)
 Mixed Optimization -- En-DIIS/RFO-DIIS
 Update second derivatives using D2CorX and points    1    2
 DE= -2.14D-03 DEPred=-2.27D-03 R= 9.44D-01
 TightC=F SS=  1.41D+00  RLast= 1.77D-01 DXNew= 5.0454D-01 5.2968D-01
 Trust test= 9.44D-01 RLast= 1.77D-01 DXMaxT set to 5.05D-01
 ITU=  1  0
 Use linear search instead of GDIIS.
     Eigenvalues ---    0.00230   0.00277   0.00479   0.01422   0.02094
     Eigenvalues ---    0.02114   0.02136   0.02139   0.02147   0.02177
     Eigenvalues ---    0.02227   0.03529   0.03930   0.04781   0.05315
     Eigenvalues ---    0.05478   0.05560   0.08176   0.09306   0.12086
     Eigenvalues ---    0.12889   0.15199   0.15700   0.16000   0.16000
     Eigenvalues ---    0.16000   0.16000   0.16366   0.20689   0.21949
     Eigenvalues ---    0.21997   0.22155   0.23295   0.24477   0.24934
     Eigenvalues ---    0.28202   0.29465   0.30006   0.34547   0.34628
     Eigenvalues ---    0.34646   0.34658   0.34739   0.34774   0.35521
     Eigenvalues ---    0.35908   0.35941   0.36038   0.41984   0.43471
     Eigenvalues ---    0.45888   0.46168   0.51590   0.53661
 RFO step:  Lambda=-3.18338506D-04 EMin= 2.30010538D-03
 Quartic linear search produced a step of -0.03679.
 Iteration  1 RMS(Cart)=  0.02532807 RMS(Int)=  0.00035465
 Iteration  2 RMS(Cart)=  0.00048041 RMS(Int)=  0.00000363
 Iteration  3 RMS(Cart)=  0.00000016 RMS(Int)=  0.00000363
 Variable       Old X    -DE/DX   Delta X   Delta X   Delta X     New X
                                 (Linear)    (Quad)   (Total)
    R1        3.71436   0.00344   0.00166   0.01785   0.01951   3.73388
    R2        2.87425  -0.00001   0.00111  -0.00332  -0.00220   2.87205
    R3        2.05891  -0.00058   0.00014  -0.00200  -0.00187   2.05704
    R4        2.06141  -0.00010  -0.00002  -0.00024  -0.00025   2.06116
    R5        2.90569   0.00275   0.00031   0.00841   0.00872   2.91441
    R6        2.06924  -0.00032  -0.00026  -0.00011  -0.00037   2.06887
    R7        2.06910   0.00006  -0.00025   0.00091   0.00066   2.06976
    R8        2.86131  -0.00174   0.00053  -0.00709  -0.00656   2.85475
    R9        2.07113  -0.00013  -0.00031   0.00053   0.00023   2.07136
   R10        2.07186  -0.00001  -0.00033   0.00094   0.00061   2.07247
   R11        2.64277   0.00131   0.00005   0.00263   0.00268   2.64546
   R12        2.63671   0.00206   0.00031   0.00351   0.00381   2.64052
   R13        2.53016  -0.00099   0.00129  -0.00559  -0.00430   2.52585
   R14        2.05589   0.00121  -0.00052   0.00476   0.00425   2.06014
   R15        2.53029   0.00099   0.00125  -0.00194  -0.00069   2.52960
   R16        2.63398   0.00008   0.00018  -0.00039  -0.00021   2.63377
   R17        2.05397   0.00073  -0.00042   0.00321   0.00278   2.05675
   R18        2.63176   0.00069   0.00027   0.00069   0.00095   2.63271
   R19        2.05104  -0.00018  -0.00036   0.00057   0.00021   2.05126
   R20        2.05327   0.00023  -0.00042   0.00184   0.00143   2.05469
    A1        1.92285   0.00285  -0.00065   0.01526   0.01460   1.93746
    A2        1.84687  -0.00098   0.00118  -0.00576  -0.00458   1.84229
    A3        1.84750  -0.00101   0.00120  -0.00635  -0.00515   1.84235
    A4        1.96424  -0.00053  -0.00045  -0.00172  -0.00217   1.96206
    A5        1.96275  -0.00054  -0.00031  -0.00234  -0.00265   1.96009
    A6        1.91249   0.00018  -0.00081   0.00055  -0.00025   1.91224
    A7        1.95430   0.00084   0.00129   0.00003   0.00132   1.95562
    A8        1.90704  -0.00028  -0.00026  -0.00140  -0.00167   1.90538
    A9        1.89978   0.00003   0.00021   0.00264   0.00286   1.90264
   A10        1.91627  -0.00041  -0.00059  -0.00256  -0.00315   1.91312
   A11        1.91779  -0.00039  -0.00011  -0.00082  -0.00092   1.91687
   A12        1.86648   0.00018  -0.00065   0.00225   0.00160   1.86808
   A13        1.97398   0.00041   0.00025   0.00076   0.00101   1.97499
   A14        1.89000  -0.00003   0.00089  -0.00325  -0.00237   1.88763
   A15        1.91630  -0.00048   0.00035  -0.00420  -0.00385   1.91246
   A16        1.91354  -0.00031  -0.00087   0.00036  -0.00050   1.91304
   A17        1.90868   0.00019   0.00026   0.00164   0.00190   1.91058
   A18        1.85767   0.00021  -0.00097   0.00493   0.00395   1.86163
   A19        2.10971  -0.00051  -0.00004  -0.00202  -0.00206   2.10765
   A20        2.12873   0.00130  -0.00060   0.00660   0.00601   2.13473
   A21        2.04436  -0.00079   0.00065  -0.00470  -0.00405   2.04032
   A22        2.17658  -0.00079  -0.00109  -0.00015  -0.00124   2.17535
   A23        2.09509  -0.00107   0.00062  -0.00897  -0.00834   2.08674
   A24        2.01151   0.00186   0.00047   0.00911   0.00958   2.02109
   A25        2.03917   0.00201   0.00067   0.00561   0.00628   2.04545
   A26        2.15631  -0.00096  -0.00046  -0.00293  -0.00339   2.15292
   A27        2.01783   0.00174   0.00039   0.00854   0.00893   2.02676
   A28        2.10904  -0.00077   0.00007  -0.00562  -0.00554   2.10350
   A29        2.06852  -0.00024   0.00003  -0.00099  -0.00096   2.06756
   A30        2.10373  -0.00029   0.00013  -0.00238  -0.00225   2.10147
   A31        2.11093   0.00053  -0.00016   0.00338   0.00322   2.11415
   A32        2.08142   0.00077   0.00019   0.00316   0.00335   2.08477
   A33        2.09795  -0.00060   0.00030  -0.00405  -0.00374   2.09421
   A34        2.10381  -0.00017  -0.00050   0.00089   0.00039   2.10421
    D1       -3.11386   0.00005   0.00088  -0.01332  -0.01244  -3.12630
    D2       -0.98699  -0.00010   0.00081  -0.01751  -0.01670  -1.00369
    D3        1.04554  -0.00002  -0.00000  -0.01412  -0.01411   1.03143
    D4        1.11275  -0.00027   0.00012  -0.01513  -0.01501   1.09773
    D5       -3.04357  -0.00042   0.00005  -0.01931  -0.01927  -3.06284
    D6       -1.01104  -0.00034  -0.00076  -0.01592  -0.01669  -1.02773
    D7       -1.05744   0.00033   0.00176  -0.01268  -0.01091  -1.06835
    D8        1.06943   0.00018   0.00169  -0.01686  -0.01517   1.05426
    D9        3.10196   0.00025   0.00088  -0.01347  -0.01259   3.08937
   D10       -1.06167  -0.00033  -0.00070  -0.03750  -0.03820  -1.09987
   D11        3.09708  -0.00019  -0.00040  -0.03616  -0.03655   3.06053
   D12        1.07548  -0.00016   0.00007  -0.03794  -0.03787   1.03761
   D13        3.09994  -0.00026  -0.00081  -0.03397  -0.03479   3.06516
   D14        0.97551  -0.00012  -0.00051  -0.03263  -0.03314   0.94237
   D15       -1.04609  -0.00008  -0.00004  -0.03441  -0.03446  -1.08055
   D16        1.05174  -0.00001   0.00037  -0.03470  -0.03432   1.01742
   D17       -1.07269   0.00013   0.00068  -0.03336  -0.03268  -1.10537
   D18       -3.09429   0.00017   0.00115  -0.03514  -0.03400  -3.12829
   D19       -1.35628  -0.00004  -0.00026   0.00417   0.00390  -1.35237
   D20        1.75478  -0.00007   0.00078  -0.00081  -0.00003   1.75474
   D21        0.75487  -0.00002   0.00042   0.00078   0.00120   0.75607
   D22       -2.41726  -0.00005   0.00146  -0.00420  -0.00274  -2.42000
   D23        2.78551   0.00016  -0.00108   0.00786   0.00677   2.79229
   D24       -0.38662   0.00013  -0.00004   0.00288   0.00284  -0.38378
   D25        3.11586  -0.00015   0.00077  -0.01034  -0.00957   3.10630
   D26       -0.03003  -0.00014   0.00108  -0.01075  -0.00966  -0.03969
   D27        0.00338  -0.00016  -0.00022  -0.00579  -0.00601  -0.00262
   D28        3.14068  -0.00014   0.00009  -0.00619  -0.00610   3.13458
   D29       -3.11383   0.00015  -0.00085   0.00963   0.00878  -3.10505
   D30        0.02933   0.00015  -0.00095   0.01016   0.00922   0.03854
   D31       -0.00169   0.00013   0.00016   0.00486   0.00501   0.00332
   D32        3.14147   0.00013   0.00006   0.00539   0.00545  -3.13627
   D33       -0.00267   0.00006   0.00015   0.00204   0.00219  -0.00047
   D34       -3.14014   0.00005  -0.00015   0.00247   0.00232  -3.13782
   D35        0.00030   0.00006  -0.00001   0.00264   0.00264   0.00293
   D36        3.13915   0.00004   0.00008   0.00156   0.00164   3.14079
   D37        0.00117  -0.00008  -0.00005  -0.00326  -0.00331  -0.00215
   D38        3.13908  -0.00005   0.00006  -0.00223  -0.00218   3.13690
   D39       -3.13755  -0.00006  -0.00014  -0.00215  -0.00230  -3.13984
   D40        0.00036  -0.00003  -0.00004  -0.00112  -0.00116  -0.00080
   D41       -0.00038  -0.00002  -0.00003  -0.00074  -0.00077  -0.00115
   D42        3.13964  -0.00002   0.00007  -0.00128  -0.00121   3.13843
   D43       -3.13828  -0.00005  -0.00014  -0.00176  -0.00190  -3.14018
   D44        0.00174  -0.00005  -0.00004  -0.00230  -0.00234  -0.00060
         Item               Value     Threshold  Converged?
 Maximum Force            0.003440     0.000450     NO 
 RMS     Force            0.000813     0.000300     NO 
 Maximum Displacement     0.104133     0.001800     NO 
 RMS     Displacement     0.025373     0.001200     NO 
 Predicted change in Energy=-1.641135D-04
 GradGradGradGradGradGradGradGradGradGradGradGradGradGradGradGradGradGrad

                          Input orientation:                          
 ---------------------------------------------------------------------
 Center     Atomic      Atomic             Coordinates (Angstroms)
 Number     Number       Type             X           Y           Z
 ---------------------------------------------------------------------
      1         35           0        5.022688   -0.171444    1.497116
      2          6           0        3.272631   -0.669550    0.726855
      3          6           0        3.210448   -2.159600    0.434037
      4          6           0        1.860968   -2.571426   -0.188699
      5          6           0        0.685639   -2.334709    0.730368
      6          6           0        0.416627   -3.210589    1.788777
      7          7           0       -0.576180   -3.054978    2.670073
      8          6           0       -1.363123   -1.982287    2.522017
      9          6           0       -1.195161   -1.043054    1.506084
     10          6           0       -0.154387   -1.225954    0.598193
     11          1           0        2.531515   -0.359553    1.461407
     12          1           0        3.167499   -0.065632   -0.175308
     13          1           0        4.025775   -2.426665   -0.246039
     14          1           0        3.374551   -2.713290    1.364691
     15          1           0        1.915573   -3.634619   -0.449679
     16          1           0        1.707181   -2.024801   -1.126947
     17          1           0        1.040923   -4.093353    1.928320
     18          1           0       -2.166200   -1.873122    3.248468
     19          1           0       -1.864778   -0.192281    1.428241
     20          1           0        0.006009   -0.515796   -0.209374
 ---------------------------------------------------------------------
                    Distance matrix (angstroms):
                    1          2          3          4          5
     1  Br   0.000000
     2  C    1.975882   0.000000
     3  C    2.892597   1.519822   0.000000
     4  C    4.312582   2.539323   1.542238   0.000000
     5  C    4.906895   3.076572   2.548164   1.510668   0.000000
     6  C    5.526054   3.967533   3.278008   2.530823   1.399916
     7  N    6.406085   4.927444   4.487774   3.787624   2.423516
     8  C    6.716261   5.141605   5.030771   4.253215   2.744382
     9  C    6.278649   4.550590   4.669620   3.814202   2.409879
    10  C    5.359306   3.474276   3.495821   2.547774   1.397302
    11  H    2.498520   1.088539   2.180966   2.839871   2.800522
    12  H    2.499985   1.090719   2.181249   2.825987   3.482612
    13  H    3.019677   2.145041   1.094799   2.170399   3.481140
    14  H    3.032305   2.143384   1.095271   2.173495   2.788537
    15  H    5.043585   3.466622   2.152518   1.096116   2.143598
    16  H    4.616625   2.779195   2.171326   1.096704   2.142244
    17  H    5.605512   4.259867   3.267893   2.733223   2.157347
    18  H    7.592302   6.114572   6.075478   5.340396   3.832345
    19  H    6.887842   5.206986   5.533237   4.707018   3.403183
    20  H    5.310156   3.401615   3.658484   2.768920   2.157187
                    6          7          8          9         10
     6  C    0.000000
     7  N    1.336624   0.000000
     8  C    2.283392   1.338606   0.000000
     9  C    2.715876   2.405378   1.393732   0.000000
    10  C    2.383763   2.795697   2.394615   1.393172   0.000000
    11  H    3.564875   4.287652   4.350445   3.789101   2.951248
    12  H    4.616891   5.572029   5.610318   4.776529   3.602718
    13  H    4.216748   5.484203   6.074523   5.678247   4.430372
    14  H    3.029269   4.174811   4.931463   4.867437   3.905521
    15  H    2.727146   4.034559   4.723455   4.496430   3.344314
    16  H    3.401922   4.548886   4.769016   4.039835   2.660771
    17  H    1.090179   2.059962   3.254000   3.805612   3.379347
    18  H    3.254306   2.063852   1.088384   2.160516   3.389716
    19  H    3.800655   3.376043   2.156879   1.085478   2.164000
    20  H    3.379812   3.882989   3.389044   2.159539   1.087298
                   11         12         13         14         15
    11  H    0.000000
    12  H    1.780366   0.000000
    13  H    3.069388   2.513189   0.000000
    14  H    2.502028   3.069945   1.760880   0.000000
    15  H    3.841574   3.792132   2.439995   2.503877   0.000000
    16  H    3.186246   2.622306   2.512643   3.076102   1.758873
    17  H    4.047362   5.016982   4.051546   2.769128   2.574942
    18  H    5.249095   6.590721   7.131517   5.912226   5.782735
    19  H    4.399599   5.283107   6.518766   5.814645   5.446772
    20  H    3.032179   3.193560   4.450987   4.318997   3.664865
                   16         17         18         19         20
    16  H    0.000000
    17  H    3.749329   0.000000
    18  H    5.845540   4.117991   0.000000
    19  H    4.758782   4.889943   2.495858   0.000000
    20  H    2.452146   4.294147   4.303196   2.507248   0.000000
 Stoichiometry    C8H10BrN
 Framework group  C1[X(C8H10BrN)]
 Deg. of freedom    54
 Full point group                 C1      NOp   1
 Largest Abelian subgroup         C1      NOp   1
 Largest concise Abelian subgroup C1      NOp   1
                         Standard orientation:                         
 ---------------------------------------------------------------------
 Center     Atomic      Atomic             Coordinates (Angstroms)
 Number     Number       Type             X           Y           Z
 ---------------------------------------------------------------------
      1         35           0        2.979555   -0.450454   -0.180470
      2          6           0        1.217915    0.042534    0.566321
      3          6           0        0.696237    1.321758   -0.067158
      4          6           0       -0.669238    1.740809    0.514540
      5          6           0       -1.763053    0.733604    0.247655
      6          6           0       -2.371064    0.653501   -1.010784
      7          7           0       -3.316367   -0.231188   -1.342886
      8          6           0       -3.701849   -1.098091   -0.398562
      9          6           0       -3.171520   -1.113236    0.890240
     10          6           0       -2.188013   -0.181305    1.214506
     11          1           0        0.569920   -0.810543    0.373239
     12          1           0        1.374346    0.146556    1.640741
     13          1           0        1.424544    2.123857    0.090295
     14          1           0        0.609827    1.174688   -1.149065
     15          1           0       -0.944594    2.707457    0.077229
     16          1           0       -0.574874    1.900119    1.595500
     17          1           0       -2.077016    1.350756   -1.795553
     18          1           0       -4.472814   -1.809952   -0.687433
     19          1           0       -3.522810   -1.835529    1.620412
     20          1           0       -1.752883   -0.160662    2.210724
 ---------------------------------------------------------------------
 Rotational constants (GHZ):           2.1434995           0.3448153           0.3342551
 Standard basis: 6-31G(d,p) (6D, 7F)
 There are   215 symmetry adapted cartesian basis functions of A   symmetry.
 There are   215 symmetry adapted basis functions of A   symmetry.
   215 basis functions,   405 primitive gaussians,   215 cartesian basis functions
    50 alpha electrons       50 beta electrons
       nuclear repulsion energy       697.2280607014 Hartrees.
 NAtoms=   20 NActive=   20 NUniq=   20 SFac= 1.00D+00 NAtFMM=   60 NAOKFM=F Big=F
 Integral buffers will be    131072 words long.
 Raffenetti 2 integral format.
 Two-electron integral symmetry is turned on.
 Nuclear repulsion after empirical dispersion term =      697.1899392860 Hartrees.
 One-electron integrals computed using PRISM.
 NBasis=   215 RedAO= T EigKep=  7.48D-04  NBF=   215
 NBsUse=   215 1.00D-06 EigRej= -1.00D+00 NBFU=   215
 Initial guess from the checkpoint file:  "pyrd10_conf-6.chk"
 B after Tr=     0.000000    0.000000   -0.000000
         Rot=    1.000000    0.000503   -0.000114   -0.000817 Ang=   0.11 deg.
 ExpMin= 1.43D-01 ExpMax= 5.74D+05 ExpMxC= 5.74D+03 IAcc=3 IRadAn=         5 AccDes= 0.00D+00
 Harris functional with IExCor=  402 and IRadAn=       5 diagonalized for initial guess.
 HarFok:  IExCor=  402 AccDes= 0.00D+00 IRadAn=         5 IDoV= 1 UseB2=F ITyADJ=14
 ICtDFT=  3500011 ScaDFX=  1.000000  1.000000  1.000000  1.000000
 FoFCou: FMM=F IPFlag=           0 FMFlag=      100000 FMFlg1=           0
         NFxFlg=           0 DoJE=T BraDBF=F KetDBF=T FulRan=T
         wScrn=  0.000000 ICntrl=       500 IOpCl=  0 I1Cent=   200000004 NGrid=           0
         NMat0=    1 NMatS0=      1 NMatT0=    0 NMatD0=    1 NMtDS0=    0 NMtDT0=    0
 Petite list used in FoFCou.
 Requested convergence on RMS density matrix=1.00D-08 within 128 cycles.
 Requested convergence on MAX density matrix=1.00D-06.
 Requested convergence on             energy=1.00D-06.
 No special actions if energy rises.
 Integral accuracy reduced to 1.0D-05 until final iterations.
 Initial convergence to 1.0D-05 achieved.  Increase integral accuracy.
 SCF Done:  E(RB3LYP) =  -2937.38645138     A.U. after   11 cycles
            NFock= 11  Conv=0.39D-08     -V/T= 2.0066
 Calling FoFJK, ICntrl=      2127 FMM=F ISym2X=0 I1Cent= 0 IOpClX= 0 NMat=1 NMatS=1 NMatT=0.
 ***** Axes restored to original set *****
 -------------------------------------------------------------------
 Center     Atomic                   Forces (Hartrees/Bohr)
 Number     Number              X              Y              Z
 -------------------------------------------------------------------
      1       35          -0.000098702   -0.000034678   -0.000039102
      2        6          -0.000728779   -0.000405321   -0.000479063
      3        6           0.001489684    0.000713920    0.000710456
      4        6          -0.001250179   -0.000254677   -0.000182283
      5        6           0.000698832    0.000715487   -0.000824627
      6        6          -0.000190260   -0.001187678    0.001283947
      7        7           0.000524328   -0.000238213   -0.000442021
      8        6          -0.000789349    0.000005220    0.000751441
      9        6          -0.000120564    0.000494431   -0.000390874
     10        6           0.000025850    0.000238604   -0.000064331
     11        1          -0.000012248    0.000160746    0.000240564
     12        1           0.000235004    0.000048311    0.000094739
     13        1          -0.000285075   -0.000234393   -0.000033822
     14        1          -0.000165185   -0.000132157   -0.000305837
     15        1           0.000058501    0.000311659    0.000005496
     16        1           0.000288343   -0.000211000    0.000067235
     17        1           0.000001893    0.000201118   -0.000248816
     18        1           0.000214983    0.000154396   -0.000235991
     19        1           0.000166231   -0.000217618   -0.000019408
     20        1          -0.000063307   -0.000128156    0.000112296
 -------------------------------------------------------------------
 Cartesian Forces:  Max     0.001489684 RMS     0.000479431

 GradGradGradGradGradGradGradGradGradGradGradGradGradGradGradGradGradGrad
 Berny optimization.
 Using GEDIIS/GDIIS optimizer.
 FormGI is forming the generalized inverse of G from B-inverse, IUseBI=4.
 Internal  Forces:  Max     0.001054645 RMS     0.000213403
 Search for a local minimum.
 Step number   3 out of a maximum of  108
 All quantities printed in internal units (Hartrees-Bohrs-Radians)
 Mixed Optimization -- En-DIIS/RFO-DIIS
 Swapping is turned off.
 Update second derivatives using D2CorX and points    1    2    3
 DE= -1.67D-04 DEPred=-1.64D-04 R= 1.02D+00
 TightC=F SS=  1.41D+00  RLast= 1.23D-01 DXNew= 8.4853D-01 3.6851D-01
[...]
   XZ=     1.5004   YZ=    -0.8278   ZZ=    25.6178
   Eigenvalues:    25.0281    27.0432    34.2164
     16  H    Isotropic =    29.5396   Anisotropy =     6.4270
   XX=    27.9554   YX=    -0.0144   ZX=    -1.3129
   XY=     1.1638   YY=    28.0407   ZY=     3.0656
   XZ=    -1.0389   YZ=     1.8687   ZZ=    32.6228
   Eigenvalues:    26.3191    28.4754    33.8243
     17  H    Isotropic =    22.3253   Anisotropy =    10.6706
   XX=    23.7092   YX=     0.7903   ZX=     5.5522
   XY=     0.8629   YY=    19.2053   ZY=     1.2978
   XZ=     5.0055   YZ=     1.7405   ZZ=    24.0612
   Eigenvalues:    18.2833    19.2535    29.4390
     18  H    Isotropic =    22.3968   Anisotropy =     7.0601
   XX=    20.7799   YX=     0.1585   ZX=     2.0979
   XY=     0.2004   YY=    20.1808   ZY=    -1.3811
   XZ=     1.4904   YZ=    -1.8979   ZZ=    26.2297
   Eigenvalues:    19.3861    20.7008    27.1035
     19  H    Isotropic =    24.0023   Anisotropy =     6.8349
   XX=    25.4643   YX=     2.7131   ZX=     1.9445
   XY=     2.1922   YY=    23.0921   ZY=     1.5296
   XZ=     2.5227   YZ=     1.9491   ZZ=    23.4504
   Eigenvalues:    21.4192    22.0287    28.5589
     20  H    Isotropic =    23.8422   Anisotropy =     9.2581
   XX=    25.1006   YX=     3.9334   ZX=    -3.2325
   XY=     3.5336   YY=    24.9525   ZY=    -1.6225
   XZ=    -2.6033   YZ=    -1.7271   ZZ=    21.4734
   Eigenvalues:    19.8067    21.7056    30.0142
 End of Minotr F.D. properties file   721 does not exist.
 End of Minotr F.D. properties file   722 does not exist.
 End of Minotr F.D. properties file   788 does not exist.

 **********************************************************************

            Population analysis using the SCF Density.

 **********************************************************************

 Orbital symmetries:
       Occupied  (A) (A) (A) (A) (A) (A) (A) (A) (A) (A) (A) (A)
                 (A) (A) (A) (A) (A) (A) (A) (A) (A) (A) (A) (A)
                 (A) (A) (A) (A) (A) (A) (A) (A) (A) (A) (A) (A)
                 (A) (A) (A) (A) (A) (A) (A) (A) (A) (A) (A) (A)
                 (A) (A)
       Virtual   (A) (A) (A) (A) (A) (A) (A) (A) (A) (A) (A) (A)
                 (A) (A) (A) (A) (A) (A) (A) (A) (A) (A) (A) (A)
                 (A) (A) (A) (A) (A) (A) (A) (A) (A) (A) (A) (A)
                 (A) (A) (A) (A) (A) (A) (A) (A) (A) (A) (A) (A)
                 (A) (A) (A) (A) (A) (A) (A) (A) (A) (A) (A) (A)
                 (A) (A) (A) (A) (A) (A) (A) (A) (A) (A) (A) (A)
                 (A) (A) (A) (A) (A) (A) (A) (A) (A) (A) (A) (A)
                 (A) (A) (A) (A) (A) (A) (A) (A) (A) (A) (A) (A)
                 (A) (A) (A) (A) (A) (A) (A) (A) (A) (A) (A) (A)
                 (A) (A) (A) (A) (A) (A) (A) (A) (A) (A) (A) (A)
                 (A) (A) (A) (A) (A) (A) (A) (A) (A) (A) (A) (A)
                 (A) (A) (A) (A) (A) (A) (A) (A) (A) (A) (A) (A)
                 (A) (A) (A) (A) (A) (A) (A) (A) (A) (A) (A) (A)
                 (A) (A) (A) (A) (A) (A) (A) (A) (A) (A) (A) (A)
                 (A) (A) (A) (A) (A) (A) (A) (A) (A) (A) (A) (A)
                 (A) (A) (A) (A) (A) (A) (A) (A) (A) (A) (A) (A)
                 (A) (A) (A) (A) (A) (A) (A) (A) (A) (A) (A) (A)
                 (A) (A) (A) (A) (A) (A) (A) (A) (A) (A) (A) (A)
                 (A) (A) (A) (A) (A) (A) (A) (A) (A) (A) (A) (A)
                 (A) (A) (A) (A) (A) (A) (A) (A) (A) (A) (A) (A)
                 (A) (A) (A) (A) (A) (A) (A) (A) (A) (A) (A) (A)
                 (A) (A) (A) (A) (A) (A) (A) (A) (A) (A) (A) (A)
                 (A) (A) (A) (A) (A) (A) (A) (A) (A) (A) (A) (A)
                 (A) (A) (A) (A) (A) (A) (A) (A) (A) (A) (A) (A)
                 (A) (A) (A) (A) (A) (A) (A) (A) (A) (A) (A) (A)
                 (A) (A) (A) (A) (A) (A) (A) (A) (A) (A) (A) (A)
                 (A) (A) (A) (A) (A) (A) (A) (A) (A) (A) (A) (A)
                 (A) (A) (A) (A) (A) (A) (A) (A) (A) (A) (A) (A)
                 (A)
 The electronic state is 1-A.
 Alpha  occ. eigenvalues -- -485.36112 -63.34615 -57.16558 -57.16320 -57.16317
 Alpha  occ. eigenvalues --  -14.75541 -10.59965 -10.58199 -10.58116 -10.56832
 Alpha  occ. eigenvalues --  -10.56672 -10.56152 -10.55887 -10.55873  -9.01255
 Alpha  occ. eigenvalues --   -6.83655  -6.82784  -6.82775  -2.87021  -2.86711
 Alpha  occ. eigenvalues --   -2.86702  -2.85890  -2.85890  -1.05789  -0.94503
 Alpha  occ. eigenvalues --   -0.91056  -0.88208  -0.83995  -0.77113  -0.72601
 Alpha  occ. eigenvalues --   -0.71142  -0.67806  -0.60540  -0.57251  -0.56249
 Alpha  occ. eigenvalues --   -0.53410  -0.51470  -0.49860  -0.49014  -0.47707
 Alpha  occ. eigenvalues --   -0.47071  -0.45349  -0.42670  -0.41691  -0.40801
 Alpha  occ. eigenvalues --   -0.35308  -0.33780  -0.33638  -0.33013  -0.31553
 Alpha virt. eigenvalues --   -0.00720   0.00505   0.02777   0.06650   0.07771
 Alpha virt. eigenvalues --    0.08730   0.09117   0.11054   0.11488   0.12592
 Alpha virt. eigenvalues --    0.13579   0.14670   0.15324   0.15959   0.17249
 Alpha virt. eigenvalues --    0.17719   0.19219   0.20033   0.21314   0.22730
 Alpha virt. eigenvalues --    0.22969   0.24769   0.25078   0.25911   0.26360
 Alpha virt. eigenvalues --    0.27147   0.27888   0.28682   0.29365   0.30368
 Alpha virt. eigenvalues --    0.30979   0.31565   0.32201   0.33148   0.33713
 Alpha virt. eigenvalues --    0.34670   0.36281   0.36662   0.37609   0.38159
 Alpha virt. eigenvalues --    0.39018   0.40716   0.41559   0.42428   0.43148
 Alpha virt. eigenvalues --    0.43881   0.44415   0.44480   0.45680   0.45841
 Alpha virt. eigenvalues --    0.46721   0.46932   0.47479   0.48016   0.49196
 Alpha virt. eigenvalues --    0.49918   0.50443   0.51570   0.53158   0.53430
 Alpha virt. eigenvalues --    0.55383   0.56277   0.56820   0.58577   0.60283
 Alpha virt. eigenvalues --    0.60630   0.62796   0.64014   0.65676   0.66596
 Alpha virt. eigenvalues --    0.66769   0.68229   0.69809   0.70459   0.72712
 Alpha virt. eigenvalues --    0.75237   0.76669   0.79260   0.80291   0.80834
 Alpha virt. eigenvalues --    0.82095   0.84038   0.85298   0.87053   0.89804
 Alpha virt. eigenvalues --    0.90448   0.91679   0.94150   0.95396   0.96575
 Alpha virt. eigenvalues --    0.98473   1.00694   1.02038   1.04781   1.05950
 Alpha virt. eigenvalues --    1.08239   1.09745   1.10869   1.11202   1.12669
 Alpha virt. eigenvalues --    1.14501   1.16486   1.18380   1.20080   1.22125
 Alpha virt. eigenvalues --    1.23890   1.24291   1.27088   1.27697   1.28958
 Alpha virt. eigenvalues --    1.31344   1.32590   1.33226   1.38298   1.39611
 Alpha virt. eigenvalues --    1.40251   1.40974   1.41320   1.43784   1.44809
 Alpha virt. eigenvalues --    1.45634   1.46115   1.47303   1.49003   1.51020
 Alpha virt. eigenvalues --    1.51704   1.54133   1.55145   1.56439   1.57661
 Alpha virt. eigenvalues --    1.58200   1.59161   1.60512   1.60746   1.60960
 Alpha virt. eigenvalues --    1.62418   1.63035   1.64382   1.65856   1.66224
 Alpha virt. eigenvalues --    1.66908   1.67351   1.68167   1.68439   1.70265
 Alpha virt. eigenvalues --    1.70478   1.72307   1.72936   1.74423   1.77044
 Alpha virt. eigenvalues --    1.78762   1.80057   1.80919   1.82992   1.83801
 Alpha virt. eigenvalues --    1.86146   1.88660   1.90761   1.91761   1.94641
 Alpha virt. eigenvalues --    1.95814   1.96404   1.97673   2.00611   2.01656
 Alpha virt. eigenvalues --    2.02447   2.04064   2.07180   2.12702   2.14580
 Alpha virt. eigenvalues --    2.15327   2.17418   2.19257   2.21248   2.22972
 Alpha virt. eigenvalues --    2.26797   2.27229   2.30526   2.32455   2.33055
 Alpha virt. eigenvalues --    2.34562   2.36316   2.38838   2.39428   2.43421
 Alpha virt. eigenvalues --    2.46427   2.47403   2.49340   2.51744   2.53672
 Alpha virt. eigenvalues --    2.54158   2.55644   2.57333   2.58623   2.60460
 Alpha virt. eigenvalues --    2.61314   2.61609   2.61990   2.63774   2.65092
 Alpha virt. eigenvalues --    2.66996   2.67924   2.69469   2.69853   2.70565
 Alpha virt. eigenvalues --    2.73150   2.73590   2.76648   2.77273   2.79080
 Alpha virt. eigenvalues --    2.81177   2.81631   2.82460   2.84771   2.87219
 Alpha virt. eigenvalues --    2.90260   2.91244   2.92981   2.94746   2.96391
 Alpha virt. eigenvalues --    2.96663   2.99104   3.01254   3.03807   3.05823
 Alpha virt. eigenvalues --    3.06527   3.08945   3.09488   3.10623   3.12629
 Alpha virt. eigenvalues --    3.14378   3.15913   3.16284   3.17587   3.18811
 Alpha virt. eigenvalues --    3.20146   3.22371   3.23528   3.24607   3.25935
 Alpha virt. eigenvalues --    3.26986   3.28798   3.28902   3.30137   3.30541
 Alpha virt. eigenvalues --    3.32261   3.33920   3.34332   3.36910   3.39085
 Alpha virt. eigenvalues --    3.40358   3.41858   3.42173   3.44585   3.45110
 Alpha virt. eigenvalues --    3.46600   3.47799   3.49072   3.50894   3.53339
 Alpha virt. eigenvalues --    3.53716   3.55538   3.59996   3.64731   3.66052
 Alpha virt. eigenvalues --    3.68707   3.70669   3.74520   3.75910   3.78828
 Alpha virt. eigenvalues --    3.79633   3.82460   3.85506   3.86770   3.89004
 Alpha virt. eigenvalues --    3.90986   3.94065   3.97559   3.99266   4.03957
 Alpha virt. eigenvalues --    4.04557   4.06831   4.08591   4.09616   4.11014
 Alpha virt. eigenvalues --    4.11659   4.14414   4.14969   4.17050   4.21914
 Alpha virt. eigenvalues --    4.25554   4.26694   4.28706   4.29535   4.33663
 Alpha virt. eigenvalues --    4.35780   4.36271   4.38012   4.41747   4.46192
 Alpha virt. eigenvalues --    4.48749   4.49507   4.50319   4.56124   4.57729
 Alpha virt. eigenvalues --    4.58747   4.63146   4.72810   4.76208   4.78679
 Alpha virt. eigenvalues --    4.82415   4.85515   4.87346   4.91683   4.93017
 Alpha virt. eigenvalues --    5.01862   5.04988   5.11167   5.16831   5.19775
 Alpha virt. eigenvalues --    5.26775   5.32373   5.40646   5.52145   5.57618
 Alpha virt. eigenvalues --    5.72165   5.94741   7.71406  22.36051  22.44355
 Alpha virt. eigenvalues --   22.56787  22.60394  22.74092  22.85782  22.88765
 Alpha virt. eigenvalues --   23.20222  32.51362
          Condensed to atoms (all electrons):
               1          2          3          4          5          6
     1  Br  35.006373   0.251428  -0.034838   0.006927  -0.001721   0.000161
     2  C    0.251428   5.003805   0.206336  -0.024673   0.019327  -0.002287
     3  C   -0.034838   0.206336   5.296130   0.182883  -0.023376  -0.008771
     4  C    0.006927  -0.024673   0.182883   5.356649   0.132187  -0.028492
     5  C   -0.001721   0.019327  -0.023376   0.132187   5.293827   0.472447
     6  C    0.000161  -0.002287  -0.008771  -0.028492   0.472447   4.865635
     7  N   -0.000011   0.000001   0.000223   0.006138  -0.042389   0.515425
     8  C   -0.000011   0.000160  -0.000096  -0.000159  -0.042437  -0.111513
     9  C    0.000097   0.000046  -0.000093   0.009927  -0.057431  -0.017579
    10  C    0.000303  -0.006469  -0.002600  -0.052687   0.396576  -0.043883
    11  H   -0.035224   0.423903  -0.036629  -0.013164   0.021164   0.000380
    12  H   -0.038845   0.430662  -0.063859   0.020306  -0.013628   0.000033
    13  H    0.000259  -0.037083   0.425776  -0.048625   0.013684   0.000875
    14  H    0.000280  -0.041851   0.421288  -0.024526  -0.012516  -0.003166
    15  H   -0.000574   0.008557  -0.058823   0.440938  -0.041047  -0.007660
    16  H    0.000257  -0.011130  -0.034791   0.451099  -0.075252   0.002813
    17  H    0.000013  -0.000049  -0.000981   0.007936  -0.087334   0.440580
    18  H   -0.000000  -0.000000   0.000009   0.000059  -0.000598   0.005903
    19  H    0.000001  -0.000026   0.000024   0.000050   0.012665  -0.002330
    20  H   -0.000018  -0.000211  -0.001957   0.003582  -0.056467   0.004180
               7          8          9         10         11         12
     1  Br  -0.000011  -0.000011   0.000097   0.000303  -0.035224  -0.038845
     2  C    0.000001   0.000160   0.000046  -0.006469   0.423903   0.430662
     3  C    0.000223  -0.000096  -0.000093  -0.002600  -0.036629  -0.063859
     4  C    0.006138  -0.000159   0.009927  -0.052687  -0.013164   0.020306
     5  C   -0.042389  -0.042437  -0.057431   0.396576   0.021164  -0.013628
     6  C    0.515425  -0.111513  -0.017579  -0.043883   0.000380   0.000033
     7  N    6.417604   0.492606  -0.043096  -0.070031   0.000220  -0.000015
     8  C    0.492606   4.827752   0.494988  -0.020665  -0.000164   0.000033
     9  C   -0.043096   0.494988   4.974825   0.461788   0.000181  -0.000113
    10  C   -0.070031  -0.020665   0.461788   5.121846  -0.012347   0.003931
    11  H    0.000220  -0.000164   0.000181  -0.012347   0.499778  -0.033914
    12  H   -0.000015   0.000033  -0.000113   0.003931  -0.033914   0.527987
    13  H    0.000011  -0.000014   0.000025  -0.001179   0.005251  -0.004771
    14  H   -0.000175   0.000168  -0.000298   0.004944  -0.002279   0.005999
    15  H    0.000135   0.000082  -0.000655   0.003802  -0.000632   0.000222
    16  H   -0.000457   0.000206  -0.000301   0.003257   0.002039  -0.001137
    17  H   -0.030338   0.009174  -0.002327   0.005333  -0.000022   0.000003
    18  H   -0.033823   0.433230  -0.066764   0.002357   0.000005  -0.000000
    19  H    0.007259  -0.029548   0.414423  -0.056956   0.000007  -0.000007
    20  H   -0.002174   0.003083  -0.027398   0.427920  -0.000920   0.000580
              13         14         15         16         17         18
     1  Br   0.000259   0.000280  -0.000574   0.000257   0.000013  -0.000000
     2  C   -0.037083  -0.041851   0.008557  -0.011130  -0.000049  -0.000000
     3  C    0.425776   0.421288  -0.058823  -0.034791  -0.000981   0.000009
     4  C   -0.048625  -0.024526   0.440938   0.451099   0.007936   0.000059
     5  C    0.013684  -0.012516  -0.041047  -0.075252  -0.087334  -0.000598
     6  C    0.000875  -0.003166  -0.007660   0.002813   0.440580   0.005903
     7  N    0.000011  -0.000175   0.000135  -0.000457  -0.030338  -0.033823
     8  C   -0.000014   0.000168   0.000082   0.000206   0.009174   0.433230
     9  C    0.000025  -0.000298  -0.000655  -0.000301  -0.002327  -0.066764
    10  C   -0.001179   0.004944   0.003802   0.003257   0.005333   0.002357
    11  H    0.005251  -0.002279  -0.000632   0.002039  -0.000022   0.000005
    12  H   -0.004771   0.005999   0.000222  -0.001137   0.000003  -0.000000
    13  H    0.509679  -0.017492  -0.005360  -0.000078  -0.000100   0.000000
    14  H   -0.017492   0.494696  -0.000572   0.003318   0.000755  -0.000001
    15  H   -0.005360  -0.000572   0.495498  -0.010906  -0.000127  -0.000001
    16  H   -0.000078   0.003318  -0.010906   0.493275  -0.000040  -0.000004
    17  H   -0.000100   0.000755  -0.000127  -0.000040   0.506440  -0.000010
    18  H    0.000000  -0.000001  -0.000001  -0.000004  -0.000010   0.514189
    19  H   -0.000001  -0.000002   0.000011  -0.000089   0.000089  -0.000285
    20  H   -0.000023   0.000087   0.000180   0.000694  -0.000229  -0.000258
              19         20
     1  Br   0.000001  -0.000018
     2  C   -0.000026  -0.000211
     3  C    0.000024  -0.001957
     4  C    0.000050   0.003582
     5  C    0.012665  -0.056467
     6  C   -0.002330   0.004180
     7  N    0.007259  -0.002174
     8  C   -0.029548   0.003083
     9  C    0.414423  -0.027398
    10  C   -0.056956   0.427920
    11  H    0.000007  -0.000920
    12  H   -0.000007   0.000580
    13  H   -0.000001  -0.000023
    14  H   -0.000002   0.000087
    15  H    0.000011   0.000180
    16  H   -0.000089   0.000694
    17  H    0.000089  -0.000229
    18  H   -0.000285  -0.000258
    19  H    0.515902  -0.005528
    20  H   -0.005528   0.492596
 Mulliken charges:
               1
     1  Br  -0.154857
     2  C   -0.220444
     3  C   -0.265853
     4  C   -0.426354
     5  C    0.092321
     6  C   -0.082752
     7  N   -0.217114
     8  C   -0.056876
     9  C   -0.140245
    10  C   -0.165238
    11  H    0.182367
    12  H    0.166533
    13  H    0.159166
    14  H    0.171344
    15  H    0.176931
    16  H    0.177227
    17  H    0.151234
    18  H    0.145993
    19  H    0.144340
    20  H    0.162280
 Sum of Mulliken charges =  -0.00000
 Mulliken charges with hydrogens summed into heavy atoms:
               1
     1  Br  -0.154857
     2  C    0.128456
     3  C    0.064656
     4  C   -0.072196
     5  C    0.092321
     6  C    0.068482
     7  N   -0.217114
     8  C    0.089117
     9  C    0.004095
    10  C   -0.002959
 Electronic spatial extent (au):  <R**2>=           3058.3864
 Charge=              0.0000 electrons
 Dipole moment (field-independent basis, Debye):
    X=             -0.9168    Y=              0.8875    Z=              2.6410  Tot=              2.9331
 Quadrupole moment (field-independent basis, Debye-Ang):
   XX=            -84.1105   YY=            -69.2875   ZZ=            -73.0901
   XY=              4.7936   XZ=             -5.5401   YZ=             -1.9584
 Traceless Quadrupole moment (field-independent basis, Debye-Ang):
   XX=             -8.6145   YY=              6.2086   ZZ=              2.4060
   XY=              4.7936   XZ=             -5.5401   YZ=             -1.9584
 Octapole moment (field-independent basis, Debye-Ang**2):
  XXX=             96.0612  YYY=            -10.2082  ZZZ=              7.4569  XYY=             20.6289
  XXY=            -23.8289  XXZ=             17.2297  XZZ=             41.2694  YZZ=             -2.9659
  YYZ=             -2.7069  XYZ=              6.7376
 Hexadecapole moment (field-independent basis, Debye-Ang**3):
 XXXX=          -2952.9962 YYYY=           -463.0954 ZZZZ=           -349.4618 XXXY=             52.6236
 XXXZ=            -98.8567 YYYX=            -23.2178 YYYZ=             -2.4164 ZZZX=            -47.5782
 ZZZY=             -7.6912 XXYY=           -518.7785 XXZZ=           -580.3816 YYZZ=           -131.3859
 XXYZ=             -6.6305 YYXZ=             -3.9370 ZZXY=            -11.0300
 N-N= 6.974029044488D+02 E-N=-8.395687719271D+03  KE= 2.934433919083D+03
 Unable to Open any file for archive entry.
 1\1\GINC-COMPUTE-0-28\SP\RM062X\def2TZVP\C8H10Br1N1\ZTAN64\14-Aug-2024
 \0\\# M062X/def2tzvp int=(grid=ultrafine) nmr=giao guess=read geom=che
 ck\\pyrd10.xyz\\0,1\Br,0,5.0094711951,-0.1564094733,1.4980859778\C,0,3
 .2653049927,-0.6657223566,0.7200166541\C,0,3.2115630296,-2.1567293087,
 0.4365096831\C,0,1.8620376443,-2.5767642693,-0.1862707955\C,0,0.687100
 5151,-2.3374680351,0.7306639401\C,0,0.4092499961,-3.220380159,1.783045
 9327\N,0,-0.5834902135,-3.0631005551,2.6631307899\C,0,-1.3626236353,-1
 .9828799027,2.5222228173\C,0,-1.1863057231,-1.0382763316,1.5121663755\
 C,0,-0.1452094813,-1.2223242038,0.6047016271\H,0,2.5200125581,-0.35282
 73111,1.4493996012\H,0,3.1658100211,-0.0668170073,-0.1858936085\H,0,4.
 0263860273,-2.4269333823,-0.2424752893\H,0,3.3742409381,-2.7067352694,
 1.369107343\H,0,1.9210560701,-3.640917505,-0.4401460483\H,0,1.71084330
 8,-2.0372969739,-1.1286959388\H,0,1.0269929375,-4.1085928378,1.9145365
 619\H,0,-2.1648434313,-1.8712289757,3.2484597736\H,0,-1.8497138048,-0.
 1827914615,1.4382824082\H,0,0.0203170561,-0.508504681,-0.1982478051\\V
 ersion=ES64L-G16RevC.01\State=1-A\HF=-2939.7883628\RMSD=1.298e-09\Dipo
 le=-0.5297679,0.2179423,-1.0017282\Quadrupole=-1.7607471,0.4474169,1.3
 133303,-7.6012184,0.9386198,1.8381025\PG=C01 [X(C8H10Br1N1)]\\@
 The archive entry for this job was punched.


 BRING ME INTO THE COMPANY OF THOSE WHO SEEK TRUTH,
 AND DELIVER ME FROM THOSE WHO HAVE FOUND IT.
 Job cpu time:       0 days  0 hours 22 minutes 27.2 seconds.
 Elapsed time:       0 days  0 hours  1 minutes 30.2 seconds.
 File lengths (MBytes):  RWF=     88 Int=      0 D2E=      0 Chk=     15 Scr=      1
 Normal termination of Gaussian 16 at Wed Aug 14 18:54:43 2024.
 
 
-----Kestrel cluster job statistics-----
Time info:

real	8m55.129s
user	136m29.694s
sys	0m16.619s
 
Disk space usage:
15M	/scratch/362953.kestrel.chem.wisc.edu
