 Entering Gaussian System, Link 0=/share/apps/gaussian/g16/g16
 Initial command:
 /share/apps/gaussian/g16/l1.exe "/scratch/362994.kestrel.chem.wisc.edu/Gau-19617.inp" -scrdir="/scratch/362994.kestrel.chem.wisc.edu/"
 Entering Link 1 = /share/apps/gaussian/g16/l1.exe PID=     19618.
  
 Copyright (c) 1988-2019, Gaussian, Inc.  All Rights Reserved.
  
 This is part of the Gaussian(R) 16 program.  It is based on
 the Gaussian(R) 09 system (copyright 2009, Gaussian, Inc.),
 the Gaussian(R) 03 system (copyright 2003, Gaussian, Inc.),
 the Gaussian(R) 98 system (copyright 1998, Gaussian, Inc.),
 the Gaussian(R) 94 system (copyright 1995, Gaussian, Inc.),
 the Gaussian 92(TM) system (copyright 1992, Gaussian, Inc.),
 the Gaussian 90(TM) system (copyright 1990, Gaussian, Inc.),
 the Gaussian 88(TM) system (copyright 1988, Gaussian, Inc.),
 the Gaussian 86(TM) system (copyright 1986, Carnegie Mellon
 University), and the Gaussian 82(TM) system (copyright 1983,
 Carnegie Mellon University). Gaussian is a federally registered
 trademark of Gaussian, Inc.
  
 This software contains proprietary and confidential information,
 including trade secrets, belonging to Gaussian, Inc.
  
 This software is provided under written license and may be
 used, copied, transmitted, or stored only in accord with that
 written license.
  
 The following legend is applicable only to US Government
 contracts under FAR:
  
                    RESTRICTED RIGHTS LEGEND
  
 Use, reproduction and disclosure by the US Government is
 subject to restrictions as set forth in subparagraphs (a)
 and (c) of the Commercial Computer Software - Restricted
 Rights clause in FAR 52.227-19.
  
 Gaussian, Inc.
 340 Quinnipiac St., Bldg. 40, Wallingford CT 06492
  
  
 ---------------------------------------------------------------
 Warning -- This program may not be used in any manner that
 competes with the business of Gaussian, Inc. or will provide
 assistance to any competitor of Gaussian, Inc.  The licensee
 of this program is prohibited from giving any competitor of
 Gaussian, Inc. access to this program.  By using this program,
 the user acknowledges that Gaussian, Inc. is engaged in the
 business of creating and licensing software in the field of
 computational chemistry and represents and warrants to the
 licensee that it is not a competitor of Gaussian, Inc. and that
 it will not use this program in any manner prohibited above.
 ---------------------------------------------------------------
  

 Cite this work as:
 Gaussian 16, Revision C.01,
 M. J. Frisch, G. W. Trucks, H. B. Schlegel, G. E. Scuseria, 
 M. A. Robb, J. R. Cheeseman, G. Scalmani, V. Barone, 
 G. A. Petersson, H. Nakatsuji, X. Li, M. Caricato, A. V. Marenich, 
 J. Bloino, B. G. Janesko, R. Gomperts, B. Mennucci, H. P. Hratchian, 
 J. V. Ortiz, A. F. Izmaylov, J. L. Sonnenberg, D. Williams-Young, 
 F. Ding, F. Lipparini, F. Egidi, J. Goings, B. Peng, A. Petrone, 
 T. Henderson, D. Ranasinghe, V. G. Zakrzewski, J. Gao, N. Rega, 
 G. Zheng, W. Liang, M. Hada, M. Ehara, K. Toyota, R. Fukuda, 
 J. Hasegawa, M. Ishida, T. Nakajima, Y. Honda, O. Kitao, H. Nakai, 
 T. Vreven, K. Throssell, J. A. Montgomery, Jr., J. E. Peralta, 
 F. Ogliaro, M. J. Bearpark, J. J. Heyd, E. N. Brothers, K. N. Kudin, 
 V. N. Staroverov, T. A. Keith, R. Kobayashi, J. Normand, 
 K. Raghavachari, A. P. Rendell, J. C. Burant, S. S. Iyengar, 
 J. Tomasi, M. Cossi, J. M. Millam, M. Klene, C. Adamo, R. Cammi, 
 J. W. Ochterski, R. L. Martin, K. Morokuma, O. Farkas, 
 J. B. Foresman, and D. J. Fox, Gaussian, Inc., Wallingford CT, 2019.
 
 ******************************************
 Gaussian 16:  ES64L-G16RevC.01  3-Jul-2019
                14-Aug-2024 
 ******************************************
 %nprocs=16
 Will use up to   16 processors via shared memory.
 %mem=16GB
 %chk=pyrmd5_conf-1.chk
 ----------------------------------------------------------------------
 # B3LYP/6-31G(d,p) symmetry=loose empiricaldispersion=GD3BJ int=(grid=
 ultrafine) opt freq=noraman
 ----------------------------------------------------------------------
 1/18=20,19=15,26=4,38=1/1,3;
 2/9=110,12=2,17=4,18=3,40=1/2;
 3/5=1,6=6,7=101,11=2,25=1,30=1,71=1,74=-5,75=-5,124=41/1,2,3;
 4//1;
 5/5=2,38=5/2;
 6/7=2,8=2,9=2,10=2,28=1/1;
 7//1,2,3,16;
 1/18=20,19=15,26=4/3(2);
 2/9=110/2;
 99//99;
 2/9=110/2;
 3/5=1,6=6,7=101,11=2,25=1,30=1,71=1,74=-5,75=-5,124=41/1,2,3;
 4/5=5,16=3,69=1/1;
 5/5=2,38=5/2;
 7//1,2,3,16;
 1/18=20,19=15,26=4/3(-5);
 2/9=110/2;
 6/7=2,8=2,9=2,10=2,19=2,28=1/1;
 99/9=1/99;
 ----------
 pyrmd5.xyz
 ----------
 Symbolic Z-matrix:
 Charge =  0 Multiplicity = 1
 O                    -4.5793   -2.1432    0.2004 
 C                    -4.09     -1.0184    0.1031 
 C                    -2.6283   -0.7525    0.0604 
 C                    -1.7174   -1.8144    0.1322 
 N                    -0.3731   -1.633     0.098 
 C                    -2.0742    0.5352   -0.051 
 C                    -2.9118    1.8027   -0.1403 
 N                    -0.7315    0.7411   -0.0871 
 C                     0.0788   -0.3523   -0.0113 
 C                     1.5681   -0.1306   -0.0508 
 C                     2.1084    1.1625   -0.1625 
 C                     3.4851    1.3709   -0.1994 
 C                     4.3489    0.2833   -0.1246 
 C                     3.8441   -1.008    -0.0136 
 C                     2.4665   -1.2096    0.0227 
 H                    -4.7287   -0.1376    0.0418 
 H                    -2.0548   -2.8396    0.2193 
 H                    -3.5317    1.9115    0.7494 
 H                    -2.292     2.6972   -0.2211 
 H                    -3.5575    1.7699   -1.0177 
 H                     1.4583    2.0229   -0.2221 
 H                     3.8788    2.3733   -0.2856 
 H                     5.4175    0.4422   -0.153 
 H                     4.5162   -1.8519    0.0444 
 H                     2.0993   -2.2218    0.1094 
 

 GradGradGradGradGradGradGradGradGradGradGradGradGradGradGradGradGradGrad
 Berny optimization.
 Initialization pass.
                           ----------------------------
                           !    Initial Parameters    !
                           ! (Angstroms and Degrees)  !
 --------------------------                            --------------------------
 ! Name  Definition              Value          Derivative Info.                !
 --------------------------------------------------------------------------------
 ! R1    R(1,2)                  1.2305         estimate D2E/DX2                !
 ! R2    R(2,3)                  1.4863         estimate D2E/DX2                !
 ! R3    R(2,16)                 1.0897         estimate D2E/DX2                !
 ! R4    R(3,4)                  1.4009         estimate D2E/DX2                !
 ! R5    R(3,6)                  1.4063         estimate D2E/DX2                !
 ! R6    R(4,5)                  1.3569         estimate D2E/DX2                !
 ! R7    R(4,17)                 1.0828         estimate D2E/DX2                !
 ! R8    R(5,9)                  1.3625         estimate D2E/DX2                !
 ! R9    R(6,7)                  1.5219         estimate D2E/DX2                !
 ! R10   R(6,8)                  1.3589         estimate D2E/DX2                !
 ! R11   R(7,18)                 1.0898         estimate D2E/DX2                !
 ! R12   R(7,19)                 1.0912         estimate D2E/DX2                !
 ! R13   R(7,20)                 1.0899         estimate D2E/DX2                !
 ! R14   R(8,9)                  1.363          estimate D2E/DX2                !
 ! R15   R(9,10)                 1.5062         estimate D2E/DX2                !
 ! R16   R(10,11)                1.4059         estimate D2E/DX2                !
 ! R17   R(10,15)                1.406          estimate D2E/DX2                !
 ! R18   R(11,12)                1.3929         estimate D2E/DX2                !
 ! R19   R(11,21)                1.08           estimate D2E/DX2                !
 ! R20   R(12,13)                1.3909         estimate D2E/DX2                !
 ! R21   R(12,22)                1.0804         estimate D2E/DX2                !
 ! R22   R(13,14)                1.3909         estimate D2E/DX2                !
 ! R23   R(13,23)                1.0807         estimate D2E/DX2                !
 ! R24   R(14,15)                1.3927         estimate D2E/DX2                !
 ! R25   R(14,24)                1.0804         estimate D2E/DX2                !
 ! R26   R(15,25)                1.0802         estimate D2E/DX2                !
 ! A1    A(1,2,3)              123.8403         estimate D2E/DX2                !
 ! A2    A(1,2,16)             120.68           estimate D2E/DX2                !
 ! A3    A(3,2,16)             115.4797         estimate D2E/DX2                !
 ! A4    A(2,3,4)              120.1576         estimate D2E/DX2                !
 ! A5    A(2,3,6)              123.6136         estimate D2E/DX2                !
 ! A6    A(4,3,6)              116.2288         estimate D2E/DX2                !
 ! A7    A(3,4,5)              122.7894         estimate D2E/DX2                !
 ! A8    A(3,4,17)             121.2787         estimate D2E/DX2                !
 ! A9    A(5,4,17)             115.932          estimate D2E/DX2                !
 ! A10   A(4,5,9)              117.147          estimate D2E/DX2                !
 ! A11   A(3,6,7)              123.3958         estimate D2E/DX2                !
 ! A12   A(3,6,8)              122.0176         estimate D2E/DX2                !
 ! A13   A(7,6,8)              114.5866         estimate D2E/DX2                !
 ! A14   A(6,7,18)             110.3837         estimate D2E/DX2                !
 ! A15   A(6,7,19)             111.9899         estimate D2E/DX2                !
 ! A16   A(6,7,20)             110.3799         estimate D2E/DX2                !
 ! A17   A(18,7,19)            107.559          estimate D2E/DX2                !
 ! A18   A(18,7,20)            108.8585         estimate D2E/DX2                !
 ! A19   A(19,7,20)            107.5513         estimate D2E/DX2                !
 ! A20   A(6,8,9)              117.6702         estimate D2E/DX2                !
 ! A21   A(5,9,8)              124.1471         estimate D2E/DX2                !
 ! A22   A(5,9,10)             117.9308         estimate D2E/DX2                !
 ! A23   A(8,9,10)             117.9221         estimate D2E/DX2                !
 ! A24   A(9,10,11)            121.1619         estimate D2E/DX2                !
 ! A25   A(9,10,15)            121.1631         estimate D2E/DX2                !
 ! A26   A(11,10,15)           117.675          estimate D2E/DX2                !
 ! A27   A(10,11,12)           121.3035         estimate D2E/DX2                !
 ! A28   A(10,11,21)           120.3838         estimate D2E/DX2                !
 ! A29   A(12,11,21)           118.3126         estimate D2E/DX2                !
 ! A30   A(11,12,13)           119.6965         estimate D2E/DX2                !
 ! A31   A(11,12,22)           120.0733         estimate D2E/DX2                !
 ! A32   A(13,12,22)           120.2302         estimate D2E/DX2                !
 ! A33   A(12,13,14)           120.3209         estimate D2E/DX2                !
 ! A34   A(12,13,23)           119.847          estimate D2E/DX2                !
 ! A35   A(14,13,23)           119.8321         estimate D2E/DX2                !
 ! A36   A(13,14,15)           119.6993         estimate D2E/DX2                !
 ! A37   A(13,14,24)           120.2438         estimate D2E/DX2                !
 ! A38   A(15,14,24)           120.0568         estimate D2E/DX2                !
 ! A39   A(10,15,14)           121.3047         estimate D2E/DX2                !
 ! A40   A(10,15,25)           120.4039         estimate D2E/DX2                !
 ! A41   A(14,15,25)           118.2914         estimate D2E/DX2                !
 ! D1    D(1,2,3,4)             -0.0015         estimate D2E/DX2                !
 ! D2    D(1,2,3,6)            179.9953         estimate D2E/DX2                !
 ! D3    D(16,2,3,4)          -179.9979         estimate D2E/DX2                !
 ! D4    D(16,2,3,6)            -0.0012         estimate D2E/DX2                !
 ! D5    D(2,3,4,5)           -179.9996         estimate D2E/DX2                !
 ! D6    D(2,3,4,17)             0.0013         estimate D2E/DX2                !
 ! D7    D(6,3,4,5)              0.0034         estimate D2E/DX2                !
 ! D8    D(6,3,4,17)          -179.9957         estimate D2E/DX2                !
 ! D9    D(2,3,6,7)              0.006          estimate D2E/DX2                !
 ! D10   D(2,3,6,8)            179.9977         estimate D2E/DX2                !
 ! D11   D(4,3,6,7)           -179.9971         estimate D2E/DX2                !
 ! D12   D(4,3,6,8)             -0.0054         estimate D2E/DX2                !
 ! D13   D(3,4,5,9)             -0.0015         estimate D2E/DX2                !
 ! D14   D(17,4,5,9)           179.9977         estimate D2E/DX2                !
 ! D15   D(4,5,9,8)              0.0014         estimate D2E/DX2                !
 ! D16   D(4,5,9,10)           179.9978         estimate D2E/DX2                !
 ! D17   D(3,6,7,18)            60.1867         estimate D2E/DX2                !
 ! D18   D(3,6,7,19)           179.9977         estimate D2E/DX2                !
 ! D19   D(3,6,7,20)           -60.2037         estimate D2E/DX2                !
 ! D20   D(8,6,7,18)          -119.8055         estimate D2E/DX2                !
 ! D21   D(8,6,7,19)             0.0055         estimate D2E/DX2                !
 ! D22   D(8,6,7,20)           119.8041         estimate D2E/DX2                !
 ! D23   D(3,6,8,9)              0.0054         estimate D2E/DX2                !
 ! D24   D(7,6,8,9)            179.9978         estimate D2E/DX2                !
 ! D25   D(6,8,9,5)             -0.0033         estimate D2E/DX2                !
 ! D26   D(6,8,9,10)          -179.9997         estimate D2E/DX2                !
 ! D27   D(5,9,10,11)          179.9945         estimate D2E/DX2                !
 ! D28   D(5,9,10,15)           -0.0033         estimate D2E/DX2                !
 ! D29   D(8,9,10,11)           -0.0089         estimate D2E/DX2                !
 ! D30   D(8,9,10,15)          179.9934         estimate D2E/DX2                !
 ! D31   D(9,10,11,12)        -179.9948         estimate D2E/DX2                !
 ! D32   D(9,10,11,21)           0.0008         estimate D2E/DX2                !
 ! D33   D(15,10,11,12)          0.003          estimate D2E/DX2                !
 ! D34   D(15,10,11,21)        179.9986         estimate D2E/DX2                !
 ! D35   D(9,10,15,14)         179.998          estimate D2E/DX2                !
 ! D36   D(9,10,15,25)          -0.007          estimate D2E/DX2                !
 ! D37   D(11,10,15,14)          0.0002         estimate D2E/DX2                !
 ! D38   D(11,10,15,25)        179.9952         estimate D2E/DX2                !
 ! D39   D(10,11,12,13)         -0.008          estimate D2E/DX2                !
 ! D40   D(10,11,12,22)       -179.9987         estimate D2E/DX2                !
 ! D41   D(21,11,12,13)        179.9963         estimate D2E/DX2                !
 ! D42   D(21,11,12,22)          0.0056         estimate D2E/DX2                !
 ! D43   D(11,12,13,14)          0.0097         estimate D2E/DX2                !
 ! D44   D(11,12,13,23)       -179.9993         estimate D2E/DX2                !
 ! D45   D(22,12,13,14)       -179.9996         estimate D2E/DX2                !
 ! D46   D(22,12,13,23)         -0.0085         estimate D2E/DX2                !
 ! D47   D(12,13,14,15)         -0.0065         estimate D2E/DX2                !
 ! D48   D(12,13,14,24)        179.9992         estimate D2E/DX2                !
 ! D49   D(23,13,14,15)       -179.9976         estimate D2E/DX2                !
 ! D50   D(23,13,14,24)          0.0082         estimate D2E/DX2                !
 ! D51   D(13,14,15,10)          0.0015         estimate D2E/DX2                !
 ! D52   D(13,14,15,25)       -179.9935         estimate D2E/DX2                !
 ! D53   D(24,14,15,10)        179.9958         estimate D2E/DX2                !
 ! D54   D(24,14,15,25)          0.0007         estimate D2E/DX2                !
 --------------------------------------------------------------------------------
 Trust Radius=3.00D-01 FncErr=1.00D-07 GrdErr=1.00D-06 EigMax=2.50D+02 EigMin=1.00D-04
 Number of steps in this run=    131 maximum allowed number of steps=    150.
 GradGradGradGradGradGradGradGradGradGradGradGradGradGradGradGradGradGrad

                          Input orientation:                          
 ---------------------------------------------------------------------
 Center     Atomic      Atomic             Coordinates (Angstroms)
 Number     Number       Type             X           Y           Z
 ---------------------------------------------------------------------
      1          8           0       -4.579300   -2.143200    0.200400
      2          6           0       -4.090000   -1.018400    0.103100
      3          6           0       -2.628300   -0.752500    0.060400
      4          6           0       -1.717400   -1.814400    0.132200
      5          7           0       -0.373100   -1.633000    0.098000
      6          6           0       -2.074200    0.535200   -0.051000
      7          6           0       -2.911800    1.802700   -0.140300
      8          7           0       -0.731500    0.741100   -0.087100
      9          6           0        0.078800   -0.352300   -0.011300
     10          6           0        1.568100   -0.130600   -0.050800
     11          6           0        2.108400    1.162500   -0.162500
     12          6           0        3.485100    1.370900   -0.199400
     13          6           0        4.348900    0.283300   -0.124600
     14          6           0        3.844100   -1.008000   -0.013600
     15          6           0        2.466500   -1.209600    0.022700
     16          1           0       -4.728700   -0.137600    0.041800
     17          1           0       -2.054800   -2.839600    0.219300
     18          1           0       -3.531700    1.911500    0.749400
     19          1           0       -2.292000    2.697200   -0.221100
     20          1           0       -3.557500    1.769900   -1.017700
     21          1           0        1.458300    2.022900   -0.222100
     22          1           0        3.878800    2.373300   -0.285600
     23          1           0        5.417500    0.442200   -0.153000
     24          1           0        4.516200   -1.851900    0.044400
     25          1           0        2.099300   -2.221800    0.109400
 ---------------------------------------------------------------------
                    Distance matrix (angstroms):
                    1          2          3          4          5
     1  O    0.000000
     2  C    1.230470   0.000000
     3  C    2.400010   1.486302   0.000000
     4  C    2.881533   2.502737   1.400902   0.000000
     5  N    4.238267   3.767374   2.421285   1.356915   0.000000
     6  C    3.675943   2.549680   1.406275   2.383587   2.759897
     7  C    4.297297   3.066921   2.578701   3.818934   4.278530
     8  N    4.817407   3.796253   2.418770   2.747849   2.408124
     9  C    4.995001   4.223230   2.737461   2.320488   1.362480
    10  C    6.473344   5.729395   4.243689   3.696374   2.459188
    11  C    7.468914   6.576247   5.114023   4.856493   3.747069
    12  C    8.805867   7.948736   6.476881   6.109182   4.898731
    13  C    9.257769   8.541739   7.056091   6.423884   5.100886
    14  C    8.502243   7.934965   6.477864   5.621550   4.264722
    15  C    7.109605   6.559780   5.115403   4.228805   2.871979
    16  H    2.017401   1.089727   2.188636   3.447863   4.605500
    17  H    2.618861   2.733553   2.170285   1.082802   2.073334
    18  H    4.223678   3.051838   2.896161   4.189863   4.792135
    19  H    5.370184   4.140482   3.477466   4.561745   4.747066
    20  H    4.223765   3.051945   2.896241   4.189922   4.792173
    21  H    7.347619   6.335526   4.948025   4.993543   4.101475
    22  H    9.600751   8.669284   7.227219   7.002060   5.854592
    23  H   10.331757   9.622447   8.136814   7.488684   6.156339
    24  H    9.101501   8.646667   7.228611   6.234331   4.894491
    25  H    6.679682   6.305208   4.950903   3.838449   2.541570
                    6          7          8          9         10
     6  C    0.000000
     7  C    1.521875   0.000000
     8  N    1.358875   2.425599   0.000000
     9  C    2.329086   3.688408   1.363032   0.000000
    10  C    3.702653   4.880078   2.459540   1.506229   0.000000
    11  C    4.230849   5.060905   2.871985   2.537076   1.405884
    12  C    5.623721   6.411729   4.264853   3.821999   2.439564
    13  C    6.428459   7.417991   5.101123   4.318632   2.812403
    14  C    6.116301   7.318352   4.899068   3.821967   2.439547
    15  C    4.864948   6.166574   3.747598   2.537170   1.405975
    16  H    2.740008   2.664404   4.094672   4.812585   6.297485
    17  H    3.385663   4.734418   3.829676   3.285131   4.531781
    18  H    2.158506   1.089807   3.148125   4.328876   5.551437
    19  H    2.179591   1.091243   2.505882   3.868354   4.788092
    20  H    2.158511   1.089878   3.148130   4.328886   5.551448
    21  H    3.836806   4.376409   2.540957   2.754820   2.163091
    22  H    6.234730   6.816080   4.894726   4.684457   3.415257
    23  H    7.492971   8.439690   6.156613   5.399354   3.893125
    24  H    7.010044   8.280423   5.854852   4.684274   3.415147
    25  H    5.004486   6.431957   4.102538   2.755362   2.163551
                   11         12         13         14         15
    11  C    0.000000
    12  C    1.392873   0.000000
    13  C    2.407129   1.390906   0.000000
    14  C    2.783145   2.413000   1.390899   0.000000
    15  C    2.406116   2.783138   2.407047   1.392746   0.000000
    16  H    6.962610   8.354655   9.088876   8.617051   7.274644
    17  H    5.787470   6.970948   7.132892   6.181102   4.810167
    18  H    5.762230   7.101264   8.094366   7.969195   6.800571
    19  H    4.660714   5.927430   7.066667   7.171003   6.161643
    20  H    5.762181   7.101199   8.094366   7.969230   6.800620
    21  H    1.080033   2.129211   3.375097   3.862883   3.394915
    22  H    2.148373   1.080387   2.148259   3.392400   3.863523
    23  H    3.386601   2.144483   1.080723   2.144318   3.386401
    24  H    3.863537   3.392498   2.148402   1.080393   2.148090
    25  H    3.395217   3.863068   3.375053   2.129029   1.080232
                   16         17         18         19         20
    16  H    0.000000
    17  H    3.805529   0.000000
    18  H    2.476352   5.003518   0.000000
    19  H    3.747361   5.559350   1.759560   0.000000
    20  H    2.476450   5.003575   1.772952   1.759530   0.000000
    21  H    6.558687   6.015032   5.084911   3.810437   5.084805
    22  H    8.972227   7.914345   7.496666   6.179631   7.496574
    23  H   10.164619   8.169705   9.113800   8.032811   9.113787
    24  H    9.402500   6.647118   8.912289   8.192459   8.912358
    25  H    7.139331   4.201226   7.014409   6.602220   7.014514
                   21         22         23         24         25
    21  H    0.000000
    22  H    2.446555   0.000000
    23  H    4.263643   2.472717   0.000000
    24  H    4.943263   4.285731   2.472692   0.000000
    25  H    4.305607   4.943439   4.263356   2.445906   0.000000
 Stoichiometry    C12H10N2O
 Framework group  C1[X(C12H10N2O)]
 Deg. of freedom    69
 Full point group                 C1      NOp   1
 Largest Abelian subgroup         C1      NOp   1
 Largest concise Abelian subgroup C1      NOp   1
                         Standard orientation:                         
 ---------------------------------------------------------------------
 Center     Atomic      Atomic             Coordinates (Angstroms)
 Number     Number       Type             X           Y           Z
 ---------------------------------------------------------------------
      1          8           0       -4.626726   -1.335621   -0.000050
      2          6           0       -3.999885   -0.276788    0.000022
      3          6           0       -2.515922   -0.193452    0.000008
      4          6           0       -1.745327   -1.363370   -0.000059
      5          7           0       -0.388482   -1.349576   -0.000066
      6          6           0       -1.804312    1.019487   -0.000006
      7          6           0       -2.476344    2.384946    0.000123
      8          7           0       -0.445979    1.057862    0.000028
      9          6           0        0.220825   -0.130930   -0.000035
     10          6           0        1.726626   -0.095015    0.000009
     11          6           0        2.425220    1.125016   -0.000074
     12          6           0        3.817611    1.161670   -0.000142
     13          6           0        4.538230   -0.028006    0.000041
     14          6           0        3.875092   -1.250645    0.000087
     15          6           0        2.482664   -1.280414    0.000087
     16          1           0       -4.523097    0.679116    0.000040
     17          1           0       -2.208916   -2.341913   -0.000122
     18          1           0       -3.099570    2.501199    0.886551
     19          1           0       -1.748920    3.198374    0.000129
     20          1           0       -3.099532    2.501338   -0.886401
     21          1           0        1.888135    2.062038   -0.000159
     22          1           0        4.334210    2.110543   -0.000184
     23          1           0        5.618650   -0.002403    0.000001
     24          1           0        4.436081   -2.173977    0.000216
     25          1           0        1.991130   -2.242337    0.000231
 ---------------------------------------------------------------------
 Rotational constants (GHZ):           1.7255503           0.3016209           0.2571569
 Standard basis: 6-31G(d,p) (6D, 7F)
 There are   275 symmetry adapted cartesian basis functions of A   symmetry.
 There are   275 symmetry adapted basis functions of A   symmetry.
   275 basis functions,   490 primitive gaussians,   275 cartesian basis functions
    52 alpha electrons       52 beta electrons
       nuclear repulsion energy       869.9017354104 Hartrees.
 NAtoms=   25 NActive=   25 NUniq=   25 SFac= 1.00D+00 NAtFMM=   60 NAOKFM=F Big=F
 Integral buffers will be    131072 words long.
 Raffenetti 2 integral format.
 Two-electron integral symmetry is turned on.
 Nuclear repulsion after empirical dispersion term =      869.8503145895 Hartrees.
 One-electron integrals computed using PRISM.
 NBasis=   275 RedAO= T EigKep=  4.41D-04  NBF=   275
 NBsUse=   275 1.00D-06 EigRej= -1.00D+00 NBFU=   275
 ExpMin= 1.61D-01 ExpMax= 5.48D+03 ExpMxC= 8.25D+02 IAcc=3 IRadAn=         5 AccDes= 0.00D+00
 Harris functional with IExCor=  402 and IRadAn=       5 diagonalized for initial guess.
 HarFok:  IExCor=  402 AccDes= 0.00D+00 IRadAn=         5 IDoV= 1 UseB2=F ITyADJ=14
 ICtDFT=  3500011 ScaDFX=  1.000000  1.000000  1.000000  1.000000
 FoFCou: FMM=F IPFlag=           0 FMFlag=      100000 FMFlg1=           0
         NFxFlg=           0 DoJE=T BraDBF=F KetDBF=T FulRan=T
         wScrn=  0.000000 ICntrl=       500 IOpCl=  0 I1Cent=   200000004 NGrid=           0
         NMat0=    1 NMatS0=      1 NMatT0=    0 NMatD0=    1 NMtDS0=    0 NMtDT0=    0
 Petite list used in FoFCou.
 Requested convergence on RMS density matrix=1.00D-08 within 128 cycles.
 Requested convergence on MAX density matrix=1.00D-06.
 Requested convergence on             energy=1.00D-06.
 No special actions if energy rises.
 Integral accuracy reduced to 1.0D-05 until final iterations.
 Initial convergence to 1.0D-05 achieved.  Increase integral accuracy.
 SCF Done:  E(RB3LYP) =  -648.093008449     A.U. after   15 cycles
            NFock= 15  Conv=0.56D-08     -V/T= 2.0100

 **********************************************************************

            Population analysis using the SCF Density.

 **********************************************************************

 Orbital symmetries:
       Occupied  (A) (A) (A) (A) (A) (A) (A) (A) (A) (A) (A) (A)
                 (A) (A) (A) (A) (A) (A) (A) (A) (A) (A) (A) (A)
                 (A) (A) (A) (A) (A) (A) (A) (A) (A) (A) (A) (A)
                 (A) (A) (A) (A) (A) (A) (A) (A) (A) (A) (A) (A)
                 (A) (A) (A) (A)
       Virtual   (A) (A) (A) (A) (A) (A) (A) (A) (A) (A) (A) (A)
                 (A) (A) (A) (A) (A) (A) (A) (A) (A) (A) (A) (A)
                 (A) (A) (A) (A) (A) (A) (A) (A) (A) (A) (A) (A)
                 (A) (A) (A) (A) (A) (A) (A) (A) (A) (A) (A) (A)
                 (A) (A) (A) (A) (A) (A) (A) (A) (A) (A) (A) (A)
                 (A) (A) (A) (A) (A) (A) (A) (A) (A) (A) (A) (A)
                 (A) (A) (A) (A) (A) (A) (A) (A) (A) (A) (A) (A)
                 (A) (A) (A) (A) (A) (A) (A) (A) (A) (A) (A) (A)
                 (A) (A) (A) (A) (A) (A) (A) (A) (A) (A) (A) (A)
                 (A) (A) (A) (A) (A) (A) (A) (A) (A) (A) (A) (A)
                 (A) (A) (A) (A) (A) (A) (A) (A) (A) (A) (A) (A)
                 (A) (A) (A) (A) (A) (A) (A) (A) (A) (A) (A) (A)
                 (A) (A) (A) (A) (A) (A) (A) (A) (A) (A) (A) (A)
                 (A) (A) (A) (A) (A) (A) (A) (A) (A) (A) (A) (A)
                 (A) (A) (A) (A) (A) (A) (A) (A) (A) (A) (A) (A)
                 (A) (A) (A) (A) (A) (A) (A) (A) (A) (A) (A) (A)
                 (A) (A) (A) (A) (A) (A) (A) (A) (A) (A) (A) (A)
                 (A) (A) (A) (A) (A) (A) (A) (A) (A) (A) (A) (A)
                 (A) (A) (A) (A) (A) (A) (A)
 The electronic state is 1-A.
 Alpha  occ. eigenvalues --  -19.15640 -14.34891 -14.34856 -10.28812 -10.28184
 Alpha  occ. eigenvalues --  -10.26859 -10.25414 -10.21934 -10.20837 -10.20373
 Alpha  occ. eigenvalues --  -10.19719 -10.19564 -10.19515 -10.19394 -10.19359
 Alpha  occ. eigenvalues --   -1.04358  -0.98664  -0.89213  -0.86212  -0.82431
 Alpha  occ. eigenvalues --   -0.75905  -0.75072  -0.74131  -0.68500  -0.64231
 Alpha  occ. eigenvalues --   -0.61563  -0.60294  -0.58681  -0.53828  -0.52990
 Alpha  occ. eigenvalues --   -0.49600  -0.48043  -0.45892  -0.45607  -0.44584
 Alpha  occ. eigenvalues --   -0.43680  -0.42683  -0.42199  -0.41927  -0.40557
 Alpha  occ. eigenvalues --   -0.39869  -0.39734  -0.36756  -0.35282  -0.34701
 Alpha  occ. eigenvalues --   -0.32305  -0.31502  -0.30056  -0.26406  -0.25541
 Alpha  occ. eigenvalues --   -0.25535  -0.24588
 Alpha virt. eigenvalues --   -0.08820  -0.04955  -0.02158  -0.00281   0.04121
 Alpha virt. eigenvalues --    0.09220   0.09697   0.12338   0.12742   0.14424
 Alpha virt. eigenvalues --    0.14970   0.15631   0.16312   0.16478   0.18098
 Alpha virt. eigenvalues --    0.18599   0.18878   0.19753   0.23233   0.23542
 Alpha virt. eigenvalues --    0.26271   0.27031   0.28040   0.30366   0.30852
 Alpha virt. eigenvalues --    0.33612   0.34556   0.35552   0.38222   0.40873
 Alpha virt. eigenvalues --    0.45044   0.48569   0.49420   0.51066   0.51366
 Alpha virt. eigenvalues --    0.53164   0.53549   0.54351   0.55050   0.55330
 Alpha virt. eigenvalues --    0.57083   0.57842   0.58852   0.59119   0.59122
 Alpha virt. eigenvalues --    0.59279   0.60415   0.60990   0.61619   0.62771
 Alpha virt. eigenvalues --    0.63495   0.64477   0.64859   0.65668   0.65868
 Alpha virt. eigenvalues --    0.69406   0.71712   0.73206   0.75227   0.78299
 Alpha virt. eigenvalues --    0.78538   0.79972   0.80547   0.80822   0.81431
 Alpha virt. eigenvalues --    0.81975   0.82229   0.83501   0.84730   0.85123
 Alpha virt. eigenvalues --    0.89092   0.89960   0.90242   0.90884   0.92722
 Alpha virt. eigenvalues --    0.93556   0.93719   0.96022   0.97885   0.98936
 Alpha virt. eigenvalues --    0.98966   1.00912   1.04948   1.05681   1.06667
 Alpha virt. eigenvalues --    1.09641   1.12655   1.13876   1.17396   1.19092
 Alpha virt. eigenvalues --    1.22210   1.22441   1.23603   1.24805   1.25539
 Alpha virt. eigenvalues --    1.28168   1.29701   1.33117   1.34345   1.35611
 Alpha virt. eigenvalues --    1.35950   1.39964   1.40346   1.40667   1.41721
 Alpha virt. eigenvalues --    1.42015   1.45025   1.46597   1.47337   1.48722
 Alpha virt. eigenvalues --    1.49047   1.58148   1.63663   1.64410   1.69232
 Alpha virt. eigenvalues --    1.70171   1.72036   1.73238   1.75773   1.77806
 Alpha virt. eigenvalues --    1.77865   1.78224   1.80394   1.82476   1.85228
 Alpha virt. eigenvalues --    1.86731   1.88156   1.88656   1.90296   1.92413
 Alpha virt. eigenvalues --    1.94214   1.96767   1.96857   1.98633   1.99710
 Alpha virt. eigenvalues --    2.02249   2.02361   2.03955   2.04830   2.05432
 Alpha virt. eigenvalues --    2.05834   2.06635   2.07565   2.09068   2.14183
 Alpha virt. eigenvalues --    2.15684   2.15765   2.17568   2.24014   2.26045
 Alpha virt. eigenvalues --    2.28603   2.29547   2.30763   2.31652   2.32004
 Alpha virt. eigenvalues --    2.34478   2.35126   2.37944   2.38969   2.40086
 Alpha virt. eigenvalues --    2.41593   2.41699   2.43497   2.45098   2.47107
 Alpha virt. eigenvalues --    2.48985   2.49492   2.50335   2.52710   2.55110
 Alpha virt. eigenvalues --    2.57147   2.58447   2.60026   2.62238   2.62635
 Alpha virt. eigenvalues --    2.64575   2.64887   2.65424   2.67314   2.71197
 Alpha virt. eigenvalues --    2.73761   2.75265   2.76428   2.79289   2.80217
 Alpha virt. eigenvalues --    2.83169   2.85329   2.87794   2.89281   2.93720
 Alpha virt. eigenvalues --    2.97974   3.03154   3.06243   3.11582   3.17709
 Alpha virt. eigenvalues --    3.18992   3.22094   3.24805   3.26409   3.27114
 Alpha virt. eigenvalues --    3.40903   3.41136   3.41225   3.44701   3.45428
 Alpha virt. eigenvalues --    3.51798   3.59321   3.89702   3.91781   4.05580
 Alpha virt. eigenvalues --    4.10095   4.13636   4.14941   4.17687   4.20832
 Alpha virt. eigenvalues --    4.26683   4.27901   4.40741   4.43433   4.46230
 Alpha virt. eigenvalues --    4.49679   4.68607   4.83789
          Condensed to atoms (all electrons):
               1          2          3          4          5          6
     1  O    7.983761   0.549121  -0.081155   0.005612   0.000371   0.002513
     2  C    0.549121   4.642407   0.246959  -0.033238   0.004878  -0.029393
     3  C   -0.081155   0.246959   5.354420   0.400396  -0.016620   0.405261
     4  C    0.005612  -0.033238   0.400396   4.839258   0.411630  -0.056238
     5  N    0.000371   0.004878  -0.016620   0.411630   6.956680  -0.037517
     6  C    0.002513  -0.029393   0.405261  -0.056238  -0.037517   4.751573
     7  C   -0.000014  -0.008715  -0.086873   0.005802  -0.000184   0.368811
     8  N   -0.000031   0.003630  -0.016960  -0.037876  -0.101083   0.443115
     9  C   -0.000010   0.000413  -0.035665  -0.048346   0.375636  -0.039367
    10  C   -0.000000   0.000014   0.000795   0.004743  -0.082904   0.004522
    11  C    0.000000  -0.000000   0.000040  -0.000147   0.007334   0.000322
    12  C    0.000000   0.000000   0.000001   0.000002  -0.000101  -0.000001
    13  C   -0.000000   0.000000  -0.000000   0.000000  -0.000005   0.000000
    14  C    0.000000   0.000000   0.000001  -0.000002   0.000611   0.000002
    15  C    0.000000  -0.000000   0.000027   0.000076  -0.008785  -0.000099
    16  H   -0.053861   0.369073  -0.116178   0.008022  -0.000032  -0.005540
    17  H    0.011162  -0.002988  -0.062244   0.389867  -0.046575   0.003702
    18  H    0.000019  -0.000309   0.000590  -0.000007   0.000018  -0.026994
    19  H   -0.000000   0.000185   0.004382  -0.000103   0.000044  -0.021945
    20  H    0.000019  -0.000308   0.000590  -0.000007   0.000018  -0.026993
    21  H    0.000000  -0.000000   0.000044  -0.000004   0.000258   0.000083
    22  H   -0.000000  -0.000000  -0.000000  -0.000000   0.000001   0.000000
    23  H    0.000000  -0.000000   0.000000  -0.000000   0.000000  -0.000000
    24  H    0.000000  -0.000000  -0.000000  -0.000000  -0.000000  -0.000000
    25  H    0.000000  -0.000000   0.000030  -0.000094   0.015972   0.000007
               7          8          9         10         11         12
     1  O   -0.000014  -0.000031  -0.000010  -0.000000   0.000000   0.000000
     2  C   -0.008715   0.003630   0.000413   0.000014  -0.000000   0.000000
     3  C   -0.086873  -0.016960  -0.035665   0.000795   0.000040   0.000001
     4  C    0.005802  -0.037876  -0.048346   0.004743  -0.000147   0.000002
     5  N   -0.000184  -0.101083   0.375636  -0.082904   0.007334  -0.000101
     6  C    0.368811   0.443115  -0.039367   0.004522   0.000322  -0.000001
     7  C    5.066187  -0.084532   0.005250  -0.000182  -0.000039  -0.000001
     8  N   -0.084532   7.003695   0.366452  -0.082730  -0.009170   0.000617
     9  C    0.005250   0.366452   4.718305   0.311686  -0.039529   0.005970
    10  C   -0.000182  -0.082730   0.311686   4.900086   0.508234  -0.021835
    11  C   -0.000039  -0.009170  -0.039529   0.508234   4.960287   0.502435
    12  C   -0.000001   0.000617   0.005970  -0.021835   0.502435   4.846496
    13  C   -0.000000  -0.000007   0.000368  -0.034947  -0.035755   0.540860
    14  C   -0.000000  -0.000095   0.006111  -0.022587  -0.043824  -0.029956
    15  C    0.000004   0.007370  -0.035818   0.506443  -0.083070  -0.043708
    16  H    0.005028  -0.000084  -0.000068  -0.000000  -0.000000   0.000000
    17  H   -0.000116  -0.000271   0.003871  -0.000090   0.000004  -0.000000
    18  H    0.371805   0.001414  -0.000185   0.000004   0.000000   0.000000
    19  H    0.367239   0.006376   0.000537  -0.000070  -0.000013   0.000001
    20  H    0.371782   0.001415  -0.000185   0.000004   0.000000   0.000000
    21  H   -0.000115   0.016498  -0.012856  -0.035639   0.367161  -0.046080
    22  H    0.000000  -0.000000  -0.000184   0.003488  -0.036262   0.369655
    23  H   -0.000000   0.000000   0.000009   0.000728   0.004833  -0.041973
    24  H    0.000000   0.000001  -0.000182   0.003439   0.000903   0.004549
    25  H    0.000000   0.000252  -0.011866  -0.035187   0.005535   0.000309
              13         14         15         16         17         18
     1  O   -0.000000   0.000000   0.000000  -0.053861   0.011162   0.000019
     2  C    0.000000   0.000000  -0.000000   0.369073  -0.002988  -0.000309
     3  C   -0.000000   0.000001   0.000027  -0.116178  -0.062244   0.000590
     4  C    0.000000  -0.000002   0.000076   0.008022   0.389867  -0.000007
     5  N   -0.000005   0.000611  -0.008785  -0.000032  -0.046575   0.000018
     6  C    0.000000   0.000002  -0.000099  -0.005540   0.003702  -0.026994
     7  C   -0.000000  -0.000000   0.000004   0.005028  -0.000116   0.371805
     8  N   -0.000007  -0.000095   0.007370  -0.000084  -0.000271   0.001414
     9  C    0.000368   0.006111  -0.035818  -0.000068   0.003871  -0.000185
    10  C   -0.034947  -0.022587   0.506443  -0.000000  -0.000090   0.000004
    11  C   -0.035755  -0.043824  -0.083070  -0.000000   0.000004   0.000000
    12  C    0.540860  -0.029956  -0.043708   0.000000  -0.000000   0.000000
    13  C    4.806104   0.540805  -0.035916  -0.000000   0.000000  -0.000000
    14  C    0.540805   4.846772   0.502040   0.000000  -0.000001   0.000000
    15  C   -0.035916   0.502040   4.957187   0.000000  -0.000020  -0.000000
    16  H   -0.000000   0.000000   0.000000   0.714658   0.000452   0.001194
    17  H    0.000000  -0.000001  -0.000020   0.000452   0.560998   0.000000
    18  H   -0.000000   0.000000  -0.000000   0.001194   0.000000   0.571266
    19  H    0.000000  -0.000000  -0.000000   0.000029   0.000003  -0.024447
    20  H   -0.000000   0.000000  -0.000000   0.001194   0.000000  -0.029273
    21  H    0.005083   0.000285   0.005630   0.000000   0.000000   0.000001
    22  H   -0.042397   0.004559   0.000896   0.000000   0.000000  -0.000000
    23  H    0.368795  -0.041838   0.004825   0.000000  -0.000000   0.000000
    24  H   -0.042415   0.369942  -0.035998  -0.000000   0.000000  -0.000000
    25  H    0.005003  -0.045461   0.368340   0.000000  -0.000029  -0.000000
              19         20         21         22         23         24
     1  O   -0.000000   0.000019   0.000000  -0.000000   0.000000   0.000000
     2  C    0.000185  -0.000308  -0.000000  -0.000000  -0.000000  -0.000000
     3  C    0.004382   0.000590   0.000044  -0.000000   0.000000  -0.000000
     4  C   -0.000103  -0.000007  -0.000004  -0.000000  -0.000000  -0.000000
     5  N    0.000044   0.000018   0.000258   0.000001   0.000000  -0.000000
     6  C   -0.021945  -0.026993   0.000083   0.000000  -0.000000  -0.000000
     7  C    0.367239   0.371782  -0.000115   0.000000  -0.000000   0.000000
     8  N    0.006376   0.001415   0.016498  -0.000000   0.000000   0.000001
     9  C    0.000537  -0.000185  -0.012856  -0.000184   0.000009  -0.000182
    10  C   -0.000070   0.000004  -0.035639   0.003488   0.000728   0.003439
    11  C   -0.000013   0.000000   0.367161  -0.036262   0.004833   0.000903
    12  C    0.000001   0.000000  -0.046080   0.369655  -0.041973   0.004549
    13  C    0.000000  -0.000000   0.005083  -0.042397   0.368795  -0.042415
    14  C   -0.000000   0.000000   0.000285   0.004559  -0.041838   0.369942
    15  C   -0.000000  -0.000000   0.005630   0.000896   0.004825  -0.035998
    16  H    0.000029   0.001194   0.000000   0.000000   0.000000  -0.000000
    17  H    0.000003   0.000000   0.000000   0.000000  -0.000000   0.000000
    18  H   -0.024447  -0.029273   0.000001  -0.000000   0.000000  -0.000000
    19  H    0.548000  -0.024452   0.000266  -0.000000  -0.000000   0.000000
    20  H   -0.024452   0.571307   0.000001  -0.000000   0.000000  -0.000000
    21  H    0.000266   0.000001   0.596708  -0.006176  -0.000187   0.000017
    22  H   -0.000000  -0.000000  -0.006176   0.621843  -0.006160  -0.000197
    23  H   -0.000000   0.000000  -0.000187  -0.006160   0.628374  -0.006143
    24  H    0.000000  -0.000000   0.000017  -0.000197  -0.006143   0.619955
    25  H   -0.000000  -0.000000  -0.000163   0.000016  -0.000186  -0.006083
              25
     1  O    0.000000
     2  C   -0.000000
     3  C    0.000030
     4  C   -0.000094
     5  N    0.015972
     6  C    0.000007
     7  C    0.000000
     8  N    0.000252
     9  C   -0.011866
    10  C   -0.035187
    11  C    0.005535
    12  C    0.000309
    13  C    0.005003
    14  C   -0.045461
    15  C    0.368340
    16  H    0.000000
    17  H   -0.000029
    18  H   -0.000000
    19  H   -0.000000
    20  H   -0.000000
    21  H   -0.000163
    22  H    0.000016
    23  H   -0.000186
    24  H   -0.006083
    25  H    0.588733
 Mulliken charges:
               1
     1  O   -0.417507
     2  C    0.258273
     3  C    0.002159
     4  C    0.110654
     5  N   -0.479643
     6  C    0.264177
     7  C   -0.381136
     8  N   -0.517997
     9  C    0.429653
    10  C    0.071987
    11  C   -0.109279
    12  C   -0.087239
    13  C   -0.075577
    14  C   -0.087363
    15  C   -0.109423
    16  H    0.076114
    17  H    0.142275
    18  H    0.134903
    19  H    0.143971
    20  H    0.134887
    21  H    0.109185
    22  H    0.090918
    23  H    0.088922
    24  H    0.092214
    25  H    0.114872
 Sum of Mulliken charges =  -0.00000
 Mulliken charges with hydrogens summed into heavy atoms:
               1
     1  O   -0.417507
     2  C    0.334386
     3  C    0.002159
     4  C    0.252929
     5  N   -0.479643
     6  C    0.264177
     7  C    0.032626
     8  N   -0.517997
     9  C    0.429653
    10  C    0.071987
    11  C   -0.000094
    12  C    0.003679
    13  C    0.013345
    14  C    0.004851
    15  C    0.005449
 Electronic spatial extent (au):  <R**2>=           4009.2434
 Charge=             -0.0000 electrons
 Dipole moment (field-independent basis, Debye):
    X=              1.3861    Y=              2.4606    Z=              0.0002  Tot=              2.8242
 Quadrupole moment (field-independent basis, Debye-Ang):
   XX=            -84.2831   YY=            -82.3705   ZZ=            -87.1104
   XY=            -10.9945   XZ=             -0.0004   YZ=             -0.0009
 Traceless Quadrupole moment (field-independent basis, Debye-Ang):
   XX=              0.3050   YY=              2.2175   ZZ=             -2.5224
   XY=            -10.9945   XZ=             -0.0004   YZ=             -0.0009
 Octapole moment (field-independent basis, Debye-Ang**2):
  XXX=             97.7216  YYY=              4.1243  ZZZ=              0.0001  XYY=              6.6227
  XXY=             49.0109  XXZ=              0.0037  XZZ=            -18.9754  YZZ=             -0.5802
  YYZ=              0.0006  XYZ=             -0.0025
 Hexadecapole moment (field-independent basis, Debye-Ang**3):
 XXXX=          -4475.3351 YYYY=           -836.8701 ZZZZ=            -91.3515 XXXY=           -227.8007
 XXXZ=             -0.0113 YYYX=             -3.4887 YYYZ=             -0.0043 ZZZX=              0.0002
 ZZZY=              0.0012 XXYY=           -854.7565 XXZZ=           -770.2145 YYZZ=           -166.1513
 XXYZ=             -0.0091 YYXZ=              0.0017 ZZXY=              4.9257
 N-N= 8.698503145895D+02 E-N=-3.244786075351D+03  KE= 6.416931539828D+02
 Calling FoFJK, ICntrl=      2127 FMM=F ISym2X=0 I1Cent= 0 IOpClX= 0 NMat=1 NMatS=1 NMatT=0.
 ***** Axes restored to original set *****
 -------------------------------------------------------------------
 Center     Atomic                   Forces (Hartrees/Bohr)
 Number     Number              X              Y              Z
 -------------------------------------------------------------------
      1        8           0.009071284    0.017542856   -0.001535710
      2        6           0.004757164   -0.022947054    0.001762394
      3        6          -0.003225559   -0.004817357    0.000427765
      4        6           0.030017073    0.009591675   -0.001208277
      5        7          -0.013824087    0.005843021   -0.000270133
      6        6           0.020241841    0.019281661   -0.001821276
      7        6           0.003008294   -0.006484412    0.000425061
      8        7          -0.006700914   -0.016459270    0.001407561
      9        6          -0.006647887   -0.000338223    0.000135649
     10        6          -0.008483223   -0.001110842    0.000209140
     11        6          -0.001596805    0.004090722   -0.000314607
     12        6          -0.005194404   -0.005189708    0.000509552
     13        6           0.004640607    0.000624029   -0.000135556
     14        6          -0.006371830    0.003607727   -0.000186882
     15        6          -0.000649409   -0.004688950    0.000390468
     16        1          -0.006931168    0.007933483   -0.000532594
     17        1          -0.003264489   -0.001178914    0.000144401
     18        1          -0.004247252   -0.000056470    0.001267672
     19        1           0.004507589   -0.004513164    0.000302169
     20        1          -0.004261375   -0.000248484   -0.001081328
     21        1          -0.005427708   -0.000405470    0.000112353
     22        1           0.000535310    0.003246924   -0.000270989
     23        1           0.003965257    0.000614518   -0.000104023
     24        1           0.001449243   -0.002917968    0.000211401
     25        1          -0.005367553   -0.001020327    0.000155787
 -------------------------------------------------------------------
 Cartesian Forces:  Max     0.030017073 RMS     0.007249662

 GradGradGradGradGradGradGradGradGradGradGradGradGradGradGradGradGradGrad
 Berny optimization.
 FormGI is forming the generalized inverse of G from B-inverse, IUseBI=4.
 Internal  Forces:  Max     0.028303547 RMS     0.005714209
 Search for a local minimum.
 Step number   1 out of a maximum of  131
 All quantities printed in internal units (Hartrees-Bohrs-Radians)
 Mixed Optimization -- RFO/linear search
 Second derivative matrix not updated -- first step.
 ITU=  0
     Eigenvalues ---    0.00477   0.00684   0.00947   0.00947   0.01359
     Eigenvalues ---    0.01527   0.01596   0.01691   0.02033   0.02054
     Eigenvalues ---    0.02088   0.02103   0.02131   0.02154   0.02185
     Eigenvalues ---    0.02194   0.02197   0.02199   0.02203   0.02209
     Eigenvalues ---    0.07021   0.07150   0.16000   0.16000   0.16000
     Eigenvalues ---    0.16000   0.16000   0.16000   0.16000   0.16000
     Eigenvalues ---    0.16000   0.16000   0.22000   0.22000   0.22000
     Eigenvalues ---    0.23297   0.23462   0.25000   0.25000   0.25000
     Eigenvalues ---    0.25000   0.25000   0.25000   0.30187   0.31733
     Eigenvalues ---    0.33858   0.34669   0.34827   0.34835   0.34844
     Eigenvalues ---    0.35658   0.35907   0.35947   0.35948   0.35966
     Eigenvalues ---    0.35990   0.41634   0.41902   0.42670   0.44181
     Eigenvalues ---    0.45237   0.46195   0.46833   0.47102   0.50018
     Eigenvalues ---    0.50493   0.52604   0.53397   0.90891
 RFO step:  Lambda=-1.00728160D-02 EMin= 4.76578935D-03
 Linear search not attempted -- first point.
 Iteration  1 RMS(Cart)=  0.05113663 RMS(Int)=  0.00026817
 Iteration  2 RMS(Cart)=  0.00032360 RMS(Int)=  0.00004680
 Iteration  3 RMS(Cart)=  0.00000005 RMS(Int)=  0.00004680
 Variable       Old X    -DE/DX   Delta X   Delta X   Delta X     New X
                                 (Linear)    (Quad)   (Total)
    R1        2.32525  -0.01977   0.00000  -0.02151  -0.02151   2.30374
    R2        2.80870  -0.00724   0.00000  -0.02078  -0.02078   2.78793
    R3        2.05928   0.01051   0.00000   0.02930   0.02930   2.08859
    R4        2.64732  -0.00263   0.00000  -0.00450  -0.00458   2.64274
    R5        2.65747  -0.00134   0.00000  -0.00128  -0.00136   2.65612
    R6        2.56420  -0.02830   0.00000  -0.05220  -0.05221   2.51199
    R7        2.04620   0.00214   0.00000   0.00585   0.00585   2.05205
    R8        2.57471  -0.01567   0.00000  -0.03076  -0.03068   2.54403
    R9        2.87593  -0.00892   0.00000  -0.02859  -0.02859   2.84733
   R10        2.56790  -0.02293   0.00000  -0.04195  -0.04194   2.52596
   R11        2.05944   0.00345   0.00000   0.00961   0.00961   2.06905
   R12        2.06215  -0.00116   0.00000  -0.00325  -0.00325   2.05890
   R13        2.05957   0.00340   0.00000   0.00950   0.00950   2.06907
   R14        2.57576  -0.01562   0.00000  -0.03037  -0.03028   2.54547
   R15        2.84636  -0.02273   0.00000  -0.06942  -0.06942   2.77694
   R16        2.65673  -0.00399   0.00000  -0.00946  -0.00942   2.64731
   R17        2.65691  -0.00416   0.00000  -0.00981  -0.00977   2.64714
   R18        2.63215  -0.00058   0.00000  -0.00122  -0.00122   2.63093
   R19        2.04097   0.00294   0.00000   0.00794   0.00794   2.04891
   R20        2.62843   0.00555   0.00000   0.01219   0.01215   2.64058
   R21        2.04164   0.00323   0.00000   0.00874   0.00874   2.05037
   R22        2.62842   0.00553   0.00000   0.01215   0.01212   2.64054
   R23        2.04227   0.00401   0.00000   0.01087   0.01087   2.05314
   R24        2.63191  -0.00041   0.00000  -0.00086  -0.00086   2.63105
   R25        2.04165   0.00319   0.00000   0.00864   0.00864   2.05029
   R26        2.04134   0.00279   0.00000   0.00756   0.00756   2.04890
    A1        2.16142  -0.00270   0.00000  -0.01175  -0.01175   2.14968
    A2        2.10626   0.00037   0.00000   0.00009   0.00009   2.10635
    A3        2.01550   0.00233   0.00000   0.01166   0.01166   2.02716
    A4        2.09715  -0.00123   0.00000  -0.00745  -0.00736   2.08978
    A5        2.15746   0.00027   0.00000  -0.00169  -0.00160   2.15586
    A6        2.02857   0.00096   0.00000   0.00913   0.00896   2.03754
    A7        2.14308   0.00123   0.00000   0.00710   0.00700   2.15008
    A8        2.11671  -0.00341   0.00000  -0.01999  -0.01994   2.09677
    A9        2.02339   0.00218   0.00000   0.01289   0.01294   2.03633
   A10        2.04460  -0.00623   0.00000  -0.02918  -0.02910   2.01550
   A11        2.15366  -0.00096   0.00000  -0.00562  -0.00558   2.14808
   A12        2.12961  -0.00644   0.00000  -0.02092  -0.02099   2.10862
   A13        1.99991   0.00740   0.00000   0.02653   0.02657   2.02648
   A14        1.92656   0.00265   0.00000   0.01555   0.01556   1.94211
   A15        1.95459  -0.00934   0.00000  -0.05490  -0.05477   1.89983
   A16        1.92649   0.00265   0.00000   0.01560   0.01561   1.94210
   A17        1.87726   0.00345   0.00000   0.02032   0.02044   1.89770
   A18        1.89994  -0.00277   0.00000  -0.01633  -0.01644   1.88350
   A19        1.87712   0.00346   0.00000   0.02040   0.02052   1.89765
   A20        2.05373  -0.00129   0.00000  -0.00672  -0.00659   2.04714
   A21        2.16678   0.01177   0.00000   0.04058   0.04072   2.20749
   A22        2.05828  -0.00585   0.00000  -0.02014  -0.02021   2.03807
   A23        2.05813  -0.00592   0.00000  -0.02043  -0.02050   2.03763
   A24        2.11467  -0.00430   0.00000  -0.01554  -0.01558   2.09910
   A25        2.11470  -0.00477   0.00000  -0.01738  -0.01741   2.09728
   A26        2.05382   0.00907   0.00000   0.03292   0.03299   2.08681
   A27        2.11715  -0.00434   0.00000  -0.01961  -0.01957   2.09757
   A28        2.10109  -0.00250   0.00000  -0.01770  -0.01771   2.08338
   A29        2.06495   0.00685   0.00000   0.03730   0.03729   2.10223
   A30        2.08910   0.00110   0.00000   0.00695   0.00691   2.09601
   A31        2.09567  -0.00125   0.00000  -0.00760  -0.00759   2.08809
   A32        2.09841   0.00015   0.00000   0.00066   0.00068   2.09909
   A33        2.10000  -0.00256   0.00000  -0.00752  -0.00759   2.09240
   A34        2.09172   0.00125   0.00000   0.00362   0.00365   2.09538
   A35        2.09146   0.00130   0.00000   0.00390   0.00394   2.09540
   A36        2.08915   0.00116   0.00000   0.00722   0.00718   2.09633
   A37        2.09865   0.00012   0.00000   0.00051   0.00053   2.09918
   A38        2.09539  -0.00128   0.00000  -0.00773  -0.00771   2.08768
   A39        2.11717  -0.00443   0.00000  -0.01995  -0.01992   2.09725
   A40        2.10145  -0.00258   0.00000  -0.01822  -0.01824   2.08321
   A41        2.06457   0.00701   0.00000   0.03817   0.03816   2.10273
    D1       -0.00003   0.00000   0.00000   0.00013   0.00013   0.00010
    D2        3.14151   0.00000   0.00000   0.00015   0.00015  -3.14152
    D3       -3.14156  -0.00000   0.00000  -0.00012  -0.00012   3.14151
    D4       -0.00002  -0.00000   0.00000  -0.00010  -0.00010  -0.00012
    D5       -3.14159  -0.00000   0.00000  -0.00003  -0.00003   3.14157
    D6        0.00002  -0.00000   0.00000  -0.00003  -0.00003  -0.00001
    D7        0.00006  -0.00000   0.00000  -0.00005  -0.00005   0.00001
    D8       -3.14152  -0.00000   0.00000  -0.00006  -0.00006  -3.14158
    D9        0.00010  -0.00000   0.00000  -0.00009  -0.00009   0.00001
   D10        3.14155   0.00000   0.00000   0.00006   0.00006  -3.14157
   D11       -3.14154  -0.00000   0.00000  -0.00007  -0.00007   3.14157
   D12       -0.00010   0.00000   0.00000   0.00009   0.00009  -0.00001
   D13       -0.00003   0.00000   0.00000   0.00003   0.00002  -0.00000
   D14        3.14155   0.00000   0.00000   0.00003   0.00003   3.14159
   D15        0.00002  -0.00000   0.00000  -0.00004  -0.00004  -0.00001
   D16        3.14155   0.00000   0.00000   0.00006   0.00007  -3.14157
   D17        1.05046  -0.00000   0.00000  -0.00001   0.00009   1.05054
   D18        3.14155  -0.00000   0.00000   0.00002   0.00002   3.14157
   D19       -1.05075   0.00001   0.00000   0.00018   0.00009  -1.05066
   D20       -2.09100  -0.00001   0.00000  -0.00015  -0.00006  -2.09106
   D21        0.00010  -0.00001   0.00000  -0.00013  -0.00013  -0.00003
   D22        2.09098   0.00001   0.00000   0.00004  -0.00005   2.09092
   D23        0.00009  -0.00000   0.00000  -0.00010  -0.00010  -0.00000
   D24        3.14155   0.00000   0.00000   0.00004   0.00004  -3.14159
   D25       -0.00006   0.00000   0.00000   0.00007   0.00007   0.00001
   D26       -3.14159  -0.00000   0.00000  -0.00003  -0.00003   3.14157
   D27        3.14150  -0.00000   0.00000  -0.00000  -0.00000   3.14150
   D28       -0.00006  -0.00000   0.00000  -0.00003  -0.00003  -0.00009
   D29       -0.00016   0.00000   0.00000   0.00009   0.00009  -0.00006
   D30        3.14148   0.00000   0.00000   0.00006   0.00006   3.14154
   D31       -3.14150  -0.00000   0.00000  -0.00007  -0.00007  -3.14157
   D32        0.00001   0.00000   0.00000  -0.00000  -0.00000   0.00001
   D33        0.00005  -0.00000   0.00000  -0.00004  -0.00004   0.00001
   D34        3.14157   0.00000   0.00000   0.00002   0.00002   3.14159
   D35        3.14156   0.00000   0.00000   0.00002   0.00002   3.14158
   D36       -0.00012   0.00000   0.00000   0.00009   0.00009  -0.00003
   D37        0.00000  -0.00000   0.00000  -0.00001  -0.00001  -0.00001
   D38        3.14151   0.00000   0.00000   0.00007   0.00006   3.14157
   D39       -0.00014   0.00000   0.00000   0.00012   0.00012  -0.00002
   D40       -3.14157  -0.00000   0.00000  -0.00001  -0.00001  -3.14158
   D41        3.14153   0.00000   0.00000   0.00006   0.00006   3.14159
   D42        0.00010  -0.00000   0.00000  -0.00007  -0.00007   0.00003
   D43        0.00017  -0.00000   0.00000  -0.00015  -0.00015   0.00001
   D44       -3.14158  -0.00000   0.00000  -0.00003  -0.00003   3.14157
   D45       -3.14159  -0.00000   0.00000  -0.00003  -0.00003   3.14157
   D46       -0.00015   0.00000   0.00000   0.00010   0.00010  -0.00005
   D47       -0.00011   0.00000   0.00000   0.00010   0.00010  -0.00001
   D48        3.14158   0.00000   0.00000   0.00003   0.00003  -3.14158
   D49       -3.14155  -0.00000   0.00000  -0.00002  -0.00002  -3.14157
   D50        0.00014  -0.00000   0.00000  -0.00010  -0.00010   0.00005
   D51        0.00003  -0.00000   0.00000  -0.00002  -0.00002   0.00001
   D52       -3.14148  -0.00000   0.00000  -0.00009  -0.00009  -3.14157
   D53        3.14152   0.00000   0.00000   0.00005   0.00005   3.14157
   D54        0.00001  -0.00000   0.00000  -0.00002  -0.00002  -0.00000
         Item               Value     Threshold  Converged?
 Maximum Force            0.028304     0.000450     NO 
 RMS     Force            0.005714     0.000300     NO 
 Maximum Displacement     0.191364     0.001800     NO 
 RMS     Displacement     0.051204     0.001200     NO 
 Predicted change in Energy=-5.195115D-03
 GradGradGradGradGradGradGradGradGradGradGradGradGradGradGradGradGradGrad

                          Input orientation:                          
 ---------------------------------------------------------------------
 Center     Atomic      Atomic             Coordinates (Angstroms)
 Number     Number       Type             X           Y           Z
 ---------------------------------------------------------------------
      1          8           0       -4.478035   -2.136128    0.198395
      2          6           0       -4.014999   -1.012571    0.101466
      3          6           0       -2.566181   -0.737631    0.058294
      4          6           0       -1.656595   -1.797466    0.129989
      5          7           0       -0.338480   -1.628631    0.097208
      6          6           0       -2.024283    0.554460   -0.053227
      7          6           0       -2.872068    1.797006   -0.140498
      8          7           0       -0.701195    0.741472   -0.087541
      9          6           0        0.079551   -0.353528   -0.011131
     10          6           0        1.532060   -0.134151   -0.049962
     11          6           0        2.047458    1.163694   -0.161666
     12          6           0        3.423910    1.369445   -0.198319
     13          6           0        4.297218    0.281180   -0.123734
     14          6           0        3.786778   -1.014776   -0.012253
     15          6           0        2.410590   -1.222674    0.024562
     16          1           0       -4.679915   -0.131818    0.040644
     17          1           0       -2.015211   -2.818730    0.217101
     18          1           0       -3.501939    1.911380    0.747743
     19          1           0       -2.217908    2.664688   -0.219602
     20          1           0       -3.527602    1.769902   -1.017057
     21          1           0        1.364580    2.003896   -0.219120
     22          1           0        3.813506    2.378382   -0.284979
     23          1           0        5.371281    0.442417   -0.152407
     24          1           0        4.459109   -1.864313    0.046122
     25          1           0        2.008069   -2.225703    0.110972
 ---------------------------------------------------------------------
                    Distance matrix (angstroms):
                    1          2          3          4          5
     1  O    0.000000
     2  C    1.219089   0.000000
     3  C    2.372890   1.475307   0.000000
     4  C    2.842516   2.485748   1.398477   0.000000
     5  N    4.171774   3.727779   2.399593   1.329287   0.000000
     6  C    3.650134   2.538202   1.405557   2.387534   2.762327
     7  C    4.261868   3.042788   2.560756   3.804046   4.267384
     8  N    4.756769   3.754156   2.384782   2.721454   2.404804
     9  C    4.898280   4.148777   2.674369   2.262537   1.346245
    10  C    6.339623   5.618221   4.143849   3.600905   2.398760
    11  C    7.321238   6.446608   4.994906   4.751162   3.681956
    12  C    8.653737   7.816728   6.355062   5.995719   4.819894
    13  C    9.107810   8.415311   6.940991   6.311341   5.018555
    14  C    8.343197   7.802606   6.359393   5.501195   4.172117
    15  C    6.951098   6.429483   5.000465   4.108952   2.779832
    16  H    2.020619   1.105233   2.198907   3.452945   4.592571
    17  H    2.555738   2.697171   2.158647   1.085898   2.059644
    18  H    4.199627   3.038156   2.892792   4.188371   4.791904
    19  H    5.322662   4.105466   3.431370   4.510888   4.697362
    20  H    4.199729   3.038225   2.892825   4.188377   4.791880
    21  H    7.172884   6.175898   4.800397   4.868237   4.024393
    22  H    9.453258   8.540105   7.108289   6.894338   5.782837
    23  H   10.187295   9.501774   8.027466   7.381590   6.078892
    24  H    8.942573   8.516985   7.115073   6.116644   4.803647
    25  H    6.487312   6.144032   4.810499   3.689649   2.421359
                    6          7          8          9         10
     6  C    0.000000
     7  C    1.506744   0.000000
     8  N    1.336679   2.414466   0.000000
     9  C    2.291796   3.654256   1.347007   0.000000
    10  C    3.622398   4.809772   2.399074   1.469495   0.000000
    11  C    4.118495   4.960169   2.781881   2.489435   1.400898
    12  C    5.510722   6.310745   4.174101   3.766752   2.421138
    13  C    6.327798   7.327802   5.019693   4.266644   2.797149
    14  C    6.019353   7.229302   4.819957   3.765739   2.420884
    15  C    4.778321   6.087051   3.681527   2.488058   1.400804
    16  H    2.744480   2.649808   4.075448   4.764908   6.212635
    17  H    3.384017   4.708195   3.807162   3.243044   4.456615
    18  H    2.160151   1.094893   3.148103   4.304970   5.491964
    19  H    2.125614   1.089521   2.452880   3.798869   4.682365
    20  H    2.160147   1.094903   3.148054   4.304926   5.491891
    21  H    3.689549   4.242425   2.424553   2.692956   2.151258
    22  H    6.120472   6.712360   4.806348   4.634732   3.401919
    23  H    7.397078   8.353913   6.080182   5.353121   3.883626
    24  H    6.920600   8.196722   5.782449   4.633172   3.401516
    25  H    4.900626   6.329389   4.022890   2.690564   2.151063
                   11         12         13         14         15
    11  C    0.000000
    12  C    1.392228   0.000000
    13  C    2.416959   1.397337   0.000000
    14  C    2.791647   2.418844   1.397311   0.000000
    15  C    2.421012   2.792056   2.417217   1.392290   0.000000
    16  H    6.853964   8.245173   8.988131   8.512773   7.173944
    17  H    5.701618   6.877312   7.040765   6.080291   4.708734
    18  H    5.672906   7.011142   8.015228   7.890842   6.730771
    19  H    4.522133   5.788629   6.938096   7.045404   6.049314
    20  H    5.672783   7.011007   8.015118   7.890768   6.730721
    21  H    1.084234   2.154949   3.402531   3.875852   3.400629
    22  H    2.146997   1.085010   2.158294   3.404205   3.877060
    23  H    3.401195   2.157254   1.086477   2.157245   3.401403
    24  H    3.876605   3.404200   2.158286   1.084965   2.146765
    25  H    3.400573   3.876255   3.402903   2.155304   1.084230
                   16         17         18         19         20
    16  H    0.000000
    17  H    3.788308   0.000000
    18  H    2.462168   4.986569   0.000000
    19  H    3.734923   5.504513   1.775377   0.000000
    20  H    2.462335   4.986583   1.770648   1.775351   0.000000
    21  H    6.415970   5.905167   4.962498   3.642920   4.962348
    22  H    8.862580   7.825343   7.402725   6.038560   7.402570
    23  H   10.069437   8.082814   9.038925   7.908148   9.038803
    24  H    9.301792   6.546524   8.838915   8.072486   8.838859
    25  H    7.008454   4.068136   6.919619   6.471792   6.919607
                   21         22         23         24         25
    21  H    0.000000
    22  H    2.478269   0.000000
    23  H    4.300736   2.488413   0.000000
    24  H    4.960797   4.304287   2.488468   0.000000
    25  H    4.290985   4.961247   4.301096   2.478388   0.000000
 Stoichiometry    C12H10N2O
 Framework group  C1[X(C12H10N2O)]
 Deg. of freedom    69
 Full point group                 C1      NOp   1
 Largest Abelian subgroup         C1      NOp   1
 Largest concise Abelian subgroup C1      NOp   1
                         Standard orientation:                         
 ---------------------------------------------------------------------
 Center     Atomic      Atomic             Coordinates (Angstroms)
 Number     Number       Type             X           Y           Z
 ---------------------------------------------------------------------
      1          8           0       -4.534196   -1.342660   -0.000024
      2          6           0       -3.933740   -0.281704   -0.000061
      3          6           0       -2.461441   -0.187545   -0.000009
      4          6           0       -1.691708   -1.355127   -0.000039
      5          7           0       -0.362429   -1.350384   -0.000017
      6          6           0       -1.761582    1.031384    0.000033
      7          6           0       -2.447065    2.373171    0.000046
      8          7           0       -0.425088    1.053604    0.000053
      9          6           0        0.212372   -0.133018    0.000034
     10          6           0        1.681366   -0.094616    0.000025
     11          6           0        2.355650    1.133332   -0.000042
     12          6           0        3.747456    1.167597   -0.000078
     13          6           0        4.477618   -0.023795   -0.000030
     14          6           0        3.808491   -1.250477    0.000038
     15          6           0        2.416678   -1.286911    0.000068
     16          1           0       -4.483127    0.677313    0.000052
     17          1           0       -2.175705   -2.327198   -0.000088
     18          1           0       -3.079476    2.496196    0.885321
     19          1           0       -1.689035    3.155759    0.000102
     20          1           0       -3.079343    2.496267   -0.885326
     21          1           0        1.783354    2.054223   -0.000076
     22          1           0        4.260652    2.123566   -0.000113
     23          1           0        5.563749    0.003627   -0.000075
     24          1           0        4.369149   -2.179353    0.000090
     25          1           0        1.891395   -2.235401    0.000138
 ---------------------------------------------------------------------
 Rotational constants (GHZ):           1.7269156           0.3131778           0.2655415
 Standard basis: 6-31G(d,p) (6D, 7F)
 There are   275 symmetry adapted cartesian basis functions of A   symmetry.
 There are   275 symmetry adapted basis functions of A   symmetry.
   275 basis functions,   490 primitive gaussians,   275 cartesian basis functions
    52 alpha electrons       52 beta electrons
       nuclear repulsion energy       879.1300940525 Hartrees.
 NAtoms=   25 NActive=   25 NUniq=   25 SFac= 1.00D+00 NAtFMM=   60 NAOKFM=F Big=F
 Integral buffers will be    131072 words long.
 Raffenetti 2 integral format.
 Two-electron integral symmetry is turned on.
 Nuclear repulsion after empirical dispersion term =      879.0781565472 Hartrees.
 One-electron integrals computed using PRISM.
 NBasis=   275 RedAO= T EigKep=  4.53D-04  NBF=   275
 NBsUse=   275 1.00D-06 EigRej= -1.00D+00 NBFU=   275
 Initial guess from the checkpoint file:  "pyrmd5_conf-1.chk"
 B after Tr=     0.000000    0.000000    0.000000
         Rot=    1.000000    0.000000    0.000000   -0.000653 Ang=   0.07 deg.
 ExpMin= 1.61D-01 ExpMax= 5.48D+03 ExpMxC= 8.25D+02 IAcc=3 IRadAn=         5 AccDes= 0.00D+00
 Harris functional with IExCor=  402 and IRadAn=       5 diagonalized for initial guess.
 HarFok:  IExCor=  402 AccDes= 0.00D+00 IRadAn=         5 IDoV= 1 UseB2=F ITyADJ=14
 ICtDFT=  3500011 ScaDFX=  1.000000  1.000000  1.000000  1.000000
 FoFCou: FMM=F IPFlag=           0 FMFlag=      100000 FMFlg1=           0
         NFxFlg=           0 DoJE=T BraDBF=F KetDBF=T FulRan=T
         wScrn=  0.000000 ICntrl=       500 IOpCl=  0 I1Cent=   200000004 NGrid=           0
         NMat0=    1 NMatS0=      1 NMatT0=    0 NMatD0=    1 NMtDS0=    0 NMtDT0=    0
 Petite list used in FoFCou.
 Requested convergence on RMS density matrix=1.00D-08 within 128 cycles.
 Requested convergence on MAX density matrix=1.00D-06.
 Requested convergence on             energy=1.00D-06.
 No special actions if energy rises.
 Integral accuracy reduced to 1.0D-05 until final iterations.
 Initial convergence to 1.0D-05 achieved.  Increase integral accuracy.
 SCF Done:  E(RB3LYP) =  -648.097499408     A.U. after   12 cycles
            NFock= 12  Conv=0.70D-08     -V/T= 2.0094
 Calling FoFJK, ICntrl=      2127 FMM=F ISym2X=0 I1Cent= 0 IOpClX= 0 NMat=1 NMatS=1 NMatT=0.
 ***** Axes restored to original set *****
 -------------------------------------------------------------------
 Center     Atomic                   Forces (Hartrees/Bohr)
 Number     Number              X              Y              Z
 -------------------------------------------------------------------
      1        8          -0.000915129    0.001270660   -0.000096507
      2        6           0.001972735   -0.004233046    0.000333417
      3        6          -0.004206926   -0.000883587    0.000124239
      4        6           0.003927988   -0.003226356    0.000201455
      5        7          -0.006984242    0.001014288    0.000022537
      6        6           0.001506181    0.005233994   -0.000441975
      7        6           0.000151852   -0.000332198    0.000016720
      8        7          -0.004889407   -0.005119571    0.000483865
      9        6           0.006471507    0.003392855   -0.000370050
     10        6           0.001177949    0.000644597   -0.000068476
     11        6           0.003603125    0.003666439   -0.000347850
     12        6          -0.000699548   -0.001263880    0.000114528
     13        6           0.000346077   -0.000036497   -0.000005293
     14        6          -0.000935743    0.001097814   -0.000072543
     15        6           0.004343953   -0.002549529    0.000142045
     16        1          -0.001089274    0.001266122   -0.000093154
     17        1          -0.002633002    0.000003077    0.000038436
     18        1          -0.000542773   -0.000019532   -0.000575731
     19        1           0.000431676    0.000128758   -0.000013942
     20        1          -0.000524572    0.000071608    0.000591940
     21        1          -0.000380627   -0.001544336    0.000129861
     22        1           0.000507887    0.000189271   -0.000023850
     23        1          -0.000380327   -0.000058339    0.000011612
     24        1           0.000541171   -0.000031292   -0.000006237
     25        1          -0.000800533    0.001318681   -0.000095046
 -------------------------------------------------------------------
 Cartesian Forces:  Max     0.006984242 RMS     0.002089187

 GradGradGradGradGradGradGradGradGradGradGradGradGradGradGradGradGradGrad
 Berny optimization.
 Using GEDIIS/GDIIS optimizer.
 FormGI is forming the generalized inverse of G from B-inverse, IUseBI=4.
 Internal  Forces:  Max     0.007830579 RMS     0.001574866
 Search for a local minimum.
 Step number   2 out of a maximum of  131
 All quantities printed in internal units (Hartrees-Bohrs-Radians)
 Mixed Optimization -- RFO/linear search
 Update second derivatives using D2CorX and points    1    2
 DE= -4.49D-03 DEPred=-5.20D-03 R= 8.64D-01
 TightC=F SS=  1.41D+00  RLast= 1.77D-01 DXNew= 5.0454D-01 5.3022D-01
 Trust test= 8.64D-01 RLast= 1.77D-01 DXMaxT set to 5.05D-01
 ITU=  1  0
 Use linear search instead of GDIIS.
     Eigenvalues ---    0.00477   0.00684   0.00947   0.00947   0.01345
     Eigenvalues ---    0.01551   0.01610   0.01695   0.02032   0.02054
     Eigenvalues ---    0.02091   0.02106   0.02133   0.02154   0.02184
     Eigenvalues ---    0.02194   0.02197   0.02198   0.02203   0.02209
     Eigenvalues ---    0.07046   0.07301   0.14770   0.16000   0.16000
     Eigenvalues ---    0.16000   0.16000   0.16000   0.16000   0.16000
     Eigenvalues ---    0.16000   0.16124   0.21900   0.22000   0.22062
     Eigenvalues ---    0.23263   0.23412   0.24655   0.25000   0.25000
     Eigenvalues ---    0.25000   0.25000   0.27019   0.30156   0.33605
     Eigenvalues ---    0.34393   0.34647   0.34773   0.34831   0.35279
     Eigenvalues ---    0.35634   0.35909   0.35925   0.35947   0.35978
     Eigenvalues ---    0.36542   0.41976   0.42345   0.42542   0.44181
     Eigenvalues ---    0.45218   0.46115   0.46826   0.47101   0.50020
     Eigenvalues ---    0.51422   0.52418   0.56236   0.90224
 RFO step:  Lambda=-7.22161452D-04 EMin= 4.76578935D-03
 Quartic linear search produced a step of -0.11122.
 Iteration  1 RMS(Cart)=  0.01199998 RMS(Int)=  0.00003097
 Iteration  2 RMS(Cart)=  0.00005045 RMS(Int)=  0.00000486
 Iteration  3 RMS(Cart)=  0.00000000 RMS(Int)=  0.00000486
 Variable       Old X    -DE/DX   Delta X   Delta X   Delta X     New X
                                 (Linear)    (Quad)   (Total)
    R1        2.30374  -0.00083   0.00239  -0.00480  -0.00241   2.30133
    R2        2.78793   0.00035   0.00231  -0.00307  -0.00075   2.78717
    R3        2.08859   0.00167  -0.00326   0.00986   0.00660   2.09519
    R4        2.64274   0.00133   0.00051   0.00166   0.00216   2.64490
    R5        2.65612   0.00337   0.00015   0.00634   0.00648   2.66260
    R6        2.51199   0.00104   0.00581  -0.00808  -0.00227   2.50972
    R7        2.05205   0.00087  -0.00065   0.00328   0.00263   2.05468
    R8        2.54403   0.00439   0.00341   0.00174   0.00516   2.54920
    R9        2.84733   0.00015   0.00318  -0.00509  -0.00191   2.84542
   R10        2.52596   0.00093   0.00466  -0.00638  -0.00171   2.52425
   R11        2.06905  -0.00016  -0.00107   0.00144   0.00037   2.06942
   R12        2.05890   0.00036   0.00036   0.00031   0.00067   2.05956
   R13        2.06907  -0.00016  -0.00106   0.00141   0.00035   2.06942
   R14        2.54547   0.00136   0.00337  -0.00334   0.00004   2.54551
   R15        2.77694   0.00746   0.00772   0.00747   0.01519   2.79214
   R16        2.64731   0.00272   0.00105   0.00388   0.00493   2.65224
   R17        2.64714   0.00277   0.00109   0.00393   0.00501   2.65215
   R18        2.63093  -0.00035   0.00014  -0.00089  -0.00075   2.63018
   R19        2.04891  -0.00096  -0.00088  -0.00086  -0.00174   2.04717
   R20        2.64058  -0.00062  -0.00135   0.00088  -0.00047   2.64011
   R21        2.05037   0.00036  -0.00097   0.00256   0.00159   2.05196
   R22        2.64054  -0.00073  -0.00135   0.00067  -0.00068   2.63986
   R23        2.05314  -0.00038  -0.00121   0.00113  -0.00008   2.05306
   R24        2.63105  -0.00028   0.00010  -0.00070  -0.00060   2.63045
   R25        2.05029   0.00036  -0.00096   0.00254   0.00158   2.05187
   R26        2.04890  -0.00093  -0.00084  -0.00085  -0.00169   2.04721
    A1        2.14968   0.00197   0.00131   0.00562   0.00692   2.15660
    A2        2.10635  -0.00110  -0.00001  -0.00459  -0.00460   2.10175
    A3        2.02716  -0.00087  -0.00130  -0.00102  -0.00232   2.02484
    A4        2.08978  -0.00012   0.00082  -0.00167  -0.00084   2.08894
    A5        2.15586   0.00168   0.00018   0.00581   0.00600   2.16187
    A6        2.03754  -0.00156  -0.00100  -0.00414  -0.00516   2.03238
    A7        2.15008  -0.00019  -0.00078   0.00054  -0.00026   2.14982
    A8        2.09677  -0.00246   0.00222  -0.01771  -0.01548   2.08129
    A9        2.03633   0.00264  -0.00144   0.01717   0.01574   2.05207
   A10        2.01550   0.00478   0.00324   0.01163   0.01487   2.03037
   A11        2.14808  -0.00017   0.00062  -0.00156  -0.00094   2.14714
   A12        2.10862  -0.00051   0.00233  -0.00618  -0.00385   2.10477
   A13        2.02648   0.00068  -0.00295   0.00774   0.00479   2.03127
   A14        1.94211   0.00046  -0.00173   0.00517   0.00345   1.94556
   A15        1.89983  -0.00038   0.00609  -0.01218  -0.00610   1.89373
   A16        1.94210   0.00046  -0.00174   0.00519   0.00346   1.94555
   A17        1.89770   0.00016  -0.00227   0.00605   0.00377   1.90147
   A18        1.88350  -0.00086   0.00183  -0.01005  -0.00821   1.87529
   A19        1.89765   0.00016  -0.00228   0.00610   0.00381   1.90146
   A20        2.04714   0.00531   0.00073   0.01763   0.01838   2.06552
   A21        2.20749  -0.00783  -0.00453  -0.01948  -0.02399   2.18350
   A22        2.03807   0.00415   0.00225   0.01059   0.01283   2.05090
   A23        2.03763   0.00368   0.00228   0.00889   0.01116   2.04878
   A24        2.09910   0.00128   0.00173   0.00105   0.00279   2.10188
   A25        2.09728   0.00086   0.00194  -0.00080   0.00114   2.09842
   A26        2.08681  -0.00213  -0.00367  -0.00025  -0.00392   2.08288
   A27        2.09757   0.00052   0.00218  -0.00136   0.00081   2.09839
   A28        2.08338  -0.00156   0.00197  -0.01211  -0.01014   2.07324
   A29        2.10223   0.00104  -0.00415   0.01347   0.00932   2.11156
   A30        2.09601   0.00049  -0.00077   0.00263   0.00187   2.09787
   A31        2.08809   0.00017   0.00084   0.00015   0.00099   2.08908
   A32        2.09909  -0.00066  -0.00008  -0.00278  -0.00285   2.09623
   A33        2.09240   0.00013   0.00084  -0.00224  -0.00139   2.09101
   A34        2.09538  -0.00006  -0.00041   0.00110   0.00069   2.09607
   A35        2.09540  -0.00007  -0.00044   0.00114   0.00070   2.09610
   A36        2.09633   0.00048  -0.00080   0.00267   0.00188   2.09821
   A37        2.09918  -0.00066  -0.00006  -0.00280  -0.00286   2.09632
   A38        2.08768   0.00017   0.00086   0.00012   0.00098   2.08866
   A39        2.09725   0.00051   0.00222  -0.00145   0.00076   2.09801
   A40        2.08321  -0.00152   0.00203  -0.01199  -0.00996   2.07324
   A41        2.10273   0.00101  -0.00424   0.01344   0.00920   2.11193
    D1        0.00010  -0.00001  -0.00001  -0.00061  -0.00063  -0.00052
    D2       -3.14152  -0.00001  -0.00002  -0.00057  -0.00058   3.14108
    D3        3.14151   0.00001   0.00001   0.00055   0.00056  -3.14111
    D4       -0.00012   0.00001   0.00001   0.00060   0.00061   0.00049
    D5        3.14157   0.00000   0.00000   0.00002   0.00002  -3.14159
[...]
 Alpha virt. eigenvalues --    0.45353   0.46420   0.47176   0.48675   0.48804
 Alpha virt. eigenvalues --    0.49103   0.49965   0.51297   0.51423   0.51639
 Alpha virt. eigenvalues --    0.52413   0.53007   0.53346   0.53780   0.54492
 Alpha virt. eigenvalues --    0.55073   0.57488   0.57916   0.58314   0.59550
 Alpha virt. eigenvalues --    0.61058   0.61663   0.63135   0.63507   0.65291
 Alpha virt. eigenvalues --    0.65804   0.67056   0.67632   0.68637   0.69708
 Alpha virt. eigenvalues --    0.70750   0.70885   0.71607   0.73212   0.73228
 Alpha virt. eigenvalues --    0.75293   0.75712   0.76254   0.76834   0.77408
 Alpha virt. eigenvalues --    0.77794   0.78173   0.78428   0.78766   0.79106
 Alpha virt. eigenvalues --    0.80296   0.81553   0.83557   0.84014   0.86097
 Alpha virt. eigenvalues --    0.87759   0.87848   0.88818   0.89825   0.89850
 Alpha virt. eigenvalues --    0.91613   0.93338   0.94535   0.95504   0.98324
 Alpha virt. eigenvalues --    0.99296   0.99671   1.01270   1.01582   1.02675
 Alpha virt. eigenvalues --    1.03765   1.04789   1.07284   1.07980   1.09229
 Alpha virt. eigenvalues --    1.09889   1.10450   1.10598   1.15686   1.16217
 Alpha virt. eigenvalues --    1.16969   1.19826   1.23326   1.23869   1.24560
 Alpha virt. eigenvalues --    1.25218   1.25585   1.27607   1.28094   1.28785
 Alpha virt. eigenvalues --    1.30008   1.31026   1.32434   1.32651   1.34383
 Alpha virt. eigenvalues --    1.37210   1.37301   1.40058   1.41041   1.42782
 Alpha virt. eigenvalues --    1.43053   1.44408   1.44646   1.45868   1.46594
 Alpha virt. eigenvalues --    1.47741   1.50079   1.50535   1.51939   1.52103
 Alpha virt. eigenvalues --    1.54003   1.54453   1.54851   1.56318   1.56337
 Alpha virt. eigenvalues --    1.57658   1.59103   1.59594   1.59738   1.62563
 Alpha virt. eigenvalues --    1.63251   1.63934   1.64729   1.65498   1.66100
 Alpha virt. eigenvalues --    1.67570   1.68165   1.68463   1.69419   1.71829
 Alpha virt. eigenvalues --    1.72307   1.73409   1.73797   1.74174   1.74735
 Alpha virt. eigenvalues --    1.74901   1.75813   1.77723   1.81467   1.83826
 Alpha virt. eigenvalues --    1.87166   1.88550   1.89054   1.89823   1.91212
 Alpha virt. eigenvalues --    1.92358   1.94470   1.94863   1.95082   1.96772
 Alpha virt. eigenvalues --    2.00192   2.01122   2.01159   2.02902   2.03313
 Alpha virt. eigenvalues --    2.04175   2.06718   2.06763   2.08471   2.10521
 Alpha virt. eigenvalues --    2.11733   2.13127   2.13313   2.14872   2.16601
 Alpha virt. eigenvalues --    2.17823   2.18764   2.19562   2.24651   2.24782
 Alpha virt. eigenvalues --    2.26143   2.26541   2.28683   2.31492   2.31818
 Alpha virt. eigenvalues --    2.33641   2.35209   2.35661   2.36305   2.37417
 Alpha virt. eigenvalues --    2.39018   2.39886   2.40716   2.43243   2.45694
 Alpha virt. eigenvalues --    2.46951   2.47914   2.50011   2.51011   2.52505
 Alpha virt. eigenvalues --    2.52787   2.54135   2.56781   2.57210   2.59145
 Alpha virt. eigenvalues --    2.60204   2.60278   2.62699   2.62987   2.65570
 Alpha virt. eigenvalues --    2.67240   2.67477   2.67736   2.68463   2.69539
 Alpha virt. eigenvalues --    2.70316   2.71194   2.71406   2.71827   2.73912
 Alpha virt. eigenvalues --    2.75722   2.76086   2.77018   2.77489   2.79051
 Alpha virt. eigenvalues --    2.80409   2.80521   2.83051   2.83480   2.84625
 Alpha virt. eigenvalues --    2.85625   2.85653   2.86876   2.88464   2.88571
 Alpha virt. eigenvalues --    2.90523   2.90747   2.91663   2.93384   2.95479
 Alpha virt. eigenvalues --    2.95775   2.96365   2.97843   2.98045   2.99298
 Alpha virt. eigenvalues --    3.01177   3.01205   3.02775   3.04684   3.05253
 Alpha virt. eigenvalues --    3.06885   3.08836   3.08956   3.09938   3.11307
 Alpha virt. eigenvalues --    3.12134   3.12875   3.13239   3.13667   3.14813
 Alpha virt. eigenvalues --    3.15304   3.15910   3.17267   3.17341   3.18421
 Alpha virt. eigenvalues --    3.18805   3.20152   3.21417   3.22144   3.22892
 Alpha virt. eigenvalues --    3.23599   3.24784   3.26521   3.26918   3.27840
 Alpha virt. eigenvalues --    3.28244   3.29127   3.30684   3.30870   3.32017
 Alpha virt. eigenvalues --    3.32460   3.34094   3.34474   3.35498   3.36038
 Alpha virt. eigenvalues --    3.36288   3.37544   3.38634   3.39510   3.40770
 Alpha virt. eigenvalues --    3.41111   3.42123   3.43924   3.45403   3.47761
 Alpha virt. eigenvalues --    3.48061   3.49521   3.50662   3.51076   3.52616
 Alpha virt. eigenvalues --    3.54235   3.56409   3.57944   3.58201   3.59614
 Alpha virt. eigenvalues --    3.60780   3.66271   3.68122   3.68999   3.69088
 Alpha virt. eigenvalues --    3.71992   3.72204   3.74414   3.75530   3.77061
 Alpha virt. eigenvalues --    3.77109   3.79199   3.83522   3.84593   3.85512
 Alpha virt. eigenvalues --    3.85990   3.86437   3.87120   3.90404   3.91854
 Alpha virt. eigenvalues --    3.94322   3.98017   4.00998   4.01804   4.02441
 Alpha virt. eigenvalues --    4.05016   4.06197   4.08669   4.08741   4.10536
 Alpha virt. eigenvalues --    4.12663   4.13541   4.15055   4.15453   4.15827
 Alpha virt. eigenvalues --    4.17937   4.18416   4.18975   4.22980   4.23186
 Alpha virt. eigenvalues --    4.24497   4.28275   4.29355   4.29478   4.32044
 Alpha virt. eigenvalues --    4.34042   4.35411   4.39835   4.45189   4.46345
 Alpha virt. eigenvalues --    4.48036   4.53830   4.54003   4.57450   4.57714
 Alpha virt. eigenvalues --    4.61148   4.61621   4.63519   4.67312   4.69519
 Alpha virt. eigenvalues --    4.72749   4.73964   4.75521   4.80901   4.82863
 Alpha virt. eigenvalues --    4.85591   4.87682   4.89747   4.93343   4.93455
 Alpha virt. eigenvalues --    5.02265   5.02422   5.03637   5.04743   5.07490
 Alpha virt. eigenvalues --    5.07743   5.09587   5.13327   5.19909   5.20253
 Alpha virt. eigenvalues --    5.24409   5.26645   5.30349   5.31117   5.35411
 Alpha virt. eigenvalues --    5.36825   5.40532   5.40667   5.42931   5.47411
 Alpha virt. eigenvalues --    5.55156   5.57361   5.59720   5.63772   5.74819
 Alpha virt. eigenvalues --    5.76196   5.80508   5.83964   5.96548   6.03964
 Alpha virt. eigenvalues --    6.28787   6.34520   6.37031   6.47407   6.54311
 Alpha virt. eigenvalues --    6.77809   6.97256   7.03862  22.33095  22.52329
 Alpha virt. eigenvalues --   22.67208  22.68962  22.82973  22.87382  22.91859
 Alpha virt. eigenvalues --   22.93846  23.00066  23.20537  23.33249  23.46796
 Alpha virt. eigenvalues --   32.54457  32.87348  43.98003
          Condensed to atoms (all electrons):
               1          2          3          4          5          6
     1  O    7.839058   0.632334  -0.164266   0.026424   0.000676   0.001804
     2  C    0.632334   4.771100   0.028906  -0.006096   0.003570  -0.007016
     3  C   -0.164266   0.028906   6.005049   0.321313  -0.028754   0.338054
     4  C    0.026424  -0.006096   0.321313   4.876710   0.527900  -0.041972
     5  N    0.000676   0.003570  -0.028754   0.527900   6.540719  -0.046988
     6  C    0.001804  -0.007016   0.338054  -0.041972  -0.046988   5.035121
     7  C   -0.001862  -0.000554  -0.105828   0.014556  -0.003295   0.193118
     8  N   -0.000301   0.001265  -0.089122  -0.010230  -0.071192   0.563726
     9  C   -0.000278  -0.003230  -0.027109  -0.102169   0.434915  -0.089870
    10  C   -0.000053  -0.001223  -0.001981  -0.000145  -0.124237  -0.002126
    11  C    0.000001   0.000016   0.002422  -0.002051   0.011729  -0.000498
    12  C   -0.000000  -0.000001   0.000020  -0.000058  -0.001047  -0.000159
    13  C    0.000000   0.000000   0.000000   0.000066   0.001053   0.000027
    14  C   -0.000000  -0.000003   0.000031  -0.000333  -0.005155  -0.000008
    15  C    0.000001   0.000022  -0.000421   0.002269   0.021897  -0.000078
    16  H   -0.053317   0.502041  -0.210830   0.022794  -0.000461   0.008313
    17  H    0.016184  -0.003635  -0.071449   0.436367  -0.029901   0.002339
    18  H    0.000169  -0.006082   0.004963  -0.000033   0.000167  -0.052118
    19  H    0.000008   0.000861   0.010438   0.000041   0.000261  -0.055259
    20  H    0.000169  -0.006079   0.004956  -0.000032   0.000167  -0.052123
    21  H    0.000000  -0.000006   0.000873  -0.000264   0.000837   0.000028
    22  H   -0.000000  -0.000000  -0.000002  -0.000001   0.000005  -0.000004
    23  H    0.000000   0.000000  -0.000000   0.000000   0.000002   0.000000
    24  H   -0.000000  -0.000000   0.000000  -0.000005  -0.000148  -0.000002
    25  H    0.000001   0.000003   0.000124   0.000567   0.025906   0.000122
               7          8          9         10         11         12
     1  O   -0.001862  -0.000301  -0.000278  -0.000053   0.000001  -0.000000
     2  C   -0.000554   0.001265  -0.003230  -0.001223   0.000016  -0.000001
     3  C   -0.105828  -0.089122  -0.027109  -0.001981   0.002422   0.000020
     4  C    0.014556  -0.010230  -0.102169  -0.000145  -0.002051  -0.000058
     5  N   -0.003295  -0.071192   0.434915  -0.124237   0.011729  -0.001047
     6  C    0.193118   0.563726  -0.089870  -0.002126  -0.000498  -0.000159
     7  C    5.249387  -0.049875   0.002704   0.000377  -0.000696  -0.000032
     8  N   -0.049875   6.547622   0.449511  -0.115822   0.016711  -0.003598
     9  C    0.002704   0.449511   4.849644   0.365925  -0.086428   0.009033
    10  C    0.000377  -0.115822   0.365925   5.119094   0.446069  -0.033575
    11  C   -0.000696   0.016711  -0.086428   0.446069   5.050222   0.491260
    12  C   -0.000032  -0.003598   0.009033  -0.033575   0.491260   4.932301
    13  C    0.000000   0.000837  -0.004390  -0.059769  -0.023897   0.493570
    14  C   -0.000008  -0.000994   0.006526  -0.018402  -0.063554  -0.022226
    15  C    0.000272   0.012522  -0.080970   0.400021  -0.034536  -0.071889
    16  H    0.004089  -0.000200  -0.000899  -0.000098   0.000003  -0.000000
    17  H    0.000081  -0.001369   0.007636  -0.000358   0.000098  -0.000001
    18  H    0.421468   0.000727  -0.000588  -0.000015   0.000013   0.000001
    19  H    0.416284   0.008021   0.000449  -0.001078   0.000161  -0.000001
    20  H    0.421489   0.000725  -0.000589  -0.000015   0.000013   0.000001
    21  H   -0.000673   0.021790  -0.010494  -0.021662   0.398886  -0.035345
    22  H    0.000002  -0.000093  -0.000305   0.005328  -0.031680   0.408711
    23  H    0.000000   0.000001   0.000248   0.000403   0.003128  -0.032824
    24  H   -0.000000   0.000003  -0.000407   0.006297   0.000233   0.003752
    25  H    0.000015   0.000879  -0.009210  -0.028165   0.006963  -0.001677
              13         14         15         16         17         18
     1  O    0.000000  -0.000000   0.000001  -0.053317   0.016184   0.000169
     2  C    0.000000  -0.000003   0.000022   0.502041  -0.003635  -0.006082
     3  C    0.000000   0.000031  -0.000421  -0.210830  -0.071449   0.004963
     4  C    0.000066  -0.000333   0.002269   0.022794   0.436367  -0.000033
     5  N    0.001053  -0.005155   0.021897  -0.000461  -0.029901   0.000167
     6  C    0.000027  -0.000008  -0.000078   0.008313   0.002339  -0.052118
     7  C    0.000000  -0.000008   0.000272   0.004089   0.000081   0.421468
     8  N    0.000837  -0.000994   0.012522  -0.000200  -0.001369   0.000727
     9  C   -0.004390   0.006526  -0.080970  -0.000899   0.007636  -0.000588
    10  C   -0.059769  -0.018402   0.400021  -0.000098  -0.000358  -0.000015
    11  C   -0.023897  -0.063554  -0.034536   0.000003   0.000098   0.000013
    12  C    0.493570  -0.022226  -0.071889  -0.000000  -0.000001   0.000001
    13  C    4.894364   0.486635  -0.010370   0.000000  -0.000000  -0.000000
    14  C    0.486635   4.946912   0.463665  -0.000000  -0.000008   0.000000
    15  C   -0.010370   0.463665   5.100713   0.000004  -0.000143  -0.000005
    16  H    0.000000  -0.000000   0.000004   0.623053   0.001357  -0.004998
    17  H   -0.000000  -0.000008  -0.000143   0.001357   0.463555  -0.000005
    18  H   -0.000000   0.000000  -0.000005  -0.004998  -0.000005   0.512839
    19  H    0.000003  -0.000002  -0.000002   0.000908   0.000021  -0.014988
    20  H   -0.000000   0.000000  -0.000005  -0.005001  -0.000005  -0.037126
    21  H    0.003661  -0.001022   0.006759   0.000000   0.000004   0.000017
    22  H   -0.032260   0.003480   0.000190  -0.000000  -0.000000  -0.000000
    23  H    0.411404  -0.033042   0.003333   0.000000  -0.000000   0.000000
    24  H   -0.033779   0.410261  -0.032713  -0.000000   0.000000   0.000000
    25  H    0.004893  -0.038140   0.404196   0.000001  -0.000189  -0.000000
              19         20         21         22         23         24
     1  O    0.000008   0.000169   0.000000  -0.000000   0.000000  -0.000000
     2  C    0.000861  -0.006079  -0.000006  -0.000000   0.000000  -0.000000
     3  C    0.010438   0.004956   0.000873  -0.000002  -0.000000   0.000000
     4  C    0.000041  -0.000032  -0.000264  -0.000001   0.000000  -0.000005
     5  N    0.000261   0.000167   0.000837   0.000005   0.000002  -0.000148
     6  C   -0.055259  -0.052123   0.000028  -0.000004   0.000000  -0.000002
     7  C    0.416284   0.421489  -0.000673   0.000002   0.000000  -0.000000
     8  N    0.008021   0.000725   0.021790  -0.000093   0.000001   0.000003
     9  C    0.000449  -0.000589  -0.010494  -0.000305   0.000248  -0.000407
    10  C   -0.001078  -0.000015  -0.021662   0.005328   0.000403   0.006297
    11  C    0.000161   0.000013   0.398886  -0.031680   0.003128   0.000233
    12  C   -0.000001   0.000001  -0.035345   0.408711  -0.032824   0.003752
    13  C    0.000003  -0.000000   0.003661  -0.032260   0.411404  -0.033779
    14  C   -0.000002   0.000000  -0.001022   0.003480  -0.033042   0.410261
    15  C   -0.000002  -0.000005   0.006759   0.000190   0.003333  -0.032713
    16  H    0.000908  -0.005001   0.000000  -0.000000   0.000000  -0.000000
    17  H    0.000021  -0.000005   0.000004  -0.000000  -0.000000   0.000000
    18  H   -0.014988  -0.037126   0.000017  -0.000000   0.000000   0.000000
    19  H    0.479468  -0.014984   0.000597  -0.000002   0.000000   0.000000
    20  H   -0.014984   0.512814   0.000017  -0.000000   0.000000   0.000000
    21  H    0.000597   0.000017   0.470052  -0.003298  -0.000201   0.000068
    22  H   -0.000002  -0.000000  -0.003298   0.507338  -0.003828  -0.000262
    23  H    0.000000   0.000000  -0.000201  -0.003828   0.507632  -0.003893
    24  H    0.000000   0.000000   0.000068  -0.000262  -0.003893   0.506307
    25  H   -0.000001  -0.000000  -0.000205   0.000061  -0.000175  -0.003549
              25
     1  O    0.000001
     2  C    0.000003
     3  C    0.000124
     4  C    0.000567
     5  N    0.025906
     6  C    0.000122
     7  C    0.000015
     8  N    0.000879
     9  C   -0.009210
    10  C   -0.028165
    11  C    0.006963
    12  C   -0.001677
    13  C    0.004893
    14  C   -0.038140
    15  C    0.404196
    16  H    0.000001
    17  H   -0.000189
    18  H   -0.000000
    19  H   -0.000001
    20  H   -0.000000
    21  H   -0.000205
    22  H    0.000061
    23  H   -0.000175
    24  H   -0.003549
    25  H    0.463881
 Mulliken charges:
               1
     1  O   -0.296752
     2  C    0.093805
     3  C   -0.017387
     4  C   -0.065618
     5  N   -0.258621
     6  C    0.205568
     7  C   -0.561019
     8  N   -0.281542
     9  C    0.290347
    10  C    0.065209
    11  C   -0.184589
    12  C   -0.136214
    13  C   -0.132049
    14  C   -0.134613
    15  C   -0.184730
    16  H    0.113240
    17  H    0.179420
    18  H    0.175596
    19  H    0.168794
    20  H    0.175612
    21  H    0.169580
    22  H    0.146618
    23  H    0.147810
    24  H    0.147837
    25  H    0.173698
 Sum of Mulliken charges =  -0.00000
 Mulliken charges with hydrogens summed into heavy atoms:
               1
     1  O   -0.296752
     2  C    0.207045
     3  C   -0.017387
     4  C    0.113802
     5  N   -0.258621
     6  C    0.205568
     7  C   -0.041017
     8  N   -0.281542
     9  C    0.290347
    10  C    0.065209
    11  C   -0.015009
    12  C    0.010404
    13  C    0.015761
    14  C    0.013224
    15  C   -0.011033
 Electronic spatial extent (au):  <R**2>=           3919.4683
 Charge=             -0.0000 electrons
 Dipole moment (field-independent basis, Debye):
    X=              1.2374    Y=              2.6590    Z=             -0.0006  Tot=              2.9328
 Quadrupole moment (field-independent basis, Debye-Ang):
   XX=            -85.7042   YY=            -83.3428   ZZ=            -89.6607
   XY=            -11.8277   XZ=              0.0038   YZ=              0.0015
 Traceless Quadrupole moment (field-independent basis, Debye-Ang):
   XX=              0.5317   YY=              2.8931   ZZ=             -3.4248
   XY=            -11.8277   XZ=              0.0038   YZ=              0.0015
 Octapole moment (field-independent basis, Debye-Ang**2):
  XXX=             97.2784  YYY=              4.6472  ZZZ=              0.0012  XYY=              6.9332
  XXY=             52.6709  XXZ=             -0.0115  XZZ=            -21.0657  YZZ=             -0.2829
  YYZ=             -0.0005  XYZ=             -0.0052
 Hexadecapole moment (field-independent basis, Debye-Ang**3):
 XXXX=          -4409.0428 YYYY=           -854.6784 ZZZZ=           -103.6642 XXXY=           -244.8189
 XXXZ=              0.0753 YYYX=             -6.6338 YYYZ=              0.0023 ZZZX=             -0.0094
 ZZZY=             -0.0032 XXYY=           -851.2797 XXZZ=           -777.8443 YYZZ=           -173.2198
 XXYZ=              0.0313 YYXZ=              0.0055 ZZXY=              3.3838
 N-N= 8.774273970361D+02 E-N=-3.262022595747D+03  KE= 6.445838695660D+02
 Unable to Open any file for archive entry.
 1\1\GINC-COMPUTE-0-1\SP\RM062X\def2TZVP\C12H10N2O1\ZTAN64\14-Aug-2024\
 0\\# M062X/def2tzvp int=(grid=ultrafine) nmr=giao guess=read geom=chec
 k\\pyrmd5.xyz\\0,1\O,0,-4.4947877027,-2.1422755486,0.1996125064\C,0,-4
 .0273181995,-1.0214522775,0.1022926421\C,0,-2.5805313008,-0.7400361374
 ,0.0586140988\C,0,-1.6651008053,-1.7989611504,0.1301767424\N,0,-0.3497
 742068,-1.6270858539,0.0971680134\C,0,-2.0329228965,0.5545284014,-0.05
 32000631\C,0,-2.8765423676,1.7992296338,-0.1407278361\N,0,-0.710031809
 2,0.7312851112,-0.0867233207\C,0,0.0845628423,-0.3532707685,-0.0113697
 522\C,0,1.5436290197,-0.1320479737,-0.0503717209\C,0,2.0621729668,1.16
 78288713,-0.1621731802\C,0,3.4377384289,1.3711689242,-0.1985266345\C,0
 ,4.3100225421,0.2827963753,-0.1239545736\C,0,3.8002450412,-1.012669327
 9,-0.0126344182\C,0,2.4254262867,-1.2221004656,0.0241974348\H,0,-4.693
 9342537,-0.1374402641,0.0416715153\H,0,-2.0412688831,-2.8156357925,0.2
 17205238\H,0,-3.5107849393,1.9144456854,0.7441186312\H,0,-2.2193745067
 ,2.6652369127,-0.2197564174\H,0,-3.5364046208,1.7734587082,-1.01388932
 63\H,0,1.370590707,1.9995362373,-0.2187960799\H,0,3.8321684502,2.37886
 12543,-0.2850896879\H,0,5.3833971476,0.4438179854,-0.1525089468\H,0,4.
 4765172484,-1.8598428455,0.0454494729\H,0,2.0120058111,-2.2195756951,0
 .1102156623\\Version=ES64L-G16RevC.01\State=1-A\HF=-647.9991291\RMSD=2
 .500e-09\Dipole=0.3513806,1.0950777,-0.0932566\Quadrupole=2.615987,-0.
 0660628,-2.5499242,-8.711441,0.6262029,-0.0702044\PG=C01 [X(C12H10N2O1
 )]\\@
 The archive entry for this job was punched.


 THE WORLD OF CHEMICAL REACTIONS IS LIKE A STAGE,
 ON WHICH SCENE AFTER SCENE IS CEASELESSLY PLAYED.
 THE ACTORS ON IT ARE THE ELEMENTS.
   -- CLEMENS WINKLER   BER. 30,13(1897)
 (DISCOVERER OF GERMANIUM, FEB 6, 1886)
 Job cpu time:       0 days  0 hours 43 minutes 44.3 seconds.
 Elapsed time:       0 days  0 hours  2 minutes 54.3 seconds.
 File lengths (MBytes):  RWF=    156 Int=      0 D2E=      0 Chk=     26 Scr=      1
 Normal termination of Gaussian 16 at Wed Aug 14 20:41:07 2024.
 
 
-----Kestrel cluster job statistics-----
Time info:

real	14m59.885s
user	235m51.452s
sys	0m17.143s
 
Disk space usage:
26M	/scratch/362994.kestrel.chem.wisc.edu
