 Entering Gaussian System, Link 0=/share/apps/gaussian/g16/g16
 Initial command:
 /share/apps/gaussian/g16/l1.exe "/scratch/362996.kestrel.chem.wisc.edu/Gau-113786.inp" -scrdir="/scratch/362996.kestrel.chem.wisc.edu/"
 Entering Link 1 = /share/apps/gaussian/g16/l1.exe PID=    113787.
  
 Copyright (c) 1988-2019, Gaussian, Inc.  All Rights Reserved.
  
 This is part of the Gaussian(R) 16 program.  It is based on
 the Gaussian(R) 09 system (copyright 2009, Gaussian, Inc.),
 the Gaussian(R) 03 system (copyright 2003, Gaussian, Inc.),
 the Gaussian(R) 98 system (copyright 1998, Gaussian, Inc.),
 the Gaussian(R) 94 system (copyright 1995, Gaussian, Inc.),
 the Gaussian 92(TM) system (copyright 1992, Gaussian, Inc.),
 the Gaussian 90(TM) system (copyright 1990, Gaussian, Inc.),
 the Gaussian 88(TM) system (copyright 1988, Gaussian, Inc.),
 the Gaussian 86(TM) system (copyright 1986, Carnegie Mellon
 University), and the Gaussian 82(TM) system (copyright 1983,
 Carnegie Mellon University). Gaussian is a federally registered
 trademark of Gaussian, Inc.
  
 This software contains proprietary and confidential information,
 including trade secrets, belonging to Gaussian, Inc.
  
 This software is provided under written license and may be
 used, copied, transmitted, or stored only in accord with that
 written license.
  
 The following legend is applicable only to US Government
 contracts under FAR:
  
                    RESTRICTED RIGHTS LEGEND
  
 Use, reproduction and disclosure by the US Government is
 subject to restrictions as set forth in subparagraphs (a)
 and (c) of the Commercial Computer Software - Restricted
 Rights clause in FAR 52.227-19.
  
 Gaussian, Inc.
 340 Quinnipiac St., Bldg. 40, Wallingford CT 06492
  
  
 ---------------------------------------------------------------
 Warning -- This program may not be used in any manner that
 competes with the business of Gaussian, Inc. or will provide
 assistance to any competitor of Gaussian, Inc.  The licensee
 of this program is prohibited from giving any competitor of
 Gaussian, Inc. access to this program.  By using this program,
 the user acknowledges that Gaussian, Inc. is engaged in the
 business of creating and licensing software in the field of
 computational chemistry and represents and warrants to the
 licensee that it is not a competitor of Gaussian, Inc. and that
 it will not use this program in any manner prohibited above.
 ---------------------------------------------------------------
  

 Cite this work as:
 Gaussian 16, Revision C.01,
 M. J. Frisch, G. W. Trucks, H. B. Schlegel, G. E. Scuseria, 
 M. A. Robb, J. R. Cheeseman, G. Scalmani, V. Barone, 
 G. A. Petersson, H. Nakatsuji, X. Li, M. Caricato, A. V. Marenich, 
 J. Bloino, B. G. Janesko, R. Gomperts, B. Mennucci, H. P. Hratchian, 
 J. V. Ortiz, A. F. Izmaylov, J. L. Sonnenberg, D. Williams-Young, 
 F. Ding, F. Lipparini, F. Egidi, J. Goings, B. Peng, A. Petrone, 
 T. Henderson, D. Ranasinghe, V. G. Zakrzewski, J. Gao, N. Rega, 
 G. Zheng, W. Liang, M. Hada, M. Ehara, K. Toyota, R. Fukuda, 
 J. Hasegawa, M. Ishida, T. Nakajima, Y. Honda, O. Kitao, H. Nakai, 
 T. Vreven, K. Throssell, J. A. Montgomery, Jr., J. E. Peralta, 
 F. Ogliaro, M. J. Bearpark, J. J. Heyd, E. N. Brothers, K. N. Kudin, 
 V. N. Staroverov, T. A. Keith, R. Kobayashi, J. Normand, 
 K. Raghavachari, A. P. Rendell, J. C. Burant, S. S. Iyengar, 
 J. Tomasi, M. Cossi, J. M. Millam, M. Klene, C. Adamo, R. Cammi, 
 J. W. Ochterski, R. L. Martin, K. Morokuma, O. Farkas, 
 J. B. Foresman, and D. J. Fox, Gaussian, Inc., Wallingford CT, 2019.
 
 ******************************************
 Gaussian 16:  ES64L-G16RevC.01  3-Jul-2019
                14-Aug-2024 
 ******************************************
 %nprocs=16
 Will use up to   16 processors via shared memory.
 %mem=16GB
 %chk=pyrmd6_conf-1.chk
 ----------------------------------------------------------------------
 # B3LYP/6-31G(d,p) symmetry=loose empiricaldispersion=GD3BJ int=(grid=
 ultrafine) opt freq=noraman
 ----------------------------------------------------------------------
 1/18=20,19=15,26=4,38=1/1,3;
 2/9=110,12=2,17=4,18=3,40=1/2;
 3/5=1,6=6,7=101,11=2,25=1,30=1,71=1,74=-5,75=-5,124=41/1,2,3;
 4//1;
 5/5=2,38=5/2;
 6/7=2,8=2,9=2,10=2,28=1/1;
 7//1,2,3,16;
 1/18=20,19=15,26=4/3(2);
 2/9=110/2;
 99//99;
 2/9=110/2;
 3/5=1,6=6,7=101,11=2,25=1,30=1,71=1,74=-5,75=-5,124=41/1,2,3;
 4/5=5,16=3,69=1/1;
 5/5=2,38=5/2;
 7//1,2,3,16;
 1/18=20,19=15,26=4/3(-5);
 2/9=110/2;
 6/7=2,8=2,9=2,10=2,19=2,28=1/1;
 99/9=1/99;
 ----------
 pyrmd6.xyz
 ----------
 Symbolic Z-matrix:
 Charge =  0 Multiplicity = 1
 C                    -1.9805    0.0005    0.1268 
 C                    -0.4657   -0.0005    0.0427 
 C                     0.2713    1.1882    0.0495 
 N                     1.6266    1.2043   -0.0403 
 C                     2.2473   -0.0007   -0.1431 
 Cl                    3.9681   -0.0009   -0.2575 
 N                     1.618    -1.2054   -0.1636 
 C                     0.2628   -1.1889   -0.0721 
 H                    -2.4025   -0.8454   -0.4175 
 H                    -2.309    -0.0522    1.1654 
 H                    -2.3963    0.901    -0.327 
 H                    -0.2124    2.1512    0.1284 
 H                    -0.2277   -2.1515   -0.0918 
 

 GradGradGradGradGradGradGradGradGradGradGradGradGradGradGradGradGradGrad
 Berny optimization.
 Initialization pass.
                           ----------------------------
                           !    Initial Parameters    !
                           ! (Angstroms and Degrees)  !
 --------------------------                            --------------------------
 ! Name  Definition              Value          Derivative Info.                !
 --------------------------------------------------------------------------------
 ! R1    R(1,2)                  1.5171         estimate D2E/DX2                !
 ! R2    R(1,9)                  1.0908         estimate D2E/DX2                !
 ! R3    R(1,10)                 1.0906         estimate D2E/DX2                !
 ! R4    R(1,11)                 1.0907         estimate D2E/DX2                !
 ! R5    R(2,3)                  1.3987         estimate D2E/DX2                !
 ! R6    R(2,8)                  1.3986         estimate D2E/DX2                !
 ! R7    R(3,4)                  1.3584         estimate D2E/DX2                !
 ! R8    R(3,12)                 1.0805         estimate D2E/DX2                !
 ! R9    R(4,5)                  1.3594         estimate D2E/DX2                !
 ! R10   R(5,6)                  1.7246         estimate D2E/DX2                !
 ! R11   R(5,7)                  1.3593         estimate D2E/DX2                !
 ! R12   R(7,8)                  1.3584         estimate D2E/DX2                !
 ! R13   R(8,13)                 1.0805         estimate D2E/DX2                !
 ! A1    A(2,1,9)              110.9834         estimate D2E/DX2                !
 ! A2    A(2,1,10)             110.7022         estimate D2E/DX2                !
 ! A3    A(2,1,11)             110.9837         estimate D2E/DX2                !
 ! A4    A(9,1,10)             108.7351         estimate D2E/DX2                !
 ! A5    A(9,1,11)             106.5672         estimate D2E/DX2                !
 ! A6    A(10,1,11)            108.7405         estimate D2E/DX2                !
 ! A7    A(1,2,3)              121.6882         estimate D2E/DX2                !
 ! A8    A(1,2,8)              121.6799         estimate D2E/DX2                !
 ! A9    A(3,2,8)              116.6203         estimate D2E/DX2                !
 ! A10   A(2,3,4)              122.3777         estimate D2E/DX2                !
 ! A11   A(2,3,12)             121.4608         estimate D2E/DX2                !
 ! A12   A(4,3,12)             116.1614         estimate D2E/DX2                !
 ! A13   A(3,4,5)              116.7484         estimate D2E/DX2                !
 ! A14   A(4,5,6)              117.4339         estimate D2E/DX2                !
 ! A15   A(4,5,7)              125.1254         estimate D2E/DX2                !
 ! A16   A(6,5,7)              117.4407         estimate D2E/DX2                !
 ! A17   A(5,7,8)              116.7492         estimate D2E/DX2                !
 ! A18   A(2,8,7)              122.3773         estimate D2E/DX2                !
 ! A19   A(2,8,13)             121.4662         estimate D2E/DX2                !
 ! A20   A(7,8,13)             116.1565         estimate D2E/DX2                !
 ! D1    D(9,1,2,3)            148.4755         estimate D2E/DX2                !
 ! D2    D(9,1,2,8)            -30.2427         estimate D2E/DX2                !
 ! D3    D(10,1,2,3)           -90.6811         estimate D2E/DX2                !
 ! D4    D(10,1,2,8)            90.6007         estimate D2E/DX2                !
 ! D5    D(11,1,2,3)            30.1693         estimate D2E/DX2                !
 ! D6    D(11,1,2,8)          -148.5489         estimate D2E/DX2                !
 ! D7    D(1,2,3,4)           -179.2407         estimate D2E/DX2                !
 ! D8    D(1,2,3,12)             0.8321         estimate D2E/DX2                !
 ! D9    D(8,2,3,4)             -0.4609         estimate D2E/DX2                !
 ! D10   D(8,2,3,12)           179.612          estimate D2E/DX2                !
 ! D11   D(1,2,8,7)            179.2393         estimate D2E/DX2                !
 ! D12   D(1,2,8,13)            -0.8264         estimate D2E/DX2                !
 ! D13   D(3,2,8,7)              0.4593         estimate D2E/DX2                !
 ! D14   D(3,2,8,13)          -179.6064         estimate D2E/DX2                !
 ! D15   D(2,3,4,5)              0.2123         estimate D2E/DX2                !
 ! D16   D(12,3,4,5)          -179.857          estimate D2E/DX2                !
 ! D17   D(3,4,5,6)           -179.9751         estimate D2E/DX2                !
 ! D18   D(3,4,5,7)              0.0664         estimate D2E/DX2                !
 ! D19   D(4,5,7,8)             -0.0679         estimate D2E/DX2                !
 ! D20   D(6,5,7,8)            179.9737         estimate D2E/DX2                !
 ! D21   D(5,7,8,2)             -0.2093         estimate D2E/DX2                !
 ! D22   D(5,7,8,13)           179.8531         estimate D2E/DX2                !
 --------------------------------------------------------------------------------
 Trust Radius=3.00D-01 FncErr=1.00D-07 GrdErr=1.00D-06 EigMax=2.50D+02 EigMin=1.00D-04
 Number of steps in this run=     65 maximum allowed number of steps=    100.
 GradGradGradGradGradGradGradGradGradGradGradGradGradGradGradGradGradGrad

                          Input orientation:                          
 ---------------------------------------------------------------------
 Center     Atomic      Atomic             Coordinates (Angstroms)
 Number     Number       Type             X           Y           Z
 ---------------------------------------------------------------------
      1          6           0       -1.980500    0.000500    0.126800
      2          6           0       -0.465700   -0.000500    0.042700
      3          6           0        0.271300    1.188200    0.049500
      4          7           0        1.626600    1.204300   -0.040300
      5          6           0        2.247300   -0.000700   -0.143100
      6         17           0        3.968100   -0.000900   -0.257500
      7          7           0        1.618000   -1.205400   -0.163600
      8          6           0        0.262800   -1.188900   -0.072100
      9          1           0       -2.402500   -0.845400   -0.417500
     10          1           0       -2.309000   -0.052200    1.165400
     11          1           0       -2.396300    0.901000   -0.327000
     12          1           0       -0.212400    2.151200    0.128400
     13          1           0       -0.227700   -2.151500   -0.091800
 ---------------------------------------------------------------------
                    Distance matrix (angstroms):
                    1          2          3          4          5
     1  C    0.000000
     2  C    1.517133   0.000000
     3  C    2.547000   1.398650   0.000000
     4  N    3.806340   2.415813   1.358367   0.000000
     5  C    4.236407   2.719355   2.314121   1.359361   0.000000
     6  Cl   5.961001   4.443951   3.895451   2.642405   1.724599
     7  N    3.806275   2.415812   2.754693   2.412868   1.359316
     8  C    2.546886   1.398637   2.380223   2.754699   2.314109
     9  H    1.090822   2.162599   3.391581   4.536210   4.733862
    10  H    1.090587   2.158908   3.072747   4.303656   4.740748
    11  H    1.090745   2.162544   2.709304   4.044492   4.733910
    12  H    2.784186   2.168252   1.080537   2.075331   3.279407
    13  H    2.784097   2.168302   3.379728   3.834381   3.279359
                    6          7          8          9         10
     6  Cl   0.000000
     7  N    2.642462   0.000000
     8  C    3.895506   1.358386   0.000000
     9  H    6.428322   4.044562   2.709450   0.000000
    10  H    6.436557   4.303190   3.072076   1.772986   0.000000
    11  H    6.428362   4.536323   3.391676   1.748754   1.772983
    12  H    4.717736   3.834370   3.379687   3.751554   3.213421
    13  H    4.717762   2.075300   1.080545   2.557681   3.212386
                   11         12         13
    11  H    0.000000
    12  H    2.557305   0.000000
    13  H    3.751786   4.308358   0.000000
 Stoichiometry    C5H5ClN2
 Framework group  C1[X(C5H5ClN2)]
 Deg. of freedom    33
 Full point group                 C1      NOp   1
 Largest Abelian subgroup         C1      NOp   1
 Largest concise Abelian subgroup C1      NOp   1
                         Standard orientation:                         
 ---------------------------------------------------------------------
 Center     Atomic      Atomic             Coordinates (Angstroms)
 Number     Number       Type             X           Y           Z
 ---------------------------------------------------------------------
      1          6           0       -3.269408   -0.000003   -0.004419
      2          6           0       -1.752342    0.000055    0.009842
      3          6           0       -1.017589    1.190147    0.003424
      4          7           0        0.340679    1.206427    0.000808
      5          6           0        0.966996   -0.000050    0.000245
      6         17           0        2.691592   -0.000013   -0.002401
      7          7           0        0.340607   -1.206440    0.000799
      8          6           0       -1.017677   -1.190077    0.003446
      9          1           0       -3.655064   -0.874098   -0.530842
     10          1           0       -3.664514   -0.000723    1.012080
     11          1           0       -3.655119    0.874656   -0.529702
     12          1           0       -1.505593    2.154205    0.001429
     13          1           0       -1.505662   -2.154153    0.001378
 ---------------------------------------------------------------------
 Rotational constants (GHZ):           5.7922560           1.0061530           0.8619253
 Standard basis: 6-31G(d,p) (6D, 7F)
 There are   149 symmetry adapted cartesian basis functions of A   symmetry.
 There are   149 symmetry adapted basis functions of A   symmetry.
   149 basis functions,   283 primitive gaussians,   149 cartesian basis functions
    33 alpha electrons       33 beta electrons
       nuclear repulsion energy       398.0676013725 Hartrees.
 NAtoms=   13 NActive=   13 NUniq=   13 SFac= 1.00D+00 NAtFMM=   60 NAOKFM=F Big=F
 Integral buffers will be    131072 words long.
 Raffenetti 2 integral format.
 Two-electron integral symmetry is turned on.
 Nuclear repulsion after empirical dispersion term =      398.0439008067 Hartrees.
 One-electron integrals computed using PRISM.
 NBasis=   149 RedAO= T EigKep=  1.28D-03  NBF=   149
 NBsUse=   149 1.00D-06 EigRej= -1.00D+00 NBFU=   149
 ExpMin= 1.43D-01 ExpMax= 2.52D+04 ExpMxC= 3.78D+03 IAcc=3 IRadAn=         5 AccDes= 0.00D+00
 Harris functional with IExCor=  402 and IRadAn=       5 diagonalized for initial guess.
 HarFok:  IExCor=  402 AccDes= 0.00D+00 IRadAn=         5 IDoV= 1 UseB2=F ITyADJ=14
 ICtDFT=  3500011 ScaDFX=  1.000000  1.000000  1.000000  1.000000
 FoFCou: FMM=F IPFlag=           0 FMFlag=      100000 FMFlg1=           0
         NFxFlg=           0 DoJE=T BraDBF=F KetDBF=T FulRan=T
         wScrn=  0.000000 ICntrl=       500 IOpCl=  0 I1Cent=   200000004 NGrid=           0
         NMat0=    1 NMatS0=      1 NMatT0=    0 NMatD0=    1 NMtDS0=    0 NMtDT0=    0
 Petite list used in FoFCou.
 Requested convergence on RMS density matrix=1.00D-08 within 128 cycles.
 Requested convergence on MAX density matrix=1.00D-06.
 Requested convergence on             energy=1.00D-06.
 No special actions if energy rises.
 Integral accuracy reduced to 1.0D-05 until final iterations.
 Initial convergence to 1.0D-05 achieved.  Increase integral accuracy.
 SCF Done:  E(RB3LYP) =  -763.265879304     A.U. after   14 cycles
            NFock= 14  Conv=0.54D-08     -V/T= 2.0060

 **********************************************************************

            Population analysis using the SCF Density.

 **********************************************************************

 Orbital symmetries:
       Occupied  (A) (A) (A) (A) (A) (A) (A) (A) (A) (A) (A) (A)
                 (A) (A) (A) (A) (A) (A) (A) (A) (A) (A) (A) (A)
                 (A) (A) (A) (A) (A) (A) (A) (A) (A)
       Virtual   (A) (A) (A) (A) (A) (A) (A) (A) (A) (A) (A) (A)
                 (A) (A) (A) (A) (A) (A) (A) (A) (A) (A) (A) (A)
                 (A) (A) (A) (A) (A) (A) (A) (A) (A) (A) (A) (A)
                 (A) (A) (A) (A) (A) (A) (A) (A) (A) (A) (A) (A)
                 (A) (A) (A) (A) (A) (A) (A) (A) (A) (A) (A) (A)
                 (A) (A) (A) (A) (A) (A) (A) (A) (A) (A) (A) (A)
                 (A) (A) (A) (A) (A) (A) (A) (A) (A) (A) (A) (A)
                 (A) (A) (A) (A) (A) (A) (A) (A) (A) (A) (A) (A)
                 (A) (A) (A) (A) (A) (A) (A) (A) (A) (A) (A) (A)
                 (A) (A) (A) (A) (A) (A) (A) (A)
 The electronic state is 1-A.
 Alpha  occ. eigenvalues -- -101.55450 -14.35803 -14.35802 -10.31917 -10.25465
 Alpha  occ. eigenvalues --  -10.25465 -10.22848 -10.20910  -9.47166  -7.23575
 Alpha  occ. eigenvalues --   -7.22611  -7.22504  -0.99660  -0.89411  -0.87092
 Alpha  occ. eigenvalues --   -0.81035  -0.71243  -0.67571  -0.62845  -0.53547
 Alpha  occ. eigenvalues --   -0.53070  -0.45617  -0.44809  -0.43621  -0.42903
 Alpha  occ. eigenvalues --   -0.42502  -0.40956  -0.34418  -0.32320  -0.32019
 Alpha  occ. eigenvalues --   -0.31977  -0.26863  -0.26012
 Alpha virt. eigenvalues --   -0.05652  -0.03865   0.04155   0.09224   0.10230
 Alpha virt. eigenvalues --    0.12210   0.13255   0.15104   0.16841   0.20937
 Alpha virt. eigenvalues --    0.23870   0.24011   0.30676   0.32745   0.34049
 Alpha virt. eigenvalues --    0.37517   0.40417   0.42827   0.45024   0.45665
 Alpha virt. eigenvalues --    0.48549   0.51506   0.54674   0.55002   0.57323
 Alpha virt. eigenvalues --    0.57922   0.59066   0.60035   0.62920   0.63786
 Alpha virt. eigenvalues --    0.67403   0.69876   0.72363   0.77698   0.77908
 Alpha virt. eigenvalues --    0.80750   0.81191   0.82201   0.83850   0.85349
 Alpha virt. eigenvalues --    0.85830   0.86796   0.87501   0.89038   0.91117
 Alpha virt. eigenvalues --    0.95450   0.97221   0.98370   1.07536   1.08118
 Alpha virt. eigenvalues --    1.10139   1.15518   1.15522   1.18327   1.22423
 Alpha virt. eigenvalues --    1.27105   1.35363   1.38752   1.40264   1.44066
 Alpha virt. eigenvalues --    1.47939   1.55833   1.58709   1.59474   1.68616
 Alpha virt. eigenvalues --    1.70293   1.76808   1.77992   1.78605   1.82227
 Alpha virt. eigenvalues --    1.83386   1.96393   2.00227   2.01306   2.02565
 Alpha virt. eigenvalues --    2.05331   2.06435   2.11832   2.12563   2.18216
 Alpha virt. eigenvalues --    2.19926   2.22766   2.27753   2.30634   2.31969
 Alpha virt. eigenvalues --    2.38606   2.41055   2.48118   2.48947   2.51690
 Alpha virt. eigenvalues --    2.57893   2.58026   2.61717   2.65184   2.66413
 Alpha virt. eigenvalues --    2.69692   2.74303   2.84112   2.85130   2.93278
 Alpha virt. eigenvalues --    2.95119   3.15857   3.17331   3.18018   3.36197
 Alpha virt. eigenvalues --    3.40791   3.43749   3.59949   3.93999   4.00881
 Alpha virt. eigenvalues --    4.13985   4.18699   4.26341   4.34424   4.44121
 Alpha virt. eigenvalues --    4.63753
          Condensed to atoms (all electrons):
               1          2          3          4          5          6
     1  C    5.009912   0.335312  -0.049101   0.005173   0.000592   0.000012
     2  C    0.335312   4.922112   0.473485  -0.020256  -0.034538   0.000357
     3  C   -0.049101   0.473485   4.785682   0.442270  -0.060767   0.004310
     4  N    0.005173  -0.020256   0.442270   6.800948   0.392392  -0.079230
     5  C    0.000592  -0.034538  -0.060767   0.392392   4.828033   0.291496
     6  Cl   0.000012   0.000357   0.004310  -0.079230   0.291496  16.808385
     7  N    0.005173  -0.020255  -0.040526  -0.052671   0.392421  -0.079218
     8  C   -0.049127   0.473474  -0.035087  -0.040533  -0.060769   0.004309
     9  H    0.379254  -0.028207   0.002463  -0.000139   0.000010  -0.000000
    10  H    0.376530  -0.027068  -0.001535  -0.000088   0.000035  -0.000000
    11  H    0.379254  -0.028206  -0.003681   0.000067   0.000010  -0.000000
    12  H   -0.003459  -0.068022   0.394470  -0.049655   0.005474  -0.000178
    13  H   -0.003456  -0.068024   0.004015  -0.000365   0.005474  -0.000178
               7          8          9         10         11         12
     1  C    0.005173  -0.049127   0.379254   0.376530   0.379254  -0.003459
     2  C   -0.020255   0.473474  -0.028207  -0.027068  -0.028206  -0.068022
     3  C   -0.040526  -0.035087   0.002463  -0.001535  -0.003681   0.394470
     4  N   -0.052671  -0.040533  -0.000139  -0.000088   0.000067  -0.049655
     5  C    0.392421  -0.060769   0.000010   0.000035   0.000010   0.005474
     6  Cl  -0.079218   0.004309  -0.000000  -0.000000  -0.000000  -0.000178
     7  N    6.800903   0.442264   0.000067  -0.000088  -0.000139  -0.000365
     8  C    0.442264   4.785733  -0.003682  -0.001542   0.002467   0.004016
     9  H    0.000067  -0.003682   0.576072  -0.027953  -0.029532  -0.000078
    10  H   -0.000088  -0.001542  -0.027953   0.567873  -0.027944   0.000411
    11  H   -0.000139   0.002467  -0.029532  -0.027944   0.576062   0.003935
    12  H   -0.000365   0.004016  -0.000078   0.000411   0.003935   0.594906
    13  H   -0.049658   0.394476   0.003929   0.000413  -0.000078  -0.000172
              13
     1  C   -0.003456
     2  C   -0.068024
     3  C    0.004015
     4  N   -0.000365
     5  C    0.005474
     6  Cl  -0.000178
     7  N   -0.049658
     8  C    0.394476
     9  H    0.003929
    10  H    0.000413
    11  H   -0.000078
    12  H   -0.000172
    13  H    0.594902
 Mulliken charges:
               1
     1  C   -0.386070
     2  C    0.089836
     3  C    0.084003
     4  N   -0.397913
     5  C    0.240139
     6  Cl   0.049937
     7  N   -0.397908
     8  C    0.084001
     9  H    0.127795
    10  H    0.140958
    11  H    0.127784
    12  H    0.118718
    13  H    0.118722
 Sum of Mulliken charges =  -0.00000
 Mulliken charges with hydrogens summed into heavy atoms:
               1
     1  C    0.010466
     2  C    0.089836
     3  C    0.202721
     4  N   -0.397913
     5  C    0.240139
     6  Cl   0.049937
     7  N   -0.397908
     8  C    0.202722
 Electronic spatial extent (au):  <R**2>=           1256.7706
 Charge=             -0.0000 electrons
 Dipole moment (field-independent basis, Debye):
    X=             -4.1975    Y=             -0.0001    Z=              0.0264  Tot=              4.1976
 Quadrupole moment (field-independent basis, Debye-Ang):
   XX=            -47.1089   YY=            -54.1684   ZZ=            -52.9017
   XY=              0.0002   XZ=             -0.0255   YZ=             -0.0001
 Traceless Quadrupole moment (field-independent basis, Debye-Ang):
   XX=              4.2841   YY=             -2.7754   ZZ=             -1.5087
   XY=              0.0002   XZ=             -0.0255   YZ=             -0.0001
 Octapole moment (field-independent basis, Debye-Ang**2):
  XXX=             -3.6937  YYY=              0.0013  ZZZ=              0.5829  XYY=            -10.3498
  XXY=             -0.0010  XXZ=              0.0075  XZZ=              2.9252  YZZ=             -0.0012
  YYZ=             -0.5042  XYZ=              0.0003
 Hexadecapole moment (field-independent basis, Debye-Ang**3):
 XXXX=          -1226.0894 YYYY=           -277.9411 ZZZZ=            -59.1850 XXXY=              0.0041
 XXXZ=              0.1180 YYYX=             -0.0039 YYYZ=              0.0004 ZZZX=             -2.2377
 ZZZY=             -0.0001 XXYY=           -256.1259 XXZZ=           -226.0570 YYZZ=            -58.4149
 XXYZ=             -0.0014 YYXZ=              2.0837 ZZXY=              0.0044
 N-N= 3.980439008067D+02 E-N=-2.592760109701D+03  KE= 7.587440355521D+02
 Calling FoFJK, ICntrl=      2127 FMM=F ISym2X=0 I1Cent= 0 IOpClX= 0 NMat=1 NMatS=1 NMatT=0.
 ***** Axes restored to original set *****
 -------------------------------------------------------------------
 Center     Atomic                   Forces (Hartrees/Bohr)
 Number     Number              X              Y              Z
 -------------------------------------------------------------------
      1        6           0.008445985    0.000119783   -0.003519860
      2        6          -0.010960639    0.000144714   -0.002290865
      3        6           0.027326609   -0.016760111   -0.001906180
      4        7           0.001015734   -0.014685588   -0.000694085
      5        6          -0.052031607    0.000015165    0.003831148
      6       17           0.004049286   -0.000002193   -0.000360226
      7        7           0.001116884    0.014656895    0.000811206
      8        6           0.027469413    0.016659917   -0.000209400
      9        1          -0.000317400   -0.002915364    0.001243979
     10        1          -0.002590224   -0.000099511    0.002169032
     11        1          -0.000319253    0.002814023    0.001523282
     12        1          -0.001584439    0.004325208   -0.000081348
     13        1          -0.001620348   -0.004272937   -0.000516683
 -------------------------------------------------------------------
 Cartesian Forces:  Max     0.052031607 RMS     0.011896214

 GradGradGradGradGradGradGradGradGradGradGradGradGradGradGradGradGradGrad
 Berny optimization.
 FormGI is forming the generalized inverse of G from B-inverse, IUseBI=4.
 Internal  Forces:  Max     0.028043225 RMS     0.007947754
 Search for a local minimum.
 Step number   1 out of a maximum of   65
 All quantities printed in internal units (Hartrees-Bohrs-Radians)
 Mixed Optimization -- RFO/linear search
 Second derivative matrix not updated -- first step.
 ITU=  0
     Eigenvalues ---    0.00539   0.01434   0.02117   0.02144   0.02153
     Eigenvalues ---    0.02208   0.02230   0.02233   0.07085   0.07170
     Eigenvalues ---    0.16000   0.16000   0.16000   0.16000   0.16000
     Eigenvalues ---    0.23167   0.23430   0.24994   0.25000   0.25000
     Eigenvalues ---    0.30644   0.33085   0.34718   0.34727   0.34745
     Eigenvalues ---    0.35929   0.35930   0.43382   0.44810   0.50140
     Eigenvalues ---    0.51127   0.53117   0.53277
 RFO step:  Lambda=-8.03782242D-03 EMin= 5.39309429D-03
 Linear search not attempted -- first point.
 Iteration  1 RMS(Cart)=  0.02471541 RMS(Int)=  0.00039677
 Iteration  2 RMS(Cart)=  0.00041257 RMS(Int)=  0.00010867
 Iteration  3 RMS(Cart)=  0.00000017 RMS(Int)=  0.00010867
 Variable       Old X    -DE/DX   Delta X   Delta X   Delta X     New X
                                 (Linear)    (Quad)   (Total)
    R1        2.86697  -0.00513   0.00000  -0.01632  -0.01632   2.85065
    R2        2.06136   0.00176   0.00000   0.00496   0.00496   2.06632
    R3        2.06091   0.00285   0.00000   0.00802   0.00802   2.06893
    R4        2.06121   0.00181   0.00000   0.00510   0.00510   2.06631
    R5        2.64307  -0.00534   0.00000  -0.00913  -0.00925   2.63381
    R6        2.64304  -0.00533   0.00000  -0.00912  -0.00924   2.63380
    R7        2.56694  -0.02294   0.00000  -0.04238  -0.04238   2.52456
    R8        2.04192   0.00456   0.00000   0.01241   0.01241   2.05433
    R9        2.56882  -0.02804   0.00000  -0.05413  -0.05400   2.51481
   R10        3.25902   0.00406   0.00000   0.01199   0.01199   3.27101
   R11        2.56874  -0.02803   0.00000  -0.05409  -0.05396   2.51477
   R12        2.56698  -0.02294   0.00000  -0.04239  -0.04240   2.52458
   R13        2.04193   0.00455   0.00000   0.01239   0.01239   2.05432
    A1        1.93703  -0.00037   0.00000   0.00005   0.00003   1.93705
    A2        1.93212   0.00196   0.00000   0.00710   0.00710   1.93922
    A3        1.93703  -0.00037   0.00000   0.00007   0.00005   1.93708
    A4        1.89779  -0.00168   0.00000  -0.01422  -0.01422   1.88357
    A5        1.85995   0.00206   0.00000   0.02107   0.02103   1.88097
    A6        1.89788  -0.00168   0.00000  -0.01428  -0.01427   1.88361
    A7        2.12386   0.00451   0.00000   0.01328   0.01332   2.13718
    A8        2.12371   0.00453   0.00000   0.01338   0.01342   2.13714
    A9        2.03541  -0.00903   0.00000  -0.02621  -0.02654   2.00886
   A10        2.13589   0.00302   0.00000   0.01789   0.01777   2.15366
   A11        2.11989  -0.00096   0.00000  -0.00565  -0.00560   2.11430
   A12        2.02740  -0.00207   0.00000  -0.01223  -0.01217   2.01523
   A13        2.03764  -0.00694   0.00000  -0.03336  -0.03318   2.00446
   A14        2.04961  -0.00842   0.00000  -0.02854  -0.02866   2.02095
   A15        2.18385   0.01686   0.00000   0.05716   0.05737   2.24122
   A16        2.04973  -0.00844   0.00000  -0.02862  -0.02874   2.02099
   A17        2.03766  -0.00694   0.00000  -0.03336  -0.03318   2.00447
   A18        2.13589   0.00302   0.00000   0.01788   0.01777   2.15365
   A19        2.11998  -0.00097   0.00000  -0.00571  -0.00565   2.11433
   A20        2.02731  -0.00205   0.00000  -0.01217  -0.01211   2.01520
    D1        2.59139   0.00129   0.00000   0.02563   0.02581   2.61720
    D2       -0.52784   0.00081   0.00000   0.00071   0.00057  -0.52726
    D3       -1.58268   0.00024   0.00000   0.01247   0.01263  -1.57005
    D4        1.58128  -0.00024   0.00000  -0.01245  -0.01261   1.56867
    D5        0.52655  -0.00082   0.00000  -0.00075  -0.00060   0.52595
    D6       -2.59267  -0.00129   0.00000  -0.02567  -0.02584  -2.61851
    D7       -3.12834  -0.00062   0.00000  -0.02305  -0.02293   3.13191
    D8        0.01452  -0.00065   0.00000  -0.02439  -0.02425  -0.00973
    D9       -0.00804  -0.00001   0.00000   0.00113   0.00104  -0.00701
   D10        3.13482  -0.00004   0.00000  -0.00022  -0.00028   3.13454
   D11        3.12832   0.00062   0.00000   0.02309   0.02297  -3.13190
   D12       -0.01442   0.00064   0.00000   0.02428   0.02414   0.00972
   D13        0.00802   0.00001   0.00000  -0.00109  -0.00100   0.00702
   D14       -3.13472   0.00004   0.00000   0.00011   0.00018  -3.13454
   D15        0.00370  -0.00003   0.00000  -0.00222  -0.00212   0.00159
   D16       -3.13910   0.00000   0.00000  -0.00094  -0.00086  -3.13996
   D17       -3.14116  -0.00013   0.00000  -0.00423  -0.00423   3.13780
   D18        0.00116   0.00015   0.00000   0.00374   0.00382   0.00498
   D19       -0.00118  -0.00015   0.00000  -0.00370  -0.00378  -0.00496
   D20        3.14113   0.00013   0.00000   0.00426   0.00426  -3.13779
   D21       -0.00365   0.00002   0.00000   0.00214   0.00204  -0.00161
   D22        3.13903  -0.00000   0.00000   0.00100   0.00092   3.13995
         Item               Value     Threshold  Converged?
 Maximum Force            0.028043     0.000450     NO 
 RMS     Force            0.007948     0.000300     NO 
 Maximum Displacement     0.099994     0.001800     NO 
 RMS     Displacement     0.024712     0.001200     NO 
 Predicted change in Energy=-4.120549D-03
 GradGradGradGradGradGradGradGradGradGradGradGradGradGradGradGradGradGrad

                          Input orientation:                          
 ---------------------------------------------------------------------
 Center     Atomic      Atomic             Coordinates (Angstroms)
 Number     Number       Type             X           Y           Z
 ---------------------------------------------------------------------
      1          6           0       -1.968756    0.000476    0.126534
      2          6           0       -0.463604    0.000299    0.026142
      3          6           0        0.286864    1.174693    0.038155
      4          7           0        1.620413    1.195984   -0.038822
      5          6           0        2.194386   -0.001090   -0.131297
      6         17           0        3.922018   -0.001719   -0.238336
      7          7           0        1.611920   -1.197232   -0.161268
      8          6           0        0.278514   -1.174472   -0.082051
      9          1           0       -2.396647   -0.855075   -0.403157
     10          1           0       -2.294303   -0.052503    1.170501
     11          1           0       -2.390364    0.909215   -0.311706
     12          1           0       -0.192607    2.147514    0.112458
     13          1           0       -0.207833   -2.146389   -0.107253
 ---------------------------------------------------------------------
                    Distance matrix (angstroms):
                    1          2          3          4          5
     1  C    0.000000
     2  C    1.508496   0.000000
     3  C    2.544489   1.393754   0.000000
     4  N    3.786650   2.403541   1.335938   0.000000
     5  C    4.171118   2.662649   2.247180   1.330782   0.000000
     6  Cl   5.902063   4.393590   3.830761   2.602245   1.730945
     7  N    3.786631   2.403540   2.724257   2.396361   1.330759
     8  C    2.544452   1.393748   2.352254   2.724266   2.247179
     9  H    1.093448   2.156992   3.393515   4.525080   4.677689
    10  H    1.094830   2.159584   3.074190   4.283244   4.673932
    11  H    1.093442   2.157006   2.713012   4.030265   4.677728
    12  H    2.786517   2.165969   1.087103   2.053129   3.220815
    13  H    2.786491   2.165983   3.360871   3.810331   3.220798
                    6          7          8          9         10
     6  Cl   0.000000
     7  N    2.602257   0.000000
     8  C    3.830782   1.335951   0.000000
     9  H    6.378158   4.030408   2.713229   0.000000
    10  H    6.374170   4.282825   3.073611   1.769461   0.000000
    11  H    6.378193   4.525266   3.393731   1.766670   1.769482
    12  H    4.655362   3.810324   3.360860   3.760211   3.221281
    13  H    4.655369   2.053124   1.087102   2.558507   3.220306
                   11         12         13
    11  H    0.000000
    12  H    2.558014   0.000000
    13  H    3.760580   4.299547   0.000000
 Stoichiometry    C5H5ClN2
 Framework group  C1[X(C5H5ClN2)]
 Deg. of freedom    33
 Full point group                 C1      NOp   1
 Largest Abelian subgroup         C1      NOp   1
 Largest concise Abelian subgroup C1      NOp   1
                         Standard orientation:                         
 ---------------------------------------------------------------------
 Center     Atomic      Atomic             Coordinates (Angstroms)
 Number     Number       Type             X           Y           Z
 ---------------------------------------------------------------------
      1          6           0       -3.244627   -0.000000    0.006048
      2          6           0       -1.736154    0.000016   -0.002235
      3          6           0       -0.988301    1.176137   -0.004650
      4          7           0        0.347451    1.198182   -0.001154
      5          6           0        0.926490   -0.000017    0.002979
      6         17           0        2.657434   -0.000005    0.001661
      7          7           0        0.347432   -1.198180   -0.001148
      8          6           0       -0.988332   -1.176117   -0.004658
      9          1           0       -3.639015   -0.883008   -0.504232
     10          1           0       -3.633310   -0.000715    1.029561
     11          1           0       -3.639052    0.883662   -0.503056
     12          1           0       -1.471813    2.149781   -0.009648
     13          1           0       -1.471834   -2.149766   -0.009656
 ---------------------------------------------------------------------
 Rotational constants (GHZ):           5.8850934           1.0304666           0.8817578
 Standard basis: 6-31G(d,p) (6D, 7F)
 There are   149 symmetry adapted cartesian basis functions of A   symmetry.
 There are   149 symmetry adapted basis functions of A   symmetry.
   149 basis functions,   283 primitive gaussians,   149 cartesian basis functions
    33 alpha electrons       33 beta electrons
       nuclear repulsion energy       402.2006051824 Hartrees.
 NAtoms=   13 NActive=   13 NUniq=   13 SFac= 1.00D+00 NAtFMM=   60 NAOKFM=F Big=F
 Integral buffers will be    131072 words long.
 Raffenetti 2 integral format.
 Two-electron integral symmetry is turned on.
 Nuclear repulsion after empirical dispersion term =      402.1768545354 Hartrees.
 One-electron integrals computed using PRISM.
 NBasis=   149 RedAO= T EigKep=  1.21D-03  NBF=   149
 NBsUse=   149 1.00D-06 EigRej= -1.00D+00 NBFU=   149
 Initial guess from the checkpoint file:  "pyrmd6_conf-1.chk"
 B after Tr=    -0.000000    0.000000   -0.000000
         Rot=    1.000000   -0.000001   -0.000056   -0.000003 Ang=  -0.01 deg.
 ExpMin= 1.43D-01 ExpMax= 2.52D+04 ExpMxC= 3.78D+03 IAcc=3 IRadAn=         5 AccDes= 0.00D+00
 Harris functional with IExCor=  402 and IRadAn=       5 diagonalized for initial guess.
 HarFok:  IExCor=  402 AccDes= 0.00D+00 IRadAn=         5 IDoV= 1 UseB2=F ITyADJ=14
 ICtDFT=  3500011 ScaDFX=  1.000000  1.000000  1.000000  1.000000
 FoFCou: FMM=F IPFlag=           0 FMFlag=      100000 FMFlg1=           0
         NFxFlg=           0 DoJE=T BraDBF=F KetDBF=T FulRan=T
         wScrn=  0.000000 ICntrl=       500 IOpCl=  0 I1Cent=   200000004 NGrid=           0
         NMat0=    1 NMatS0=      1 NMatT0=    0 NMatD0=    1 NMtDS0=    0 NMtDT0=    0
 Petite list used in FoFCou.
 Requested convergence on RMS density matrix=1.00D-08 within 128 cycles.
 Requested convergence on MAX density matrix=1.00D-06.
 Requested convergence on             energy=1.00D-06.
 No special actions if energy rises.
 Integral accuracy reduced to 1.0D-05 until final iterations.
 Initial convergence to 1.0D-05 achieved.  Increase integral accuracy.
 SCF Done:  E(RB3LYP) =  -763.269775188     A.U. after   12 cycles
            NFock= 12  Conv=0.46D-08     -V/T= 2.0056
 Calling FoFJK, ICntrl=      2127 FMM=F ISym2X=0 I1Cent= 0 IOpClX= 0 NMat=1 NMatS=1 NMatT=0.
 ***** Axes restored to original set *****
 -------------------------------------------------------------------
 Center     Atomic                   Forces (Hartrees/Bohr)
 Number     Number              X              Y              Z
 -------------------------------------------------------------------
      1        6           0.002813137    0.000074138   -0.001682933
      2        6          -0.007234899    0.000028734   -0.000071966
      3        6           0.000983182    0.002652928    0.000515653
      4        7           0.000833749   -0.004143892   -0.000119072
      5        6          -0.004785917    0.000043495   -0.000209073
      6       17           0.009862674   -0.000015896   -0.000409155
      7        7           0.000851732    0.004114917    0.000302859
      8        6           0.000979014   -0.002700057    0.000243087
      9        1          -0.000124097   -0.000304592    0.000706821
     10        1          -0.000564994   -0.000013563    0.000332913
     11        1          -0.000121549    0.000233212    0.000735162
     12        1          -0.001743073    0.000511814   -0.000146532
     13        1          -0.001748959   -0.000481238   -0.000197765
 -------------------------------------------------------------------
 Cartesian Forces:  Max     0.009862674 RMS     0.002501282

 GradGradGradGradGradGradGradGradGradGradGradGradGradGradGradGradGradGrad
 Berny optimization.
 Using GEDIIS/GDIIS optimizer.
 FormGI is forming the generalized inverse of G from B-inverse, IUseBI=4.
 Internal  Forces:  Max     0.009869105 RMS     0.001877644
 Search for a local minimum.
 Step number   2 out of a maximum of   65
 All quantities printed in internal units (Hartrees-Bohrs-Radians)
 Mixed Optimization -- RFO/linear search
 Update second derivatives using D2CorX and points    1    2
 DE= -3.90D-03 DEPred=-4.12D-03 R= 9.45D-01
 TightC=F SS=  1.41D+00  RLast= 1.56D-01 DXNew= 5.0454D-01 4.6931D-01
 Trust test= 9.45D-01 RLast= 1.56D-01 DXMaxT set to 4.69D-01
 ITU=  1  0
 Use linear search instead of GDIIS.
     Eigenvalues ---    0.00539   0.01420   0.02116   0.02144   0.02153
     Eigenvalues ---    0.02206   0.02231   0.02234   0.07059   0.07089
     Eigenvalues ---    0.15865   0.16000   0.16000   0.16000   0.16082
     Eigenvalues ---    0.22945   0.23160   0.25000   0.25000   0.27007
     Eigenvalues ---    0.30123   0.32142   0.34721   0.34733   0.34789
     Eigenvalues ---    0.35856   0.35929   0.42554   0.44756   0.50172
     Eigenvalues ---    0.50657   0.53114   0.59136
 RFO step:  Lambda=-5.63936985D-04 EMin= 5.39309429D-03
 Quartic linear search produced a step of -0.04837.
 Iteration  1 RMS(Cart)=  0.01068862 RMS(Int)=  0.00005218
 Iteration  2 RMS(Cart)=  0.00005849 RMS(Int)=  0.00001553
 Iteration  3 RMS(Cart)=  0.00000000 RMS(Int)=  0.00001553
 Variable       Old X    -DE/DX   Delta X   Delta X   Delta X     New X
                                 (Linear)    (Quad)   (Total)
    R1        2.85065  -0.00199   0.00079  -0.00815  -0.00736   2.84328
    R2        2.06632  -0.00006  -0.00024   0.00045   0.00021   2.06653
    R3        2.06893   0.00049  -0.00039   0.00230   0.00191   2.07084
    R4        2.06631  -0.00005  -0.00025   0.00047   0.00022   2.06653
    R5        2.63381   0.00249   0.00045   0.00438   0.00484   2.63865
    R6        2.63380   0.00249   0.00045   0.00439   0.00484   2.63865
    R7        2.52456   0.00336   0.00205   0.00095   0.00300   2.52755
    R8        2.05433   0.00122  -0.00060   0.00471   0.00411   2.05844
    R9        2.51481  -0.00092   0.00261  -0.00840  -0.00580   2.50902
   R10        3.27101   0.00987  -0.00058   0.02978   0.02920   3.30022
   R11        2.51477  -0.00090   0.00261  -0.00837  -0.00577   2.50900
   R12        2.52458   0.00335   0.00205   0.00093   0.00298   2.52756
   R13        2.05432   0.00122  -0.00060   0.00471   0.00411   2.05844
    A1        1.93705   0.00027  -0.00000   0.00255   0.00254   1.93959
    A2        1.93922   0.00029  -0.00034   0.00073   0.00038   1.93960
    A3        1.93708   0.00027  -0.00000   0.00253   0.00251   1.93959
    A4        1.88357  -0.00059   0.00069  -0.00704  -0.00635   1.87722
    A5        1.88097   0.00030  -0.00102   0.00801   0.00697   1.88795
    A6        1.88361  -0.00059   0.00069  -0.00707  -0.00638   1.87723
    A7        2.13718   0.00103  -0.00064   0.00483   0.00415   2.14133
    A8        2.13714   0.00103  -0.00065   0.00486   0.00418   2.14132
    A9        2.00886  -0.00206   0.00128  -0.00972  -0.00843   2.00043
   A10        2.15366  -0.00032  -0.00086   0.00160   0.00075   2.15441
   A11        2.11430  -0.00121   0.00027  -0.00848  -0.00822   2.10608
   A12        2.01523   0.00152   0.00059   0.00688   0.00746   2.02268
   A13        2.00446   0.00307   0.00161   0.00681   0.00842   2.01288
   A14        2.02095   0.00173   0.00139   0.00360   0.00496   2.02591
   A15        2.24122  -0.00344  -0.00278  -0.00707  -0.00988   2.23134
   A16        2.02099   0.00172   0.00139   0.00357   0.00493   2.02592
   A17        2.00447   0.00307   0.00161   0.00681   0.00841   2.01289
   A18        2.15365  -0.00032  -0.00086   0.00160   0.00075   2.15440
   A19        2.11433  -0.00121   0.00027  -0.00850  -0.00824   2.10609
   A20        2.01520   0.00153   0.00059   0.00690   0.00748   2.02268
    D1        2.61720   0.00044  -0.00125   0.01393   0.01271   2.62991
    D2       -0.52726   0.00030  -0.00003  -0.00051  -0.00055  -0.52781
    D3       -1.57005   0.00007  -0.00061   0.00724   0.00665  -1.56341
    D4        1.56867  -0.00007   0.00061  -0.00720  -0.00661   1.56206
    D5        0.52595  -0.00030   0.00003   0.00049   0.00053   0.52648
    D6       -2.61851  -0.00044   0.00125  -0.01396  -0.01273  -2.63124
    D7        3.13191  -0.00012   0.00111  -0.01136  -0.01024   3.12167
    D8       -0.00973  -0.00024   0.00117  -0.01670  -0.01550  -0.02523
    D9       -0.00701   0.00001  -0.00005   0.00208   0.00201  -0.00499
   D10        3.13454  -0.00011   0.00001  -0.00327  -0.00325   3.13129
   D11       -3.13190   0.00012  -0.00111   0.01135   0.01023  -3.12167
   D12        0.00972   0.00024  -0.00117   0.01670   0.01551   0.02523
   D13        0.00702  -0.00001   0.00005  -0.00209  -0.00203   0.00500
   D14       -3.13454   0.00011  -0.00001   0.00327   0.00325  -3.13129
   D15        0.00159   0.00003   0.00010   0.00027   0.00038   0.00197
   D16       -3.13996   0.00014   0.00004   0.00534   0.00541  -3.13455
   D17        3.13780   0.00029   0.00020   0.01135   0.01155  -3.13383
   D18        0.00498  -0.00008  -0.00018  -0.00315  -0.00332   0.00165
   D19       -0.00496   0.00008   0.00018   0.00315   0.00331  -0.00165
   D20       -3.13779  -0.00029  -0.00021  -0.01136  -0.01156   3.13383
   D21       -0.00161  -0.00003  -0.00010  -0.00026  -0.00036  -0.00197
   D22        3.13995  -0.00014  -0.00004  -0.00533  -0.00541   3.13455
         Item               Value     Threshold  Converged?
 Maximum Force            0.009869     0.000450     NO 
 RMS     Force            0.001878     0.000300     NO 
 Maximum Displacement     0.042936     0.001800     NO 
 RMS     Displacement     0.010691     0.001200     NO 
 Predicted change in Energy=-2.907425D-04
 GradGradGradGradGradGradGradGradGradGradGradGradGradGradGradGradGradGrad

                          Input orientation:                          
 ---------------------------------------------------------------------
 Center     Atomic      Atomic             Coordinates (Angstroms)
 Number     Number       Type             X           Y           Z
 ---------------------------------------------------------------------
      1          6           0       -1.971015    0.000407    0.128000
      2          6           0       -0.470410    0.000704    0.018431
      3          6           0        0.286555    1.173940    0.033002
      4          7           0        1.621916    1.190470   -0.041199
      5          6           0        2.200454   -0.000959   -0.134039
      6         17           0        3.944738   -0.002740   -0.219937
      7          7           0        1.613477   -1.191514   -0.163079
      8          6           0        0.278233   -1.173213   -0.087098
      9          1           0       -2.404166   -0.857888   -0.393134
     10          1           0       -2.290672   -0.052719    1.174835
     11          1           0       -2.397822    0.911061   -0.301438
     12          1           0       -0.198043    2.147004    0.102581
     13          1           0       -0.213244   -2.144852   -0.117025
 ---------------------------------------------------------------------
                    Distance matrix (angstroms):
                    1          2          3          4          5
     1  C    0.000000
     2  C    1.504600   0.000000
     3  C    2.546140   1.396314   0.000000
     4  N    3.788672   2.407681   1.337524   0.000000
     5  C    4.179692   2.675213   2.251955   1.327716   0.000000
     6  Cl   5.925978   4.421580   3.851086   2.617480   1.746399
     7  N    3.788666   2.407678   2.719291   2.385115   1.327708
     8  C    2.546129   1.396311   2.350239   2.719300   2.251959
     9  H    1.093558   2.155453   3.398514   4.530890   4.690841
    10  H    1.095840   2.157193   3.074179   4.281659   4.678253
    11  H    1.093559   2.155454   2.717873   4.037832   4.690836
    12  H    2.784234   2.165149   1.089280   2.061039   3.228394
    13  H    2.784229   2.165154   3.359567   3.807616   3.228391
                    6          7          8          9         10
     6  Cl   0.000000
     7  N    2.617479   0.000000
     8  C    3.851093   1.337529   0.000000
     9  H    6.408578   4.038030   2.718153   0.000000
    10  H    6.389698   4.281267   3.073639   1.766268   0.000000
    11  H    6.408568   4.531057   3.398737   1.771335   1.766277
    12  H    4.678468   3.807609   3.359563   3.760596   3.219877
    13  H    4.678467   2.061039   1.089278   2.555906   3.218948
                   11         12         13
    11  H    0.000000
    12  H    2.555349   0.000000
    13  H    3.760983   4.297498   0.000000
 Stoichiometry    C5H5ClN2
 Framework group  C1[X(C5H5ClN2)]
 Deg. of freedom    33
 Full point group                 C1      NOp   1
 Largest Abelian subgroup         C1      NOp   1
 Largest concise Abelian subgroup C1      NOp   1
                         Standard orientation:                         
 ---------------------------------------------------------------------
 Center     Atomic      Atomic             Coordinates (Angstroms)
 Number     Number       Type             X           Y           Z
 ---------------------------------------------------------------------
      1          6           0       -3.252279   -0.000001    0.016105
      2          6           0       -1.747856    0.000004   -0.007035
      3          6           0       -0.993678    1.175122   -0.009157
      4          7           0        0.343731    1.192560   -0.007349
      5          6           0        0.927356   -0.000003   -0.005687
      6         17           0        2.673695   -0.000003    0.008866
      7          7           0        0.343726   -1.192555   -0.007348
      8          6           0       -0.993688   -1.175118   -0.009159
      9          1           0       -3.654241   -0.885330   -0.484382
     10          1           0       -3.631564   -0.000693    1.044214
     11          1           0       -3.654228    0.886004   -0.483199
     12          1           0       -1.482052    2.148750   -0.017436
     13          1           0       -1.482055   -2.148748   -0.017436
 ---------------------------------------------------------------------
 Rotational constants (GHZ):           5.9149431           1.0209417           0.8754327
 Standard basis: 6-31G(d,p) (6D, 7F)
 There are   149 symmetry adapted cartesian basis functions of A   symmetry.
 There are   149 symmetry adapted basis functions of A   symmetry.
   149 basis functions,   283 primitive gaussians,   149 cartesian basis functions
    33 alpha electrons       33 beta electrons
       nuclear repulsion energy       401.2849393230 Hartrees.
 NAtoms=   13 NActive=   13 NUniq=   13 SFac= 1.00D+00 NAtFMM=   60 NAOKFM=F Big=F
 Integral buffers will be    131072 words long.
 Raffenetti 2 integral format.
 Two-electron integral symmetry is turned on.
 Nuclear repulsion after empirical dispersion term =      401.2612216918 Hartrees.
 One-electron integrals computed using PRISM.
 NBasis=   149 RedAO= T EigKep=  1.22D-03  NBF=   149
 NBsUse=   149 1.00D-06 EigRej= -1.00D+00 NBFU=   149
 Initial guess from the checkpoint file:  "pyrmd6_conf-1.chk"
 B after Tr=     0.000000    0.000000    0.000000
         Rot=    1.000000    0.000000   -0.000071   -0.000001 Ang=   0.01 deg.
 ExpMin= 1.43D-01 ExpMax= 2.52D+04 ExpMxC= 3.78D+03 IAcc=3 IRadAn=         5 AccDes= 0.00D+00
 Harris functional with IExCor=  402 and IRadAn=       5 diagonalized for initial guess.
 HarFok:  IExCor=  402 AccDes= 0.00D+00 IRadAn=         5 IDoV= 1 UseB2=F ITyADJ=14
 ICtDFT=  3500011 ScaDFX=  1.000000  1.000000  1.000000  1.000000
 FoFCou: FMM=F IPFlag=           0 FMFlag=      100000 FMFlg1=           0
         NFxFlg=           0 DoJE=T BraDBF=F KetDBF=T FulRan=T
         wScrn=  0.000000 ICntrl=       500 IOpCl=  0 I1Cent=   200000004 NGrid=           0
         NMat0=    1 NMatS0=      1 NMatT0=    0 NMatD0=    1 NMtDS0=    0 NMtDT0=    0
 Petite list used in FoFCou.
 Requested convergence on RMS density matrix=1.00D-08 within 128 cycles.
 Requested convergence on MAX density matrix=1.00D-06.
 Requested convergence on             energy=1.00D-06.
 No special actions if energy rises.
 Integral accuracy reduced to 1.0D-05 until final iterations.
 Initial convergence to 1.0D-05 achieved.  Increase integral accuracy.
 SCF Done:  E(RB3LYP) =  -763.270094446     A.U. after   10 cycles
            NFock= 10  Conv=0.81D-08     -V/T= 2.0056
 Calling FoFJK, ICntrl=      2127 FMM=F ISym2X=0 I1Cent= 0 IOpClX= 0 NMat=1 NMatS=1 NMatT=0.
 ***** Axes restored to original set *****
 -------------------------------------------------------------------
 Center     Atomic                   Forces (Hartrees/Bohr)
 Number     Number              X              Y              Z
 -------------------------------------------------------------------
      1        6           0.000791957    0.000026450   -0.000533000
      2        6          -0.000941265   -0.000025659    0.000602178
      3        6           0.000149975    0.001695441   -0.000193568
      4        7           0.000098536    0.000001121   -0.000350911
      5        6          -0.002475223   -0.000045802    0.001195345
      6       17           0.002317575    0.000009650   -0.000355541
      7        7           0.000091718    0.000026989   -0.000349458
      8        6           0.000145851   -0.001668319   -0.000365565
      9        1          -0.000090531    0.000123987    0.000134060
     10        1          -0.000005534   -0.000003315    0.000067728
     11        1          -0.000089762   -0.000138507    0.000121523
     12        1           0.000002655   -0.000274322   -0.000000274
     13        1           0.000004048    0.000272286    0.000027485
 -------------------------------------------------------------------
 Cartesian Forces:  Max     0.002475223 RMS     0.000744066

 GradGradGradGradGradGradGradGradGradGradGradGradGradGradGradGradGradGrad
 Berny optimization.
 Using GEDIIS/GDIIS optimizer.
 FormGI is forming the generalized inverse of G from B-inverse, IUseBI=4.
 Internal  Forces:  Max     0.002332249 RMS     0.000426469
 Search for a local minimum.
 Step number   3 out of a maximum of   65
 All quantities printed in internal units (Hartrees-Bohrs-Radians)
 Mixed Optimization -- En-DIIS/RFO-DIIS
 Update second derivatives using D2CorX and points    1    2    3
 DE= -3.19D-04 DEPred=-2.91D-04 R= 1.10D+00
 TightC=F SS=  1.41D+00  RLast= 5.78D-02 DXNew= 7.8928D-01 1.7340D-01
 Trust test= 1.10D+00 RLast= 5.78D-02 DXMaxT set to 4.69D-01
 ITU=  1  1  0
 Use linear search instead of GDIIS.
     Eigenvalues ---    0.00539   0.01435   0.02065   0.02144   0.02152
     Eigenvalues ---    0.02207   0.02230   0.02360   0.06927   0.07097
     Eigenvalues ---    0.15583   0.16000   0.16000   0.16026   0.16060
     Eigenvalues ---    0.23165   0.23418   0.24510   0.24997   0.25000
     Eigenvalues ---    0.29334   0.31204   0.34720   0.34732   0.34754
     Eigenvalues ---    0.35929   0.36164   0.42180   0.44732   0.50156
     Eigenvalues ---    0.51551   0.53115   0.58552
 RFO step:  Lambda=-6.18059945D-05 EMin= 5.39309430D-03
 Quartic linear search produced a step of  0.11744.
 Iteration  1 RMS(Cart)=  0.00480513 RMS(Int)=  0.00005053
 Iteration  2 RMS(Cart)=  0.00004313 RMS(Int)=  0.00003577
 Iteration  3 RMS(Cart)=  0.00000000 RMS(Int)=  0.00003577
 Variable       Old X    -DE/DX   Delta X   Delta X   Delta X     New X
                                 (Linear)    (Quad)   (Total)
    R1        2.84328  -0.00062  -0.00086  -0.00248  -0.00334   2.83994
    R2        2.06653  -0.00013   0.00002  -0.00033  -0.00030   2.06622
    R3        2.07084   0.00007   0.00022   0.00033   0.00055   2.07139
    R4        2.06653  -0.00013   0.00003  -0.00034  -0.00031   2.06622
    R5        2.63865   0.00100   0.00057   0.00236   0.00292   2.64157
    R6        2.63865   0.00100   0.00057   0.00237   0.00293   2.64157
    R7        2.52755   0.00001   0.00035  -0.00065  -0.00030   2.52726
    R8        2.05844  -0.00025   0.00048  -0.00060  -0.00012   2.05832
    R9        2.50902   0.00024  -0.00068  -0.00037  -0.00103   2.50798
   R10        3.30022   0.00233   0.00343   0.00791   0.01134   3.31156
   R11        2.50900   0.00025  -0.00068  -0.00035  -0.00102   2.50799
   R12        2.52756   0.00001   0.00035  -0.00066  -0.00031   2.52725
   R13        2.05844  -0.00025   0.00048  -0.00060  -0.00012   2.05832
    A1        1.93959   0.00021   0.00030   0.00159   0.00189   1.94148
    A2        1.93960  -0.00012   0.00005  -0.00108  -0.00103   1.93857
    A3        1.93959   0.00020   0.00030   0.00158   0.00187   1.94147
    A4        1.87722  -0.00009  -0.00075  -0.00113  -0.00187   1.87534
    A5        1.88795  -0.00013   0.00082   0.00002   0.00083   1.88877
    A6        1.87723  -0.00009  -0.00075  -0.00113  -0.00188   1.87535
    A7        2.14133  -0.00019   0.00049  -0.00086  -0.00037   2.14096
    A8        2.14132  -0.00019   0.00049  -0.00086  -0.00036   2.14096
    A9        2.00043   0.00038  -0.00099   0.00181   0.00079   2.00122
   A10        2.15441  -0.00045   0.00009  -0.00177  -0.00169   2.15272
   A11        2.10608   0.00010  -0.00097   0.00011  -0.00085   2.10523
   A12        2.02268   0.00035   0.00088   0.00166   0.00254   2.02523
   A13        2.01288   0.00005   0.00099  -0.00050   0.00051   2.01339
   A14        2.02591  -0.00021   0.00058  -0.00124  -0.00082   2.02509
   A15        2.23134   0.00042  -0.00116   0.00266   0.00138   2.23272
   A16        2.02592  -0.00021   0.00058  -0.00125  -0.00083   2.02509
   A17        2.01289   0.00005   0.00099  -0.00051   0.00050   2.01339
   A18        2.15440  -0.00045   0.00009  -0.00176  -0.00168   2.15272
   A19        2.10609   0.00010  -0.00097   0.00011  -0.00086   2.10524
   A20        2.02268   0.00035   0.00088   0.00166   0.00255   2.02522
    D1        2.62991   0.00000   0.00149  -0.00239  -0.00088   2.62902
    D2       -0.52781   0.00011  -0.00006   0.00457   0.00450  -0.52331
    D3       -1.56341  -0.00005   0.00078  -0.00347  -0.00268  -1.56609
    D4        1.56206   0.00005  -0.00078   0.00349   0.00270   1.56476
    D5        0.52648  -0.00011   0.00006  -0.00456  -0.00449   0.52198
    D6       -2.63124  -0.00000  -0.00150   0.00239   0.00089  -2.63035
    D7        3.12167  -0.00005  -0.00120  -0.00195  -0.00315   3.11852
    D8       -0.02523  -0.00000  -0.00182   0.00064  -0.00118  -0.02641
    D9       -0.00499  -0.00014   0.00024  -0.00837  -0.00813  -0.01313
   D10        3.13129  -0.00009  -0.00038  -0.00578  -0.00616   3.12513
   D11       -3.12167   0.00005   0.00120   0.00195   0.00315  -3.11852
   D12        0.02523   0.00000   0.00182  -0.00063   0.00118   0.02641
   D13        0.00500   0.00014  -0.00024   0.00836   0.00813   0.01312
   D14       -3.13129   0.00009   0.00038   0.00578   0.00616  -3.12513
   D15        0.00197  -0.00007   0.00004  -0.00297  -0.00292  -0.00095
   D16       -3.13455  -0.00012   0.00064  -0.00545  -0.00481  -3.13935
   D17       -3.13383  -0.00036   0.00136  -0.01796  -0.01661   3.13275
   D18        0.00165   0.00033  -0.00039   0.01705   0.01666   0.01831
   D19       -0.00165  -0.00033   0.00039  -0.01705  -0.01666  -0.01832
   D20        3.13383   0.00036  -0.00136   0.01796   0.01660  -3.13275
   D21       -0.00197   0.00007  -0.00004   0.00298   0.00293   0.00096
   D22        3.13455   0.00012  -0.00063   0.00545   0.00480   3.13935
         Item               Value     Threshold  Converged?
 Maximum Force            0.002332     0.000450     NO 
 RMS     Force            0.000426     0.000300     NO 
 Maximum Displacement     0.024995     0.001800     NO 
 RMS     Displacement     0.004808     0.001200     NO 
 Predicted change in Energy=-3.456964D-05
 GradGradGradGradGradGradGradGradGradGradGradGradGradGradGradGradGradGrad

                          Input orientation:                          
 ---------------------------------------------------------------------
 Center     Atomic      Atomic             Coordinates (Angstroms)
 Number     Number       Type             X           Y           Z
 ---------------------------------------------------------------------
      1          6           0       -1.969878    0.000414    0.127784
      2          6           0       -0.470967    0.000658    0.019305
      3          6           0        0.286204    1.175629    0.031270
      4          7           0        1.621660    1.190254   -0.038672
      5          6           0        2.199626   -0.001629   -0.120812
      6         17           0        3.948791   -0.002379   -0.227243
      7          7           0        1.613224   -1.191558   -0.160550
      8          6           0        0.277881   -1.174719   -0.088995
      9          1           0       -2.404440   -0.858107   -0.391461
     10          1           0       -2.289209   -0.052721    1.175023
     11          1           0       -2.398076    0.911110   -0.299759
     12          1           0       -0.199809    2.148194    0.096857
     13          1           0       -0.215008   -2.145444   -0.122847
 ---------------------------------------------------------------------
                    Distance matrix (angstroms):
                    1          2          3          4          5
     1  C    0.000000
     2  C    1.502832   0.000000
     3  C    2.545653   1.397858   0.000000
     4  N    3.787159   2.407818   1.337366   0.000000
     5  C    4.176909   2.674267   2.251721   1.327168   0.000000
     6  Cl   5.929308   4.426630   3.856044   2.621731   1.752400
     7  N    3.787157   2.407816   2.720543   2.384943   1.327169
     8  C    2.545653   1.397860   2.353437   2.720546   2.251723
     9  H    1.093397   2.155116   3.399168   4.530973   4.690866
    10  H    1.096132   2.155119   3.074047   4.279362   4.672412
    11  H    1.093396   2.155104   2.717519   4.037866   4.690839
    12  H    2.783354   2.165976   1.089217   2.062466   3.228994
    13  H    2.783360   2.165982   3.362215   3.808847   3.228995
                    6          7          8          9         10
     6  Cl   0.000000
     7  N    2.621730   0.000000
     8  C    3.856044   1.337365   0.000000
     9  H    6.412704   4.038085   2.717825   0.000000
    10  H    6.393866   4.278982   3.073527   1.765161   0.000000
    11  H    6.412678   4.531128   3.399389   1.771604   1.765164
    12  H    4.684110   3.808844   3.362213   3.759880   3.220568
    13  H    4.684106   2.062463   1.089217   2.554016   3.219668
                   11         12         13
    11  H    0.000000
    12  H    2.553440   0.000000
    13  H    3.760267   4.299282   0.000000
 Stoichiometry    C5H5ClN2
 Framework group  C1[X(C5H5ClN2)]
 Deg. of freedom    33
 Full point group                 C1      NOp   1
 Largest Abelian subgroup         C1      NOp   1
 Largest concise Abelian subgroup C1      NOp   1
                         Standard orientation:                         
 ---------------------------------------------------------------------
 Center     Atomic      Atomic             Coordinates (Angstroms)
 Number     Number       Type             X           Y           Z
 ---------------------------------------------------------------------
      1          6           0       -3.252036    0.000000    0.013820
      2          6           0       -1.749351    0.000001   -0.007117
      3          6           0       -0.994814    1.176718   -0.011310
      4          7           0        0.342440    1.192473   -0.004075
      5          6           0        0.924869    0.000001    0.008717
      6         17           0        2.677264   -0.000001    0.004436
      7          7           0        0.342438   -1.192471   -0.004076
      8          6           0       -0.994815   -1.176719   -0.011308
      9          1           0       -3.655114   -0.885465   -0.485176
     10          1           0       -3.631848   -0.000678    1.042046
     11          1           0       -3.655083    0.886138   -0.484003
     12          1           0       -1.484361    2.149640   -0.024020
     13          1           0       -1.484356   -2.149643   -0.024019
 ---------------------------------------------------------------------
 Rotational constants (GHZ):           5.9088588           1.0194858           0.8742146
 Standard basis: 6-31G(d,p) (6D, 7F)
 There are   149 symmetry adapted cartesian basis functions of A   symmetry.
 There are   149 symmetry adapted basis functions of A   symmetry.
   149 basis functions,   283 primitive gaussians,   149 cartesian basis functions
    33 alpha electrons       33 beta electrons
       nuclear repulsion energy       401.0363482297 Hartrees.
 NAtoms=   13 NActive=   13 NUniq=   13 SFac= 1.00D+00 NAtFMM=   60 NAOKFM=F Big=F
 Integral buffers will be    131072 words long.
 Raffenetti 2 integral format.
 Two-electron integral symmetry is turned on.
 Nuclear repulsion after empirical dispersion term =      401.0126376999 Hartrees.
 One-electron integrals computed using PRISM.
 NBasis=   149 RedAO= T EigKep=  1.23D-03  NBF=   149
 NBsUse=   149 1.00D-06 EigRej= -1.00D+00 NBFU=   149
 Initial guess from the checkpoint file:  "pyrmd6_conf-1.chk"
 B after Tr=    -0.000000   -0.000000    0.000000
         Rot=    1.000000    0.000000   -0.000005   -0.000000 Ang=   0.00 deg.
 ExpMin= 1.43D-01 ExpMax= 2.52D+04 ExpMxC= 3.78D+03 IAcc=3 IRadAn=         5 AccDes= 0.00D+00
 Harris functional with IExCor=  402 and IRadAn=       5 diagonalized for initial guess.
 HarFok:  IExCor=  402 AccDes= 0.00D+00 IRadAn=         5 IDoV= 1 UseB2=F ITyADJ=14
 ICtDFT=  3500011 ScaDFX=  1.000000  1.000000  1.000000  1.000000
 FoFCou: FMM=F IPFlag=           0 FMFlag=      100000 FMFlg1=           0
         NFxFlg=           0 DoJE=T BraDBF=F KetDBF=T FulRan=T
         wScrn=  0.000000 ICntrl=       500 IOpCl=  0 I1Cent=   200000004 NGrid=           0
         NMat0=    1 NMatS0=      1 NMatT0=    0 NMatD0=    1 NMtDS0=    0 NMtDT0=    0
 Petite list used in FoFCou.
 Requested convergence on RMS density matrix=1.00D-08 within 128 cycles.
 Requested convergence on MAX density matrix=1.00D-06.
 Requested convergence on             energy=1.00D-06.
 No special actions if energy rises.
 Integral accuracy reduced to 1.0D-05 until final iterations.
 Initial convergence to 1.0D-05 achieved.  Increase integral accuracy.
 SCF Done:  E(RB3LYP) =  -763.270096785     A.U. after   10 cycles
            NFock= 10  Conv=0.62D-08     -V/T= 2.0056
 Calling FoFJK, ICntrl=      2127 FMM=F ISym2X=0 I1Cent= 0 IOpClX= 0 NMat=1 NMatS=1 NMatT=0.
 ***** Axes restored to original set *****
 -------------------------------------------------------------------
 Center     Atomic                   Forces (Hartrees/Bohr)
 Number     Number              X              Y              Z
 -------------------------------------------------------------------
      1        6          -0.000162223   -0.000001579    0.000059093
      2        6           0.000751213    0.000002803   -0.000076847
      3        6          -0.000479085   -0.000015389    0.000367443
      4        7           0.000314974    0.000293011    0.000681767
      5        6          -0.000435385    0.000122592   -0.002328964
      6       17          -0.000063854   -0.000033244    0.000653343
      7        7           0.000310399   -0.000365391    0.000648436
      8        6          -0.000476632   -0.000019670    0.000366543
      9        1          -0.000057556    0.000068146   -0.000059213
     10        1           0.000035002   -0.000000042   -0.000006390
     11        1          -0.000057703   -0.000062096   -0.000065916
     12        1           0.000159799   -0.000192303   -0.000129810
     13        1           0.000161051    0.000203164   -0.000109483
 -------------------------------------------------------------------
 Cartesian Forces:  Max     0.002328964 RMS     0.000476915

 GradGradGradGradGradGradGradGradGradGradGradGradGradGradGradGradGradGrad
 Berny optimization.
 Using GEDIIS/GDIIS optimizer.
 FormGI is forming the generalized inverse of G from B-inverse, IUseBI=4.
 Internal  Forces:  Max     0.000967730 RMS     0.000258741
 Search for a local minimum.
 Step number   4 out of a maximum of   65
 All quantities printed in internal units (Hartrees-Bohrs-Radians)
 Mixed Optimization -- En-DIIS/RFO-DIIS
 Swapping is turned off.
 Update second derivatives using D2CorX and points    1    2    3    4
 DE= -2.34D-06 DEPred=-3.46D-05 R= 6.77D-02
 Trust test= 6.77D-02 RLast= 4.07D-02 DXMaxT set to 2.35D-01
 ITU= -1  1  1  0
     Eigenvalues ---    0.00539   0.01433   0.01994   0.02144   0.02154
     Eigenvalues ---    0.02207   0.02222   0.05017   0.06957   0.07102
     Eigenvalues ---    0.14076   0.16000   0.16000   0.16013   0.16093
     Eigenvalues ---    0.19490   0.23167   0.23664   0.24996   0.24999
     Eigenvalues ---    0.29961   0.31028   0.34720   0.34731   0.34747
     Eigenvalues ---    0.35929   0.36311   0.42242   0.44734   0.50158
     Eigenvalues ---    0.51360   0.53114   0.58268
 En-DIIS/RFO-DIIS/Sim-DIIS IScMMF=       -3 using points:     4    3
 RFO step:  Lambda=-5.43854402D-05.
 DidBck=T Rises=F RFO-DIIS coefs:    0.40435    0.59565
 Iteration  1 RMS(Cart)=  0.00504514 RMS(Int)=  0.00004832
 Iteration  2 RMS(Cart)=  0.00004512 RMS(Int)=  0.00000723
 Iteration  3 RMS(Cart)=  0.00000000 RMS(Int)=  0.00000723
 Variable       Old X    -DE/DX   Delta X   Delta X   Delta X     New X
                                 (Linear)    (Quad)   (Total)
    R1        2.83994   0.00024   0.00199  -0.00268  -0.00068   2.83926
    R2        2.06622  -0.00000   0.00018  -0.00027  -0.00009   2.06613
    R3        2.07139  -0.00002  -0.00033   0.00050   0.00017   2.07156
    R4        2.06622  -0.00000   0.00018  -0.00028  -0.00010   2.06612
    R5        2.64157  -0.00021  -0.00174   0.00240   0.00066   2.64223
    R6        2.64157  -0.00021  -0.00174   0.00241   0.00066   2.64223
    R7        2.52726   0.00007   0.00018  -0.00031  -0.00013   2.52712
    R8        2.05832  -0.00025   0.00007  -0.00048  -0.00041   2.05791
    R9        2.50798   0.00010   0.00062  -0.00096  -0.00034   2.50764
   R10        3.31156  -0.00010  -0.00676   0.01025   0.00349   3.31505
   R11        2.50799   0.00010   0.00061  -0.00094  -0.00033   2.50765
   R12        2.52725   0.00007   0.00018  -0.00032  -0.00014   2.52711
   R13        2.05832  -0.00025   0.00007  -0.00048  -0.00041   2.05791
    A1        1.94148   0.00006  -0.00112   0.00191   0.00079   1.94227
    A2        1.93857  -0.00005   0.00062  -0.00101  -0.00039   1.93817
    A3        1.94147   0.00006  -0.00112   0.00190   0.00078   1.94225
    A4        1.87534   0.00002   0.00112  -0.00159  -0.00048   1.87487
    A5        1.88877  -0.00012  -0.00049   0.00018  -0.00031   1.88847
    A6        1.87535   0.00002   0.00112  -0.00159  -0.00048   1.87488
    A7        2.14096  -0.00012   0.00022  -0.00059  -0.00037   2.14059
    A8        2.14096  -0.00012   0.00021  -0.00058  -0.00036   2.14059
    A9        2.00122   0.00025  -0.00047   0.00120   0.00073   2.00195
   A10        2.15272  -0.00002   0.00101  -0.00159  -0.00058   2.15214
   A11        2.10523   0.00007   0.00051  -0.00052  -0.00001   2.10522
   A12        2.02523  -0.00005  -0.00152   0.00211   0.00059   2.02582
   A13        2.01339  -0.00026  -0.00030  -0.00019  -0.00047   2.01292
   A14        2.02509  -0.00014   0.00049  -0.00106  -0.00060   2.02449
   A15        2.23272   0.00032  -0.00082   0.00232   0.00149   2.23421
   A16        2.02509  -0.00014   0.00050  -0.00107  -0.00060   2.02448
   A17        2.01339  -0.00026  -0.00030  -0.00019  -0.00047   2.01292
   A18        2.15272  -0.00002   0.00100  -0.00159  -0.00058   2.15214
   A19        2.10524   0.00007   0.00051  -0.00052  -0.00002   2.10522
   A20        2.02522  -0.00005  -0.00152   0.00211   0.00059   2.02582
    D1        2.62902  -0.00001   0.00053  -0.00035   0.00018   2.62920
    D2       -0.52331  -0.00005  -0.00268   0.00319   0.00051  -0.52280
    D3       -1.56609   0.00002   0.00160  -0.00176  -0.00016  -1.56625
    D4        1.56476  -0.00002  -0.00161   0.00178   0.00017   1.56494
    D5        0.52198   0.00005   0.00268  -0.00318  -0.00050   0.52148
    D6       -2.63035   0.00001  -0.00053   0.00036  -0.00017  -2.63052
    D7        3.11852   0.00010   0.00188  -0.00055   0.00132   3.11984
    D8       -0.02641   0.00002   0.00070  -0.00080  -0.00010  -0.02651
    D9       -0.01313   0.00013   0.00484  -0.00382   0.00102  -0.01211
   D10        3.12513   0.00005   0.00367  -0.00407  -0.00040   3.12473
   D11       -3.11852  -0.00010  -0.00188   0.00055  -0.00132  -3.11984
   D12        0.02641  -0.00002  -0.00070   0.00080   0.00010   0.02651
   D13        0.01312  -0.00013  -0.00484   0.00382  -0.00102   0.01211
   D14       -3.12513  -0.00005  -0.00367   0.00407   0.00040  -3.12473
   D15       -0.00095   0.00020   0.00174   0.00222   0.00395   0.00300
   D16       -3.13935   0.00028   0.00286   0.00245   0.00531  -3.13404
   D17        3.13275   0.00097   0.00989   0.00870   0.01859  -3.13185
   D18        0.01831  -0.00063  -0.00992  -0.00031  -0.01024   0.00807
   D19       -0.01832   0.00063   0.00993   0.00031   0.01024  -0.00807
   D20       -3.13275  -0.00097  -0.00989  -0.00870  -0.01859   3.13185
   D21        0.00096  -0.00020  -0.00175  -0.00221  -0.00395  -0.00299
   D22        3.13935  -0.00028  -0.00286  -0.00246  -0.00531   3.13404
         Item               Value     Threshold  Converged?
 Maximum Force            0.000968     0.000450     NO 
 RMS     Force            0.000259     0.000300     YES
 Maximum Displacement     0.027712     0.001800     NO 
 RMS     Displacement     0.005055     0.001200     NO 
 Predicted change in Energy=-2.722966D-05
 GradGradGradGradGradGradGradGradGradGradGradGradGradGradGradGradGradGrad

                          Input orientation:                          
 ---------------------------------------------------------------------
 Center     Atomic      Atomic             Coordinates (Angstroms)
 Number     Number       Type             X           Y           Z
 ---------------------------------------------------------------------
      1          6           0       -1.969227    0.000341    0.129168
      2          6           0       -0.470793    0.000666    0.019140
      3          6           0        0.286073    1.176256    0.030167
      4          7           0        1.621305    1.190732   -0.042659
      5          6           0        2.198023   -0.001080   -0.131400
      6         17           0        3.950391   -0.003136   -0.212578
      7          7           0        1.612867   -1.191627   -0.164566
      8          6           0        0.277748   -1.175230   -0.090159
      9          1           0       -2.405034   -0.858090   -0.389077
     10          1           0       -2.287068   -0.052822    1.176952
     11          1           0       -2.398666    0.910850   -0.297398
     12          1           0       -0.200210    2.148423    0.096018
     13          1           0       -0.215409   -2.145585   -0.123709
 ---------------------------------------------------------------------
                    Distance matrix (angstroms):
                    1          2          3          4          5
     1  C    0.000000
     2  C    1.502469   0.000000
     3  C    2.545379   1.398206   0.000000
     4  N    3.786618   2.407685   1.337295   0.000000
     5  C    4.175389   2.673059   2.251173   1.326987   0.000000
     6  Cl   5.929476   4.427253   3.857087   2.622753   1.754248
     7  N    3.786617   2.407685   2.721245   2.385491   1.326993
     8  C    2.545383   1.398210   2.354578   2.721246   2.251174
     9  H    1.093348   2.155317   3.399468   4.530903   4.689243
    10  H    1.096221   2.154587   3.073565   4.278932   4.672312
    11  H    1.093345   2.155303   2.717639   4.037746   4.689214
    12  H    2.782944   2.166100   1.088998   2.062600   3.228561
    13  H    2.782952   2.166107   3.363003   3.809344   3.228562
                    6          7          8          9         10
     6  Cl   0.000000
     7  N    2.622753   0.000000
     8  C    3.857084   1.337291   0.000000
     9  H    6.415101   4.037968   2.717950   0.000000
    10  H    6.390552   4.278556   3.073053   1.764885   0.000000
    11  H    6.415068   4.531054   3.399688   1.771326   1.764887
    12  H    4.685288   3.809342   3.363002   3.759746   3.220074
    13  H    4.685283   2.062595   1.088998   2.553923   3.219184
                   11         12         13
    11  H    0.000000
    12  H    2.553346   0.000000
    13  H    3.760130   4.299653   0.000000
 Stoichiometry    C5H5ClN2
 Framework group  C1[X(C5H5ClN2)]
 Deg. of freedom    33
 Full point group                 C1      NOp   1
 Largest Abelian subgroup         C1      NOp   1
 Largest concise Abelian subgroup C1      NOp   1
                         Standard orientation:                         
 ---------------------------------------------------------------------
 Center     Atomic      Atomic             Coordinates (Angstroms)
 Number     Number       Type             X           Y           Z
 ---------------------------------------------------------------------
      1          6           0       -3.251563    0.000000    0.020170
      2          6           0       -1.749313    0.000001   -0.005526
      3          6           0       -0.995040    1.177288   -0.012302
      4          7           0        0.342165    1.192746   -0.010781
      5          6           0        0.923745    0.000003   -0.005877
      6         17           0        2.677907   -0.000001    0.011556
      7          7           0        0.342164   -1.192745   -0.010781
      8          6           0       -0.995037   -1.177290   -0.012300
      9          1           0       -3.656995   -0.885329   -0.477048
     10          1           0       -3.627737   -0.000672    1.049827
     11          1           0       -3.656957    0.885996   -0.475884
     12          1           0       -1.484897    2.149824   -0.023707
     13          1           0       -1.484889   -2.149829   -0.023707
 ---------------------------------------------------------------------
 Rotational constants (GHZ):           5.9046234           1.0193366           0.8740415
 Standard basis: 6-31G(d,p) (6D, 7F)
 There are   149 symmetry adapted cartesian basis functions of A   symmetry.
 There are   149 symmetry adapted basis functions of A   symmetry.
   149 basis functions,   283 primitive gaussians,   149 cartesian basis functions
    33 alpha electrons       33 beta electrons
       nuclear repulsion energy       400.9813676615 Hartrees.
 NAtoms=   13 NActive=   13 NUniq=   13 SFac= 1.00D+00 NAtFMM=   60 NAOKFM=F Big=F
 Integral buffers will be    131072 words long.
 Raffenetti 2 integral format.
 Two-electron integral symmetry is turned on.
 Nuclear repulsion after empirical dispersion term =      400.9576590715 Hartrees.
 One-electron integrals computed using PRISM.
 NBasis=   149 RedAO= T EigKep=  1.23D-03  NBF=   149
 NBsUse=   149 1.00D-06 EigRej= -1.00D+00 NBFU=   149
 Initial guess from the checkpoint file:  "pyrmd6_conf-1.chk"
[...]
 ---------------------------------------------------------------------
 Rotational constants (GHZ):           5.9058129           1.0198018           0.8743986
 Standard basis: def2TZVP (5D, 7F)
 There are   324 symmetry adapted cartesian basis functions of A   symmetry.
 There are   284 symmetry adapted basis functions of A   symmetry.
   284 basis functions,   466 primitive gaussians,   324 cartesian basis functions
    33 alpha electrons       33 beta electrons
       nuclear repulsion energy       401.0484822490 Hartrees.
 NAtoms=   13 NActive=   13 NUniq=   13 SFac= 1.00D+00 NAtFMM=   60 NAOKFM=F Big=F
 Integral buffers will be    131072 words long.
 Raffenetti 2 integral format.
 Two-electron integral symmetry is turned on.
 One-electron integrals computed using PRISM.
   1 Symmetry operations used in ECPInt.
 ECPInt:  NShTT=    6105 NPrTT=   19708 LenC2=    5910 LenP2D=   15040.
 LDataN:  DoStor=T MaxTD1= 6 Len=  172
 NBasis=   284 RedAO= T EigKep=  8.94D-05  NBF=   284
 NBsUse=   284 1.00D-06 EigRej= -1.00D+00 NBFU=   284
 Initial guess from the checkpoint file:  "pyrmd6_conf-1.chk"
 B after Tr=     0.000000   -0.000000    0.000000
         Rot=    1.000000   -0.000000   -0.000000   -0.000000 Ang=   0.00 deg.
 Requested convergence on RMS density matrix=1.00D-08 within 128 cycles.
 Requested convergence on MAX density matrix=1.00D-06.
 Requested convergence on             energy=1.00D-06.
 No special actions if energy rises.
 SCF Done:  E(RM062X) =  -763.225692581     A.U. after    1 cycles
            NFock=  1  Conv=0.83D-09     -V/T= 2.0027
 DoSCS=F DFT=T ScalE2(SS,OS)=  1.000000  1.000000
 Range of M.O.s used for correlation:     1   284
 NBasis=   284 NAE=    33 NBE=    33 NFC=     0 NFV=     0
 NROrb=    284 NOA=    33 NOB=    33 NVA=   251 NVB=   251

 **** Warning!!: The largest alpha MO coefficient is  0.35050146D+02

          Differentiating once with respect to magnetic field using GIAOs.
          Electric field/nuclear overlap derivatives assumed to be zero.
 FoFCou: FMM=F IPFlag=           0 FMFlag=      100000 FMFlg1=           0
         NFxFlg=           0 DoJE=F BraDBF=F KetDBF=T FulRan=T
         wScrn=  0.000000 ICntrl=      6100 IOpCl=  0 I1Cent=           7 NGrid=          13
         NMat0=    1 NMatS0=      1 NMatT0=    0 NMatD0=    1 NMtDS0=    0 NMtDT0=    0
 Symmetry not used in FoFCou.
   1 Symmetry operations used in ECPInt.
 ECPInt:  NShTT=    6105 NPrTT=   19708 LenC2=    6106 LenP2D=   19708.
 LDataN:  DoStor=T MaxTD1= 7 Len=  274
 FoFJK:  IHMeth= 1 ICntrl=    6127 DoSepK=F KAlg= 0 I1Cent=           0 FoldK=F
 IRaf=         1 NMat=       1 IRICut=       1 DoRegI=T DoRafI=F ISym2E= 0 IDoP0=0 IntGTp=1.
          There are     3 degrees of freedom in the 1st order CPHF.  IDoFFX=0 NUNeed=     3.
      3 vectors produced by pass  0 Test12= 2.76D-13 3.33D-08 XBig12= 5.52D+00 6.35D-01.
 AX will form     3 AO Fock derivatives at one time.
      3 vectors produced by pass  1 Test12= 2.76D-13 3.33D-08 XBig12= 4.29D-02 1.11D-01.
      3 vectors produced by pass  2 Test12= 2.76D-13 3.33D-08 XBig12= 1.16D-03 2.06D-02.
      3 vectors produced by pass  3 Test12= 2.76D-13 3.33D-08 XBig12= 2.42D-05 1.59D-03.
      3 vectors produced by pass  4 Test12= 2.76D-13 3.33D-08 XBig12= 3.52D-07 1.97D-04.
      3 vectors produced by pass  5 Test12= 2.76D-13 3.33D-08 XBig12= 4.28D-09 2.38D-05.
      3 vectors produced by pass  6 Test12= 2.76D-13 3.33D-08 XBig12= 7.15D-11 3.01D-06.
      3 vectors produced by pass  7 Test12= 2.76D-13 3.33D-08 XBig12= 7.11D-13 2.38D-07.
 InvSVY:  IOpt=1 It=  1 EMax= 4.44D-16
 Solved reduced A of dimension    24 with     3 vectors.
 Calculating GIAO nuclear magnetic shielding tensors.
 SCF GIAO Magnetic shielding tensor (ppm):
      1  C    Isotropic =   170.3011   Anisotropy =    29.7393
   XX=   190.1004   YX=    -0.0068   ZX=     2.8635
   XY=    -0.0016   YY=   164.3850   ZY=    -0.0005
   XZ=    -4.7671   YZ=    -0.0005   ZZ=   156.4180
   Eigenvalues:   156.3911   164.3849   190.1273
      2  C    Isotropic =    34.6682   Anisotropy =   219.2077
   XX=   -95.9921   YX=     0.0007   ZX=     1.6717
   XY=    -0.0005   YY=    19.1944   ZY=     0.0001
   XZ=    -3.8756   YZ=    -0.0003   ZZ=   180.8023
   Eigenvalues:   -95.9965    19.1944   180.8067
      3  C    Isotropic =     0.5425   Anisotropy =   200.5718
   XX=   -54.3848   YX=    67.1537   ZX=     0.3604
   XY=    51.4601   YY=   -78.1034   ZY=     2.1068
   XZ=     7.4727   YZ=     2.2463   ZZ=   134.1158
   Eigenvalues:  -126.7276    -5.9019   134.2571
      4  N    Isotropic =  -113.2588   Anisotropy =   532.3107
   XX=  -317.5411   YX=    94.0164   ZX=    -1.8030
   XY=    70.4087   YY=  -263.8414   ZY=     3.1818
   XZ=    -0.0220   YZ=     0.9307   ZZ=   241.6060
   Eigenvalues:  -377.1833  -204.2082   241.6149
      5  C    Isotropic =    -4.9112   Anisotropy =   105.4261
   XX=  -108.5666   YX=    -0.0046   ZX=    -0.8853
   XY=    -0.0006   YY=    28.5002   ZY=     0.0000
   XZ=    -4.3905   YZ=    -0.0000   ZZ=    65.3328
   Eigenvalues:  -108.6066    28.5002    65.3728
      6  Cl   Isotropic =   550.9446   Anisotropy =   691.5253
   XX=  1011.9414   YX=    -0.0025   ZX=     5.3605
   XY=    -0.0020   YY=   316.8485   ZY=    -0.0000
   XZ=     2.0794   YZ=     0.0001   ZZ=   324.0439
   Eigenvalues:   316.8485   324.0238  1011.9615
      7  N    Isotropic =  -113.2579   Anisotropy =   532.3228
   XX=  -317.5410   YX=   -94.0156   ZX=    -1.8029
   XY=   -70.4104   YY=  -263.8477   ZY=    -3.1818
   XZ=    -0.0224   YZ=    -0.9309   ZZ=   241.6150
   Eigenvalues:  -377.1858  -204.2118   241.6240
      8  C    Isotropic =     0.5396   Anisotropy =   200.5947
   XX=   -54.4014   YX=   -67.1491   ZX=     0.3605
   XY=   -51.4635   YY=   -78.1079   ZY=    -2.1070
   XZ=     7.4725   YZ=    -2.2462   ZZ=   134.1282
   Eigenvalues:  -126.7363    -5.9142   134.2694
      9  H    Isotropic =    29.6263   Anisotropy =     7.9284
   XX=    30.4269   YX=     3.1205   ZX=     1.7144
   XY=     1.2950   YY=    31.8587   ZY=     2.5662
   XZ=     2.3736   YZ=     3.0440   ZZ=    26.5933
   Eigenvalues:    25.1452    28.8219    34.9119
     10  H    Isotropic =    29.5293   Anisotropy =     8.6994
   XX=    30.1412   YX=     0.0022   ZX=    -3.4485
   XY=     0.0011   YY=    26.6870   ZY=    -0.0040
   XZ=    -5.1576   YZ=    -0.0053   ZZ=    31.7597
   Eigenvalues:    26.5720    26.6871    35.3289
     11  H    Isotropic =    29.6269   Anisotropy =     7.9274
   XX=    30.4272   YX=    -3.1228   ZX=     1.7104
   XY=    -1.2956   YY=    31.8665   ZY=    -2.5621
   XZ=     2.3679   YZ=    -3.0387   ZZ=    26.5870
   Eigenvalues:    25.1455    28.8234    34.9119
     12  H    Isotropic =    22.6504   Anisotropy =     8.8453
   XX=    25.6232   YX=     4.3258   ZX=    -0.0441
   XY=     3.8621   YY=    22.8081   ZY=    -0.0058
   XZ=     0.0254   YZ=    -0.4726   ZZ=    19.5197
   Eigenvalues:    19.4376    19.9663    28.5472
     13  H    Isotropic =    22.6500   Anisotropy =     8.8463
   XX=    25.6233   YX=    -4.3266   ZX=    -0.0441
   XY=    -3.8623   YY=    22.8077   ZY=     0.0058
   XZ=     0.0254   YZ=     0.4726   ZZ=    19.5191
   Eigenvalues:    19.4370    19.9656    28.5476
 End of Minotr F.D. properties file   721 does not exist.
 End of Minotr F.D. properties file   722 does not exist.
 End of Minotr F.D. properties file   788 does not exist.

 **********************************************************************

            Population analysis using the SCF Density.

 **********************************************************************

 Orbital symmetries:
       Occupied  (A) (A) (A) (A) (A) (A) (A) (A) (A) (A) (A) (A)
                 (A) (A) (A) (A) (A) (A) (A) (A) (A) (A) (A) (A)
                 (A) (A) (A) (A) (A) (A) (A) (A) (A)
       Virtual   (A) (A) (A) (A) (A) (A) (A) (A) (A) (A) (A) (A)
                 (A) (A) (A) (A) (A) (A) (A) (A) (A) (A) (A) (A)
                 (A) (A) (A) (A) (A) (A) (A) (A) (A) (A) (A) (A)
                 (A) (A) (A) (A) (A) (A) (A) (A) (A) (A) (A) (A)
                 (A) (A) (A) (A) (A) (A) (A) (A) (A) (A) (A) (A)
                 (A) (A) (A) (A) (A) (A) (A) (A) (A) (A) (A) (A)
                 (A) (A) (A) (A) (A) (A) (A) (A) (A) (A) (A) (A)
                 (A) (A) (A) (A) (A) (A) (A) (A) (A) (A) (A) (A)
                 (A) (A) (A) (A) (A) (A) (A) (A) (A) (A) (A) (A)
                 (A) (A) (A) (A) (A) (A) (A) (A) (A) (A) (A) (A)
                 (A) (A) (A) (A) (A) (A) (A) (A) (A) (A) (A) (A)
                 (A) (A) (A) (A) (A) (A) (A) (A) (A) (A) (A) (A)
                 (A) (A) (A) (A) (A) (A) (A) (A) (A) (A) (A) (A)
                 (A) (A) (A) (A) (A) (A) (A) (A) (A) (A) (A) (A)
                 (A) (A) (A) (A) (A) (A) (A) (A) (A) (A) (A) (A)
                 (A) (A) (A) (A) (A) (A) (A) (A) (A) (A) (A) (A)
                 (A) (A) (A) (A) (A) (A) (A) (A) (A) (A) (A) (A)
                 (A) (A) (A) (A) (A) (A) (A) (A) (A) (A) (A) (A)
                 (A) (A) (A) (A) (A) (A) (A) (A) (A) (A) (A) (A)
                 (A) (A) (A) (A) (A) (A) (A) (A) (A) (A) (A) (A)
                 (A) (A) (A) (A) (A) (A) (A) (A) (A) (A) (A)
 The electronic state is 1-A.
 Alpha  occ. eigenvalues -- -102.64374 -14.77669 -14.77668 -10.67335 -10.61069
 Alpha  occ. eigenvalues --  -10.61068 -10.58189 -10.56216  -9.80658  -7.52853
 Alpha  occ. eigenvalues --   -7.52351  -7.52303  -1.12792  -1.01753  -0.96503
 Alpha  occ. eigenvalues --   -0.90996  -0.80770  -0.76980  -0.71951  -0.61848
 Alpha  occ. eigenvalues --   -0.60779  -0.54086  -0.51504  -0.50564  -0.50207
 Alpha  occ. eigenvalues --   -0.49069  -0.47956  -0.40648  -0.39735  -0.39572
 Alpha  occ. eigenvalues --   -0.38232  -0.33802  -0.32635
 Alpha virt. eigenvalues --   -0.02812  -0.00855   0.05731   0.08376   0.10162
 Alpha virt. eigenvalues --    0.10386   0.11027   0.13099   0.14096   0.16254
 Alpha virt. eigenvalues --    0.17057   0.19216   0.19659   0.21593   0.21833
 Alpha virt. eigenvalues --    0.24360   0.27652   0.27659   0.29461   0.29491
 Alpha virt. eigenvalues --    0.30670   0.31445   0.32642   0.33390   0.34241
 Alpha virt. eigenvalues --    0.35573   0.37466   0.38808   0.40206   0.41178
 Alpha virt. eigenvalues --    0.42272   0.42745   0.43281   0.44205   0.44491
 Alpha virt. eigenvalues --    0.45629   0.47451   0.49085   0.49363   0.50632
 Alpha virt. eigenvalues --    0.51465   0.53921   0.54084   0.57118   0.57911
 Alpha virt. eigenvalues --    0.58846   0.61103   0.61605   0.63260   0.66078
 Alpha virt. eigenvalues --    0.66570   0.66965   0.68919   0.69297   0.71450
 Alpha virt. eigenvalues --    0.74004   0.74609   0.78785   0.80407   0.81019
 Alpha virt. eigenvalues --    0.82500   0.86437   0.88584   0.92030   0.94856
 Alpha virt. eigenvalues --    0.97936   1.00409   1.03181   1.04591   1.06824
 Alpha virt. eigenvalues --    1.06939   1.12531   1.14634   1.15980   1.19928
 Alpha virt. eigenvalues --    1.23999   1.27239   1.29877   1.32916   1.34232
 Alpha virt. eigenvalues --    1.35371   1.35836   1.37476   1.43085   1.43383
 Alpha virt. eigenvalues --    1.47744   1.49046   1.50841   1.52954   1.54862
 Alpha virt. eigenvalues --    1.57028   1.57611   1.57665   1.59143   1.59939
 Alpha virt. eigenvalues --    1.65068   1.65071   1.65830   1.69620   1.70438
 Alpha virt. eigenvalues --    1.76586   1.77519   1.83260   1.83452   1.84957
 Alpha virt. eigenvalues --    1.86770   1.87025   1.88247   1.89066   1.89562
 Alpha virt. eigenvalues --    1.91707   1.93142   1.93388   1.97085   1.99795
 Alpha virt. eigenvalues --    2.02570   2.04086   2.06342   2.10158   2.12406
 Alpha virt. eigenvalues --    2.13156   2.14422   2.15372   2.18045   2.21659
 Alpha virt. eigenvalues --    2.23296   2.24469   2.27349   2.28114   2.30009
 Alpha virt. eigenvalues --    2.30502   2.31176   2.33052   2.36286   2.37318
 Alpha virt. eigenvalues --    2.40634   2.41529   2.44733   2.47033   2.47671
 Alpha virt. eigenvalues --    2.48752   2.53603   2.59625   2.63745   2.65228
 Alpha virt. eigenvalues --    2.66385   2.68246   2.70210   2.75852   2.76612
 Alpha virt. eigenvalues --    2.82156   2.87436   2.88369   2.89082   2.89648
 Alpha virt. eigenvalues --    2.91799   2.93192   2.94584   2.97205   2.97782
 Alpha virt. eigenvalues --    2.98201   3.01976   3.06370   3.06850   3.08991
 Alpha virt. eigenvalues --    3.12083   3.13827   3.13871   3.16142   3.19156
 Alpha virt. eigenvalues --    3.20630   3.20652   3.24420   3.25161   3.26085
 Alpha virt. eigenvalues --    3.29322   3.30230   3.30336   3.32109   3.37073
 Alpha virt. eigenvalues --    3.38369   3.40790   3.42238   3.43271   3.43689
 Alpha virt. eigenvalues --    3.47951   3.55100   3.60686   3.61980   3.67957
 Alpha virt. eigenvalues --    3.68954   3.71176   3.72555   3.76160   3.77249
 Alpha virt. eigenvalues --    3.82238   3.87113   3.87308   3.88973   3.93604
 Alpha virt. eigenvalues --    4.01587   4.05725   4.08369   4.10385   4.14821
 Alpha virt. eigenvalues --    4.20667   4.23346   4.23722   4.33077   4.42142
 Alpha virt. eigenvalues --    4.43878   4.46755   4.49881   4.56721   4.57924
 Alpha virt. eigenvalues --    4.61280   4.69080   4.71300   4.77357   4.79951
 Alpha virt. eigenvalues --    4.86311   4.93840   4.95306   5.00573   5.00739
 Alpha virt. eigenvalues --    5.05376   5.10931   5.15746   5.21069   5.28534
 Alpha virt. eigenvalues --    5.31499   5.34875   5.37161   5.39079   5.51919
 Alpha virt. eigenvalues --    5.55441   5.67027   5.67694   5.93479   6.15784
 Alpha virt. eigenvalues --   10.81452  10.87792  11.38249  22.45928  22.70359
 Alpha virt. eigenvalues --   22.82635  22.91121  23.12799  25.81258  32.39187
 Alpha virt. eigenvalues --   32.58940
          Condensed to atoms (all electrons):
               1          2          3          4          5          6
     1  C    5.066184   0.242940  -0.053513   0.005075   0.002651   0.000040
     2  C    0.242940   5.194998   0.474674  -0.050337  -0.046215   0.004206
     3  C   -0.053513   0.474674   4.838209   0.503363  -0.085841   0.000047
     4  N    0.005075  -0.050337   0.503363   6.473690   0.498255  -0.091377
     5  C    0.002651  -0.046215  -0.085841   0.498255   4.621718   0.401183
     6  Cl   0.000040   0.004206   0.000047  -0.091377   0.401183  16.829088
     7  N    0.005068  -0.050334  -0.022464  -0.066044   0.498245  -0.091377
     8  C   -0.053527   0.474622  -0.060815  -0.022473  -0.085835   0.000046
     9  H    0.429180  -0.052803   0.007185  -0.000391   0.000060  -0.000001
    10  H    0.391940  -0.022428  -0.005519  -0.000083   0.000007  -0.000003
    11  H    0.429184  -0.052822  -0.007823   0.000395   0.000061  -0.000001
    12  H    0.000234  -0.079683   0.442965  -0.031255   0.006395  -0.000367
    13  H    0.000241  -0.079676   0.004042  -0.002013   0.006395  -0.000367
               7          8          9         10         11         12
     1  C    0.005068  -0.053527   0.429180   0.391940   0.429184   0.000234
     2  C   -0.050334   0.474622  -0.052803  -0.022428  -0.052822  -0.079683
     3  C   -0.022464  -0.060815   0.007185  -0.005519  -0.007823   0.442965
     4  N   -0.066044  -0.022473  -0.000391  -0.000083   0.000395  -0.031255
     5  C    0.498245  -0.085835   0.000060   0.000007   0.000061   0.006395
     6  Cl  -0.091377   0.000046  -0.000001  -0.000003  -0.000001  -0.000367
     7  N    6.473699   0.503359   0.000395  -0.000083  -0.000391  -0.002013
     8  C    0.503359   4.838272  -0.007830  -0.005525   0.007195   0.004044
     9  H    0.000395  -0.007830   0.520862  -0.026774  -0.024816  -0.000247
    10  H   -0.000083  -0.005525  -0.026774   0.526682  -0.026750   0.000271
    11  H   -0.000391   0.007195  -0.024816  -0.026750   0.520867   0.000679
    12  H   -0.002013   0.004044  -0.000247   0.000271   0.000679   0.500795
    13  H   -0.031257   0.442960   0.000677   0.000272  -0.000247  -0.000152
              13
     1  C    0.000241
     2  C   -0.079676
     3  C    0.004042
     4  N   -0.002013
     5  C    0.006395
     6  Cl  -0.000367
     7  N   -0.031257
     8  C    0.442960
     9  H    0.000677
    10  H    0.000272
    11  H   -0.000247
    12  H   -0.000152
    13  H    0.500784
 Mulliken charges:
               1
     1  C   -0.465696
     2  C    0.042858
     3  C   -0.034509
     4  N   -0.216806
     5  C    0.182921
     6  Cl  -0.051117
     7  N   -0.216803
     8  C   -0.034491
     9  H    0.154502
    10  H    0.167994
    11  H    0.154471
    12  H    0.158333
    13  H    0.158342
 Sum of Mulliken charges =  -0.00000
 Mulliken charges with hydrogens summed into heavy atoms:
               1
     1  C    0.011271
     2  C    0.042858
     3  C    0.123824
     4  N   -0.216806
     5  C    0.182921
     6  Cl  -0.051117
     7  N   -0.216803
     8  C    0.123851
 Electronic spatial extent (au):  <R**2>=           1242.8490
 Charge=             -0.0000 electrons
 Dipole moment (field-independent basis, Debye):
    X=             -4.5536    Y=             -0.0001    Z=              0.0383  Tot=              4.5537
 Quadrupole moment (field-independent basis, Debye-Ang):
   XX=            -48.1777   YY=            -54.4139   ZZ=            -53.8178
   XY=              0.0002   XZ=             -0.0709   YZ=              0.0000
 Traceless Quadrupole moment (field-independent basis, Debye-Ang):
   XX=              3.9588   YY=             -2.2774   ZZ=             -1.6814
   XY=              0.0002   XZ=             -0.0709   YZ=              0.0000
 Octapole moment (field-independent basis, Debye-Ang**2):
  XXX=             -6.6981  YYY=              0.0010  ZZZ=              0.8816  XYY=            -10.9834
  XXY=             -0.0005  XXZ=              0.2642  XZZ=              3.3902  YZZ=             -0.0015
  YYZ=             -0.7026  XYZ=             -0.0001
 Hexadecapole moment (field-independent basis, Debye-Ang**3):
 XXXX=          -1231.0780 YYYY=           -278.6424 ZZZZ=            -63.6515 XXXY=              0.0010
 XXXZ=             -0.1595 YYYX=             -0.0043 YYYZ=              0.0001 ZZZX=             -2.9081
 ZZZY=             -0.0001 XXYY=           -256.6762 XXZZ=           -228.0816 YYZZ=            -60.1382
 XXYZ=              0.0004 YYXZ=              2.8174 ZZXY=              0.0054
 N-N= 4.010484822490D+02 E-N=-2.601063712218D+03  KE= 7.611998507118D+02
 Unable to Open any file for archive entry.
 1\1\GINC-COMPUTE-0-35\SP\RM062X\def2TZVP\C5H5Cl1N2\ZTAN64\14-Aug-2024\
 0\\# M062X/def2tzvp int=(grid=ultrafine) nmr=giao guess=read geom=chec
 k\\pyrmd6.xyz\\0,1\C,0,-1.9696519489,0.0003612331,0.1288068958\C,0,-0.
 4703487141,0.0006578224,0.0193070358\C,0,0.2861146684,1.1757743537,0.0
 310908591\N,0,1.6215950588,1.1909041649,-0.0416031968\C,0,2.1986950552
 ,-0.0011802519,-0.1295112197\Cl,0,3.948714694,-0.0028871063,-0.2173371
 636\N,0,1.6131536285,-1.1919069425,-0.1635330575\C,0,0.2777899419,-1.1
 748427358,-0.0891919361\H,0,-2.40474945,-0.8577672034,-0.3906068106\H,
 0,-2.2883637154,-0.0527811496,1.1761978322\H,0,-2.3983924719,0.9106793
 689,-0.2989562271\H,0,-0.1996781202,2.1479742629,0.0974633671\H,0,-0.2
 148786263,-2.1452858165,-0.1222263784\\Version=ES64L-G16RevC.01\State=
 1-A\HF=-763.2256926\RMSD=8.345e-10\Dipole=-1.787747,0.0003003,0.117052
 \Quadrupole=2.9236611,-1.6920434,-1.2316178,-0.0013024,-0.2908028,-0.0
 225901\PG=C01 [X(C5H5Cl1N2)]\\@
 The archive entry for this job was punched.


 IF YOU'RE NOT PART OF THE SOLUTION,
 THEN YOU'RE PART OF THE PRECIPITATE.
 Job cpu time:       0 days  0 hours  8 minutes 39.0 seconds.
 Elapsed time:       0 days  0 hours  0 minutes 35.3 seconds.
 File lengths (MBytes):  RWF=     50 Int=      0 D2E=      0 Chk=      8 Scr=      1
 Normal termination of Gaussian 16 at Wed Aug 14 20:31:36 2024.
 
 
-----Kestrel cluster job statistics-----
Time info:

real	3m10.633s
user	48m53.776s
sys	0m11.244s
 
Disk space usage:
7.9M	/scratch/362996.kestrel.chem.wisc.edu
