 Entering Gaussian System, Link 0=/share/apps/gaussian/g16/g16
 Initial command:
 /share/apps/gaussian/g16/l1.exe "/scratch/362995.kestrel.chem.wisc.edu/Gau-227795.inp" -scrdir="/scratch/362995.kestrel.chem.wisc.edu/"
 Entering Link 1 = /share/apps/gaussian/g16/l1.exe PID=    227796.
  
 Copyright (c) 1988-2019, Gaussian, Inc.  All Rights Reserved.
  
 This is part of the Gaussian(R) 16 program.  It is based on
 the Gaussian(R) 09 system (copyright 2009, Gaussian, Inc.),
 the Gaussian(R) 03 system (copyright 2003, Gaussian, Inc.),
 the Gaussian(R) 98 system (copyright 1998, Gaussian, Inc.),
 the Gaussian(R) 94 system (copyright 1995, Gaussian, Inc.),
 the Gaussian 92(TM) system (copyright 1992, Gaussian, Inc.),
 the Gaussian 90(TM) system (copyright 1990, Gaussian, Inc.),
 the Gaussian 88(TM) system (copyright 1988, Gaussian, Inc.),
 the Gaussian 86(TM) system (copyright 1986, Carnegie Mellon
 University), and the Gaussian 82(TM) system (copyright 1983,
 Carnegie Mellon University). Gaussian is a federally registered
 trademark of Gaussian, Inc.
  
 This software contains proprietary and confidential information,
 including trade secrets, belonging to Gaussian, Inc.
  
 This software is provided under written license and may be
 used, copied, transmitted, or stored only in accord with that
 written license.
  
 The following legend is applicable only to US Government
 contracts under FAR:
  
                    RESTRICTED RIGHTS LEGEND
  
 Use, reproduction and disclosure by the US Government is
 subject to restrictions as set forth in subparagraphs (a)
 and (c) of the Commercial Computer Software - Restricted
 Rights clause in FAR 52.227-19.
  
 Gaussian, Inc.
 340 Quinnipiac St., Bldg. 40, Wallingford CT 06492
  
  
 ---------------------------------------------------------------
 Warning -- This program may not be used in any manner that
 competes with the business of Gaussian, Inc. or will provide
 assistance to any competitor of Gaussian, Inc.  The licensee
 of this program is prohibited from giving any competitor of
 Gaussian, Inc. access to this program.  By using this program,
 the user acknowledges that Gaussian, Inc. is engaged in the
 business of creating and licensing software in the field of
 computational chemistry and represents and warrants to the
 licensee that it is not a competitor of Gaussian, Inc. and that
 it will not use this program in any manner prohibited above.
 ---------------------------------------------------------------
  

 Cite this work as:
 Gaussian 16, Revision C.01,
 M. J. Frisch, G. W. Trucks, H. B. Schlegel, G. E. Scuseria, 
 M. A. Robb, J. R. Cheeseman, G. Scalmani, V. Barone, 
 G. A. Petersson, H. Nakatsuji, X. Li, M. Caricato, A. V. Marenich, 
 J. Bloino, B. G. Janesko, R. Gomperts, B. Mennucci, H. P. Hratchian, 
 J. V. Ortiz, A. F. Izmaylov, J. L. Sonnenberg, D. Williams-Young, 
 F. Ding, F. Lipparini, F. Egidi, J. Goings, B. Peng, A. Petrone, 
 T. Henderson, D. Ranasinghe, V. G. Zakrzewski, J. Gao, N. Rega, 
 G. Zheng, W. Liang, M. Hada, M. Ehara, K. Toyota, R. Fukuda, 
 J. Hasegawa, M. Ishida, T. Nakajima, Y. Honda, O. Kitao, H. Nakai, 
 T. Vreven, K. Throssell, J. A. Montgomery, Jr., J. E. Peralta, 
 F. Ogliaro, M. J. Bearpark, J. J. Heyd, E. N. Brothers, K. N. Kudin, 
 V. N. Staroverov, T. A. Keith, R. Kobayashi, J. Normand, 
 K. Raghavachari, A. P. Rendell, J. C. Burant, S. S. Iyengar, 
 J. Tomasi, M. Cossi, J. M. Millam, M. Klene, C. Adamo, R. Cammi, 
 J. W. Ochterski, R. L. Martin, K. Morokuma, O. Farkas, 
 J. B. Foresman, and D. J. Fox, Gaussian, Inc., Wallingford CT, 2019.
 
 ******************************************
 Gaussian 16:  ES64L-G16RevC.01  3-Jul-2019
                14-Aug-2024 
 ******************************************
 %nprocs=16
 Will use up to   16 processors via shared memory.
 %mem=16GB
 %chk=pyrmd5_conf-2.chk
 ----------------------------------------------------------------------
 # B3LYP/6-31G(d,p) symmetry=loose empiricaldispersion=GD3BJ int=(grid=
 ultrafine) opt freq=noraman
 ----------------------------------------------------------------------
 1/18=20,19=15,26=4,38=1/1,3;
 2/9=110,12=2,17=4,18=3,40=1/2;
 3/5=1,6=6,7=101,11=2,25=1,30=1,71=1,74=-5,75=-5,124=41/1,2,3;
 4//1;
 5/5=2,38=5/2;
 6/7=2,8=2,9=2,10=2,28=1/1;
 7//1,2,3,16;
 1/18=20,19=15,26=4/3(2);
 2/9=110/2;
 99//99;
 2/9=110/2;
 3/5=1,6=6,7=101,11=2,25=1,30=1,71=1,74=-5,75=-5,124=41/1,2,3;
 4/5=5,16=3,69=1/1;
 5/5=2,38=5/2;
 7//1,2,3,16;
 1/18=20,19=15,26=4/3(-5);
 2/9=110/2;
 6/7=2,8=2,9=2,10=2,19=2,28=1/1;
 99/9=1/99;
 ----------
 pyrmd5.xyz
 ----------
 Symbolic Z-matrix:
 Charge =  0 Multiplicity = 1
 O                    -4.9493   -0.6777    0.0883 
 C                    -3.9915   -1.4472    0.1361 
 C                    -2.5583   -1.0453    0.0829 
 C                    -1.5762   -2.042     0.1486 
 N                    -0.2474   -1.7727    0.1076 
 C                    -2.0887    0.2788   -0.0303 
 C                    -2.9987    1.4951   -0.1147 
 N                    -0.762     0.5711   -0.0732 
 C                     0.1188   -0.4656   -0.0027 
 C                     1.5899   -0.1455   -0.0499 
 C                     2.0419    1.181    -0.1627 
 C                     3.4012    1.481    -0.2066 
 C                     4.3363    0.4536   -0.1381 
 C                     3.9196   -0.8687   -0.0262 
 C                     2.5587   -1.1622    0.0172 
 H                    -4.1579   -2.5214    0.2248 
 H                    -1.8264   -3.0906    0.2365 
 H                    -3.6244    1.5588    0.7754 
 H                    -2.4403    2.4281   -0.1979 
 H                    -3.6502    1.4174   -0.9851 
 H                     1.3351    1.9961   -0.2176 
 H                     3.7261    2.5078   -0.2936 
 H                     5.3916    0.684    -0.172 
 H                     4.6473   -1.6655    0.0269 
 H                     2.2608   -2.1966    0.1044 
 

 GradGradGradGradGradGradGradGradGradGradGradGradGradGradGradGradGradGrad
 Berny optimization.
 Initialization pass.
                           ----------------------------
                           !    Initial Parameters    !
                           ! (Angstroms and Degrees)  !
 --------------------------                            --------------------------
 ! Name  Definition              Value          Derivative Info.                !
 --------------------------------------------------------------------------------
 ! R1    R(1,2)                  1.2296         estimate D2E/DX2                !
 ! R2    R(2,3)                  1.4894         estimate D2E/DX2                !
 ! R3    R(2,16)                 1.0906         estimate D2E/DX2                !
 ! R4    R(3,4)                  1.4008         estimate D2E/DX2                !
 ! R5    R(3,6)                  1.4095         estimate D2E/DX2                !
 ! R6    R(4,5)                  1.3564         estimate D2E/DX2                !
 ! R7    R(4,17)                 1.0816         estimate D2E/DX2                !
 ! R8    R(5,9)                  1.3619         estimate D2E/DX2                !
 ! R9    R(6,7)                  1.5214         estimate D2E/DX2                !
 ! R10   R(6,8)                  1.3592         estimate D2E/DX2                !
 ! R11   R(7,18)                 1.0899         estimate D2E/DX2                !
 ! R12   R(7,19)                 1.0905         estimate D2E/DX2                !
 ! R13   R(7,20)                 1.09           estimate D2E/DX2                !
 ! R14   R(8,9)                  1.3622         estimate D2E/DX2                !
 ! R15   R(9,10)                 1.5063         estimate D2E/DX2                !
 ! R16   R(10,11)                1.4059         estimate D2E/DX2                !
 ! R17   R(10,15)                1.406          estimate D2E/DX2                !
 ! R18   R(11,12)                1.3927         estimate D2E/DX2                !
 ! R19   R(11,21)                1.0803         estimate D2E/DX2                !
 ! R20   R(12,13)                1.3909         estimate D2E/DX2                !
 ! R21   R(12,22)                1.0805         estimate D2E/DX2                !
 ! R22   R(13,14)                1.3909         estimate D2E/DX2                !
 ! R23   R(13,23)                1.0807         estimate D2E/DX2                !
 ! R24   R(14,15)                1.3929         estimate D2E/DX2                !
 ! R25   R(14,24)                1.0804         estimate D2E/DX2                !
 ! R26   R(15,25)                1.08           estimate D2E/DX2                !
 ! A1    A(1,2,3)              125.4021         estimate D2E/DX2                !
 ! A2    A(1,2,16)             120.0478         estimate D2E/DX2                !
 ! A3    A(3,2,16)             114.55           estimate D2E/DX2                !
 ! A4    A(2,3,4)              118.7481         estimate D2E/DX2                !
 ! A5    A(2,3,6)              125.2369         estimate D2E/DX2                !
 ! A6    A(4,3,6)              116.015          estimate D2E/DX2                !
 ! A7    A(3,4,5)              122.9656         estimate D2E/DX2                !
 ! A8    A(3,4,17)             122.1025         estimate D2E/DX2                !
 ! A9    A(5,4,17)             114.9319         estimate D2E/DX2                !
 ! A10   A(4,5,9)              117.1554         estimate D2E/DX2                !
 ! A11   A(3,6,7)              123.7948         estimate D2E/DX2                !
 ! A12   A(3,6,8)              121.9903         estimate D2E/DX2                !
 ! A13   A(7,6,8)              114.2149         estimate D2E/DX2                !
 ! A14   A(6,7,18)             110.1703         estimate D2E/DX2                !
 ! A15   A(6,7,19)             112.4544         estimate D2E/DX2                !
 ! A16   A(6,7,20)             110.171          estimate D2E/DX2                !
 ! A17   A(18,7,19)            107.8348         estimate D2E/DX2                !
 ! A18   A(18,7,20)            108.2511         estimate D2E/DX2                !
 ! A19   A(19,7,20)            107.8257         estimate D2E/DX2                !
 ! A20   A(6,8,9)              117.7653         estimate D2E/DX2                !
 ! A21   A(5,9,8)              124.1085         estimate D2E/DX2                !
 ! A22   A(5,9,10)             117.9766         estimate D2E/DX2                !
 ! A23   A(8,9,10)             117.9149         estimate D2E/DX2                !
 ! A24   A(9,10,11)            121.132          estimate D2E/DX2                !
 ! A25   A(9,10,15)            121.1852         estimate D2E/DX2                !
 ! A26   A(11,10,15)           117.6828         estimate D2E/DX2                !
 ! A27   A(10,11,12)           121.3023         estimate D2E/DX2                !
 ! A28   A(10,11,21)           120.3738         estimate D2E/DX2                !
 ! A29   A(12,11,21)           118.324          estimate D2E/DX2                !
 ! A30   A(11,12,13)           119.7028         estimate D2E/DX2                !
 ! A31   A(11,12,22)           120.0483         estimate D2E/DX2                !
 ! A32   A(13,12,22)           120.2489         estimate D2E/DX2                !
 ! A33   A(12,13,14)           120.3157         estimate D2E/DX2                !
 ! A34   A(12,13,23)           119.8329         estimate D2E/DX2                !
 ! A35   A(14,13,23)           119.8514         estimate D2E/DX2                !
 ! A36   A(13,14,15)           119.7054         estimate D2E/DX2                !
 ! A37   A(13,14,24)           120.2181         estimate D2E/DX2                !
 ! A38   A(15,14,24)           120.0764         estimate D2E/DX2                !
 ! A39   A(10,15,14)           121.291          estimate D2E/DX2                !
 ! A40   A(10,15,25)           120.4243         estimate D2E/DX2                !
 ! A41   A(14,15,25)           118.2847         estimate D2E/DX2                !
 ! D1    D(1,2,3,4)            179.9994         estimate D2E/DX2                !
 ! D2    D(1,2,3,6)             -0.0012         estimate D2E/DX2                !
 ! D3    D(16,2,3,4)             0.0004         estimate D2E/DX2                !
 ! D4    D(16,2,3,6)           179.9998         estimate D2E/DX2                !
 ! D5    D(2,3,4,5)           -179.9986         estimate D2E/DX2                !
 ! D6    D(2,3,4,17)            -0.0025         estimate D2E/DX2                !
 ! D7    D(6,3,4,5)              0.0019         estimate D2E/DX2                !
 ! D8    D(6,3,4,17)           179.9981         estimate D2E/DX2                !
 ! D9    D(2,3,6,7)              0.0001         estimate D2E/DX2                !
 ! D10   D(2,3,6,8)           -179.9972         estimate D2E/DX2                !
 ! D11   D(4,3,6,7)            179.9995         estimate D2E/DX2                !
 ! D12   D(4,3,6,8)              0.0022         estimate D2E/DX2                !
 ! D13   D(3,4,5,9)             -0.0007         estimate D2E/DX2                !
 ! D14   D(17,4,5,9)          -179.9971         estimate D2E/DX2                !
 ! D15   D(4,5,9,8)             -0.0048         estimate D2E/DX2                !
 ! D16   D(4,5,9,10)          -179.998          estimate D2E/DX2                !
 ! D17   D(3,6,7,18)            59.684          estimate D2E/DX2                !
 ! D18   D(3,6,7,19)          -179.9935         estimate D2E/DX2                !
 ! D19   D(3,6,7,20)           -59.6821         estimate D2E/DX2                !
 ! D20   D(8,6,7,18)          -120.3185         estimate D2E/DX2                !
 ! D21   D(8,6,7,19)             0.004          estimate D2E/DX2                !
 ! D22   D(8,6,7,20)           120.3154         estimate D2E/DX2                !
 ! D23   D(3,6,8,9)             -0.0073         estimate D2E/DX2                !
 ! D24   D(7,6,8,9)            179.9952         estimate D2E/DX2                !
 ! D25   D(6,8,9,5)              0.0088         estimate D2E/DX2                !
 ! D26   D(6,8,9,10)          -179.998          estimate D2E/DX2                !
 ! D27   D(5,9,10,11)         -179.9852         estimate D2E/DX2                !
 ! D28   D(5,9,10,15)            0.0177         estimate D2E/DX2                !
 ! D29   D(8,9,10,11)            0.0212         estimate D2E/DX2                !
 ! D30   D(8,9,10,15)         -179.9759         estimate D2E/DX2                !
 ! D31   D(9,10,11,12)         179.9975         estimate D2E/DX2                !
 ! D32   D(9,10,11,21)          -0.0018         estimate D2E/DX2                !
 ! D33   D(15,10,11,12)         -0.0053         estimate D2E/DX2                !
 ! D34   D(15,10,11,21)        179.9953         estimate D2E/DX2                !
 ! D35   D(9,10,15,14)        -179.9974         estimate D2E/DX2                !
 ! D36   D(9,10,15,25)          -0.0054         estimate D2E/DX2                !
 ! D37   D(11,10,15,14)          0.0055         estimate D2E/DX2                !
 ! D38   D(11,10,15,25)        179.9974         estimate D2E/DX2                !
 ! D39   D(10,11,12,13)          0.0031         estimate D2E/DX2                !
 ! D40   D(10,11,12,22)        179.9969         estimate D2E/DX2                !
 ! D41   D(21,11,12,13)       -179.9975         estimate D2E/DX2                !
 ! D42   D(21,11,12,22)         -0.0037         estimate D2E/DX2                !
 ! D43   D(11,12,13,14)         -0.0008         estimate D2E/DX2                !
 ! D44   D(11,12,13,23)        179.9989         estimate D2E/DX2                !
 ! D45   D(22,12,13,14)       -179.9947         estimate D2E/DX2                !
 ! D46   D(22,12,13,23)          0.0051         estimate D2E/DX2                !
 ! D47   D(12,13,14,15)          0.001          estimate D2E/DX2                !
 ! D48   D(12,13,14,24)       -179.9993         estimate D2E/DX2                !
 ! D49   D(23,13,14,15)       -179.9987         estimate D2E/DX2                !
 ! D50   D(23,13,14,24)          0.001          estimate D2E/DX2                !
 ! D51   D(13,14,15,10)         -0.0034         estimate D2E/DX2                !
 ! D52   D(13,14,15,25)       -179.9955         estimate D2E/DX2                !
 ! D53   D(24,14,15,10)        179.9969         estimate D2E/DX2                !
 ! D54   D(24,14,15,25)          0.0048         estimate D2E/DX2                !
 --------------------------------------------------------------------------------
 Trust Radius=3.00D-01 FncErr=1.00D-07 GrdErr=1.00D-06 EigMax=2.50D+02 EigMin=1.00D-04
 Number of steps in this run=    131 maximum allowed number of steps=    150.
 GradGradGradGradGradGradGradGradGradGradGradGradGradGradGradGradGradGrad

                          Input orientation:                          
 ---------------------------------------------------------------------
 Center     Atomic      Atomic             Coordinates (Angstroms)
 Number     Number       Type             X           Y           Z
 ---------------------------------------------------------------------
      1          8           0       -4.949300   -0.677700    0.088300
      2          6           0       -3.991500   -1.447200    0.136100
      3          6           0       -2.558300   -1.045300    0.082900
      4          6           0       -1.576200   -2.042000    0.148600
      5          7           0       -0.247400   -1.772700    0.107600
      6          6           0       -2.088700    0.278800   -0.030300
      7          6           0       -2.998700    1.495100   -0.114700
      8          7           0       -0.762000    0.571100   -0.073200
      9          6           0        0.118800   -0.465600   -0.002700
     10          6           0        1.589900   -0.145500   -0.049900
     11          6           0        2.041900    1.181000   -0.162700
     12          6           0        3.401200    1.481000   -0.206600
     13          6           0        4.336300    0.453600   -0.138100
     14          6           0        3.919600   -0.868700   -0.026200
     15          6           0        2.558700   -1.162200    0.017200
     16          1           0       -4.157900   -2.521400    0.224800
     17          1           0       -1.826400   -3.090600    0.236500
     18          1           0       -3.624400    1.558800    0.775400
     19          1           0       -2.440300    2.428100   -0.197900
     20          1           0       -3.650200    1.417400   -0.985100
     21          1           0        1.335100    1.996100   -0.217600
     22          1           0        3.726100    2.507800   -0.293600
     23          1           0        5.391600    0.684000   -0.172000
     24          1           0        4.647300   -1.665500    0.026900
     25          1           0        2.260800   -2.196600    0.104400
 ---------------------------------------------------------------------
                    Distance matrix (angstroms):
                    1          2          3          4          5
     1  O    0.000000
     2  C    1.229551   0.000000
     3  C    2.419099   1.489435   0.000000
     4  C    3.639060   2.487492   1.400803   0.000000
     5  N    4.827759   3.758330   2.422804   1.356434   0.000000
     6  C    3.018607   2.574376   1.409461   2.383437   2.760082
     7  C    2.926962   3.115394   2.585852   3.821506   4.277568
     8  N    4.372535   3.814054   2.421530   2.745980   2.406429
     9  C    5.073352   4.228164   2.740482   2.319688   1.361903
    10  C    6.562276   5.734200   4.246745   3.695985   2.459321
    11  C    7.238414   6.587764   5.116500   4.855439   3.746772
    12  C    8.630052   7.958883   6.479324   6.108372   4.898731
    13  C    9.357001   8.546372   7.059111   6.424008   5.101675
    14  C    8.871695   7.933883   6.481225   5.622367   4.266029
    15  C    7.523952   6.557475   5.118757   4.229505   2.873165
    16  H    2.011014   1.090625   2.181221   2.626938   3.983252
    17  H    3.949247   2.720019   2.177733   1.081614   2.060756
    18  H    2.688754   3.095077   2.897838   4.189721   4.790509
    19  H    4.002872   4.187568   3.486729   4.566019   4.748564
    20  H    2.688734   3.095078   2.897889   4.189773   4.790593
    21  H    6.836407   6.352487   4.949644   4.991595   4.100477
    22  H    9.249639   8.682627   7.229105   7.000758   5.854259
    23  H   10.433417   9.627020   8.139801   7.488932   6.157262
    24  H    9.647500   8.642248   7.232458   6.236066   4.896539
    25  H    7.368369   6.297131   4.954763   3.840368   2.543771
                    6          7          8          9         10
     6  C    0.000000
     7  C    1.521384   0.000000
     8  N    1.359196   2.420398   0.000000
     9  C    2.329796   3.684521   1.362177   0.000000
    10  C    3.703041   4.873502   2.458758   1.506263   0.000000
    11  C    4.230053   5.050605   2.870861   2.536771   1.405927
    12  C    5.622755   6.400575   4.263560   3.821646   2.439439
    13  C    6.428281   7.408610   5.100067   4.318630   2.812368
    14  C    6.116898   7.311515   4.898225   3.822188   2.439484
    15  C    4.865908   6.161439   3.746939   2.537471   1.405971
    16  H    3.491101   4.194196   4.602662   4.750603   6.225557
    17  H    3.390109   4.746185   3.825821   3.275919   4.519596
    18  H    2.155441   1.089879   3.144679   4.326105   5.547493
    19  H    2.184308   1.090514   2.506130   3.867893   4.784123
    20  H    2.155536   1.089993   3.144755   4.326218   5.547603
    21  H    3.834919   4.363876   2.539548   2.754185   2.163214
    22  H    6.232950   6.802977   4.893100   4.683839   3.415076
    23  H    7.492607   8.429609   6.155429   5.399321   3.893058
    24  H    7.011225   8.274706   5.854308   4.684864   3.415259
    25  H    5.006386   6.429541   4.102319   2.756083   2.163545
                   11         12         13         14         15
    11  C    0.000000
    12  C    1.392704   0.000000
    13  C    2.407070   1.390919   0.000000
    14  C    2.783103   2.412959   1.390913   0.000000
    15  C    2.406249   2.783235   2.407237   1.392866   0.000000
    16  H    7.231559   8.564187   9.007428   8.248662   6.855891
    17  H    5.776649   6.958712   7.119027   6.166228   4.795406
    18  H    5.755842   7.094324   8.088801   7.965379   6.797752
    19  H    4.652592   5.917786   7.058650   7.165661   6.158451
    20  H    5.756060   7.094530   8.088912   7.965401   6.797748
    21  H    1.080263   2.129370   3.375326   3.863076   3.395171
    22  H    2.148037   1.080485   2.148549   3.392594   3.863718
    23  H    3.386382   2.144318   1.080690   2.144509   3.386676
    24  H    3.863498   3.392307   2.148146   1.080397   2.148408
    25  H    3.395209   3.862897   3.374917   2.128848   1.079968
                   16         17         18         19         20
    16  H    0.000000
    17  H    2.400004   0.000000
    18  H    4.151604   5.013994   0.000000
    19  H    5.256080   5.569706   1.762126   0.000000
    20  H    4.151598   5.014042   1.766358   1.762117   0.000000
    21  H    7.125768   6.006314   5.076802   3.800086   5.077122
    22  H    9.365845   7.902743   7.488205   6.167658   7.488454
    23  H   10.080922   8.155612   9.107749   8.023790   9.107862
    24  H    8.848914   6.632016   8.909399   8.187928   8.909373
    25  H    6.428040   4.185916   7.013476   6.601483   7.013411
                   21         22         23         24         25
    21  H    0.000000
    22  H    2.446323   0.000000
    23  H    4.263670   2.472837   0.000000
    24  H    4.943457   4.285763   2.472589   0.000000
    25  H    4.305733   4.943368   4.263351   2.446110   0.000000
 Stoichiometry    C12H10N2O
 Framework group  C1[X(C12H10N2O)]
 Deg. of freedom    69
 Full point group                 C1      NOp   1
 Largest Abelian subgroup         C1      NOp   1
 Largest concise Abelian subgroup C1      NOp   1
                         Standard orientation:                         
 ---------------------------------------------------------------------
 Center     Atomic      Atomic             Coordinates (Angstroms)
 Number     Number       Type             X           Y           Z
 ---------------------------------------------------------------------
      1          8           0        4.809731    0.093482   -0.000008
      2          6           0        3.941402   -0.777035   -0.000075
      3          6           0        2.472504   -0.530547   -0.000051
      4          6           0        1.604817   -1.630259   -0.000148
      5          7           0        0.254201   -1.504769   -0.000162
      6          6           0        1.861032    0.739367    0.000076
      7          6           0        2.633057    2.050316    0.000205
      8          7           0        0.509991    0.888026    0.000148
      9          6           0       -0.252605   -0.240678   -0.000060
     10          6           0       -1.750256   -0.079845   -0.000028
     11          6           0       -2.344483    1.194331   -0.000235
     12          6           0       -3.728777    1.347152   -0.000257
     13          6           0       -4.546389    0.221911   -0.000006
     14          6           0       -3.987720   -1.051873    0.000248
     15          6           0       -2.602545   -1.198040    0.000272
     16          1           0        4.224122   -1.830378   -0.000178
     17          1           0        1.968066   -2.649052   -0.000279
     18          1           0        3.268726    2.112181   -0.882933
     19          1           0        1.975985    2.920648    0.000407
     20          1           0        3.268826    2.112009    0.883424
     21          1           0       -1.730695    2.083281   -0.000392
     22          1           0       -4.163914    2.336143   -0.000367
     23          1           0       -5.620819    0.338057   -0.000004
     24          1           0       -4.624287   -1.924822    0.000432
     25          1           0       -2.193425   -2.197516    0.000398
 ---------------------------------------------------------------------
 Rotational constants (GHZ):           1.9341072           0.2958740           0.2570278
 Standard basis: 6-31G(d,p) (6D, 7F)
 There are   275 symmetry adapted cartesian basis functions of A   symmetry.
 There are   275 symmetry adapted basis functions of A   symmetry.
   275 basis functions,   490 primitive gaussians,   275 cartesian basis functions
    52 alpha electrons       52 beta electrons
       nuclear repulsion energy       871.9382923619 Hartrees.
 NAtoms=   25 NActive=   25 NUniq=   25 SFac= 1.00D+00 NAtFMM=   60 NAOKFM=F Big=F
 Integral buffers will be    131072 words long.
 Raffenetti 2 integral format.
 Two-electron integral symmetry is turned on.
 Nuclear repulsion after empirical dispersion term =      871.8867584564 Hartrees.
 One-electron integrals computed using PRISM.
 NBasis=   275 RedAO= T EigKep=  4.41D-04  NBF=   275
 NBsUse=   275 1.00D-06 EigRej= -1.00D+00 NBFU=   275
 ExpMin= 1.61D-01 ExpMax= 5.48D+03 ExpMxC= 8.25D+02 IAcc=3 IRadAn=         5 AccDes= 0.00D+00
 Harris functional with IExCor=  402 and IRadAn=       5 diagonalized for initial guess.
 HarFok:  IExCor=  402 AccDes= 0.00D+00 IRadAn=         5 IDoV= 1 UseB2=F ITyADJ=14
 ICtDFT=  3500011 ScaDFX=  1.000000  1.000000  1.000000  1.000000
 FoFCou: FMM=F IPFlag=           0 FMFlag=      100000 FMFlg1=           0
         NFxFlg=           0 DoJE=T BraDBF=F KetDBF=T FulRan=T
         wScrn=  0.000000 ICntrl=       500 IOpCl=  0 I1Cent=   200000004 NGrid=           0
         NMat0=    1 NMatS0=      1 NMatT0=    0 NMatD0=    1 NMtDS0=    0 NMtDT0=    0
 Petite list used in FoFCou.
 Requested convergence on RMS density matrix=1.00D-08 within 128 cycles.
 Requested convergence on MAX density matrix=1.00D-06.
 Requested convergence on             energy=1.00D-06.
 No special actions if energy rises.
 Integral accuracy reduced to 1.0D-05 until final iterations.
 Initial convergence to 1.0D-05 achieved.  Increase integral accuracy.
 SCF Done:  E(RB3LYP) =  -648.094325204     A.U. after   15 cycles
            NFock= 15  Conv=0.43D-08     -V/T= 2.0100

 **********************************************************************

            Population analysis using the SCF Density.

 **********************************************************************

 Orbital symmetries:
       Occupied  (A) (A) (A) (A) (A) (A) (A) (A) (A) (A) (A) (A)
                 (A) (A) (A) (A) (A) (A) (A) (A) (A) (A) (A) (A)
                 (A) (A) (A) (A) (A) (A) (A) (A) (A) (A) (A) (A)
                 (A) (A) (A) (A) (A) (A) (A) (A) (A) (A) (A) (A)
                 (A) (A) (A) (A)
       Virtual   (A) (A) (A) (A) (A) (A) (A) (A) (A) (A) (A) (A)
                 (A) (A) (A) (A) (A) (A) (A) (A) (A) (A) (A) (A)
                 (A) (A) (A) (A) (A) (A) (A) (A) (A) (A) (A) (A)
                 (A) (A) (A) (A) (A) (A) (A) (A) (A) (A) (A) (A)
                 (A) (A) (A) (A) (A) (A) (A) (A) (A) (A) (A) (A)
                 (A) (A) (A) (A) (A) (A) (A) (A) (A) (A) (A) (A)
                 (A) (A) (A) (A) (A) (A) (A) (A) (A) (A) (A) (A)
                 (A) (A) (A) (A) (A) (A) (A) (A) (A) (A) (A) (A)
                 (A) (A) (A) (A) (A) (A) (A) (A) (A) (A) (A) (A)
                 (A) (A) (A) (A) (A) (A) (A) (A) (A) (A) (A) (A)
                 (A) (A) (A) (A) (A) (A) (A) (A) (A) (A) (A) (A)
                 (A) (A) (A) (A) (A) (A) (A) (A) (A) (A) (A) (A)
                 (A) (A) (A) (A) (A) (A) (A) (A) (A) (A) (A) (A)
                 (A) (A) (A) (A) (A) (A) (A) (A) (A) (A) (A) (A)
                 (A) (A) (A) (A) (A) (A) (A) (A) (A) (A) (A) (A)
                 (A) (A) (A) (A) (A) (A) (A) (A) (A) (A) (A) (A)
                 (A) (A) (A) (A) (A) (A) (A) (A) (A) (A) (A) (A)
                 (A) (A) (A) (A) (A) (A) (A) (A) (A) (A) (A) (A)
                 (A) (A) (A) (A) (A) (A) (A)
 The electronic state is 1-A.
 Alpha  occ. eigenvalues --  -19.15667 -14.34972 -14.34802 -10.28954 -10.28215
 Alpha  occ. eigenvalues --  -10.26682 -10.25934 -10.22204 -10.20851 -10.19731
 Alpha  occ. eigenvalues --  -10.19556 -10.19552 -10.19391 -10.19386 -10.18740
 Alpha  occ. eigenvalues --   -1.04468  -0.98732  -0.89231  -0.86230  -0.82367
 Alpha  occ. eigenvalues --   -0.75878  -0.75059  -0.73627  -0.67920  -0.64531
 Alpha  occ. eigenvalues --   -0.61583  -0.60520  -0.58431  -0.53287  -0.52926
 Alpha  occ. eigenvalues --   -0.49894  -0.48297  -0.45471  -0.45261  -0.44803
 Alpha  occ. eigenvalues --   -0.43786  -0.42744  -0.42194  -0.40983  -0.40031
 Alpha  occ. eigenvalues --   -0.39655  -0.38721  -0.36821  -0.35260  -0.34713
 Alpha  occ. eigenvalues --   -0.32282  -0.31577  -0.30065  -0.26389  -0.25548
 Alpha  occ. eigenvalues --   -0.25548  -0.24649
 Alpha virt. eigenvalues --   -0.08602  -0.05025  -0.02059  -0.00294   0.03888
 Alpha virt. eigenvalues --    0.09630   0.10872   0.11988   0.12739   0.13450
 Alpha virt. eigenvalues --    0.14450   0.15727   0.16712   0.17479   0.17582
 Alpha virt. eigenvalues --    0.19042   0.19368   0.19961   0.23088   0.25103
 Alpha virt. eigenvalues --    0.25902   0.27243   0.28826   0.30344   0.31044
 Alpha virt. eigenvalues --    0.33483   0.34249   0.36237   0.38406   0.41122
 Alpha virt. eigenvalues --    0.45340   0.48326   0.50142   0.51358   0.52737
 Alpha virt. eigenvalues --    0.53273   0.54173   0.54348   0.54817   0.55468
 Alpha virt. eigenvalues --    0.56730   0.57568   0.58330   0.58996   0.59111
 Alpha virt. eigenvalues --    0.59134   0.59496   0.60983   0.61562   0.62802
 Alpha virt. eigenvalues --    0.63057   0.64349   0.64852   0.65292   0.65598
 Alpha virt. eigenvalues --    0.68910   0.71756   0.73851   0.75580   0.77965
 Alpha virt. eigenvalues --    0.78827   0.79817   0.80570   0.80783   0.81356
 Alpha virt. eigenvalues --    0.81967   0.82175   0.84304   0.84736   0.85644
 Alpha virt. eigenvalues --    0.87899   0.89823   0.90299   0.90808   0.92660
 Alpha virt. eigenvalues --    0.92893   0.94279   0.95898   0.97732   0.98207
 Alpha virt. eigenvalues --    1.00766   1.01507   1.05533   1.05986   1.07567
 Alpha virt. eigenvalues --    1.10260   1.12686   1.15181   1.17023   1.19033
 Alpha virt. eigenvalues --    1.21220   1.22006   1.24043   1.25506   1.25755
 Alpha virt. eigenvalues --    1.28494   1.30075   1.32848   1.34320   1.35311
 Alpha virt. eigenvalues --    1.36036   1.39880   1.39976   1.40153   1.41716
 Alpha virt. eigenvalues --    1.41929   1.45094   1.46840   1.47407   1.48982
 Alpha virt. eigenvalues --    1.49680   1.57243   1.62213   1.66114   1.69873
 Alpha virt. eigenvalues --    1.70509   1.71136   1.73927   1.76404   1.77850
 Alpha virt. eigenvalues --    1.77912   1.78858   1.81462   1.82228   1.84537
 Alpha virt. eigenvalues --    1.86688   1.87704   1.88707   1.90218   1.92403
 Alpha virt. eigenvalues --    1.92762   1.96504   1.96756   1.97204   1.99694
 Alpha virt. eigenvalues --    2.01731   2.04353   2.05591   2.05629   2.05791
 Alpha virt. eigenvalues --    2.06393   2.07414   2.08354   2.12451   2.15508
 Alpha virt. eigenvalues --    2.15540   2.16979   2.19088   2.23986   2.25210
 Alpha virt. eigenvalues --    2.28596   2.29708   2.30785   2.31938   2.32674
 Alpha virt. eigenvalues --    2.34524   2.35287   2.37530   2.38562   2.39004
 Alpha virt. eigenvalues --    2.41678   2.43739   2.45031   2.46970   2.47148
 Alpha virt. eigenvalues --    2.49119   2.49491   2.50496   2.52894   2.55202
 Alpha virt. eigenvalues --    2.57392   2.58528   2.59979   2.61181   2.61425
 Alpha virt. eigenvalues --    2.63892   2.64850   2.65249   2.67946   2.71474
 Alpha virt. eigenvalues --    2.73509   2.74724   2.75256   2.78944   2.82038
 Alpha virt. eigenvalues --    2.84374   2.86694   2.88007   2.89783   2.93569
 Alpha virt. eigenvalues --    2.97543   3.03707   3.06233   3.12809   3.17995
 Alpha virt. eigenvalues --    3.20250   3.22621   3.24771   3.25534   3.26424
 Alpha virt. eigenvalues --    3.39800   3.43433   3.43456   3.43794   3.48053
 Alpha virt. eigenvalues --    3.51806   3.57565   3.89693   3.92320   4.05461
 Alpha virt. eigenvalues --    4.10105   4.13624   4.14833   4.17389   4.19368
 Alpha virt. eigenvalues --    4.26782   4.29450   4.42261   4.43443   4.47261
 Alpha virt. eigenvalues --    4.50985   4.68776   4.83770
          Condensed to atoms (all electrons):
               1          2          3          4          5          6
     1  O    8.009234   0.520354  -0.059276   0.002977  -0.000034  -0.013390
     2  C    0.520354   4.657610   0.251555  -0.021503   0.003022  -0.037540
     3  C   -0.059276   0.251555   5.307893   0.382162  -0.014399   0.437962
     4  C    0.002977  -0.021503   0.382162   4.856881   0.434043  -0.057986
     5  N   -0.000034   0.003022  -0.014399   0.434043   6.936328  -0.035500
     6  C   -0.013390  -0.037540   0.437962  -0.057986  -0.035500   4.709901
     7  C    0.003839  -0.007332  -0.086216   0.006092  -0.000204   0.391422
     8  N    0.000013   0.004116  -0.023345  -0.039509  -0.101004   0.444924
     9  C   -0.000010   0.000608  -0.034814  -0.052211   0.379444  -0.036246
    10  C   -0.000000   0.000013   0.000730   0.004672  -0.083370   0.004348
    11  C    0.000000  -0.000000   0.000051  -0.000147   0.007298   0.000301
    12  C    0.000000   0.000000   0.000001   0.000002  -0.000098  -0.000000
    13  C   -0.000000   0.000000  -0.000000   0.000000  -0.000006   0.000000
    14  C    0.000000  -0.000000   0.000001  -0.000000   0.000605   0.000002
    15  C    0.000000  -0.000000   0.000018   0.000200  -0.008924  -0.000105
    16  H   -0.049096   0.378606  -0.125979   0.007075   0.000131   0.001392
    17  H    0.000020  -0.002310  -0.066220   0.391089  -0.048876   0.003006
    18  H    0.003087   0.001246  -0.002631  -0.000039   0.000020  -0.022890
    19  H    0.000555   0.000159   0.005970  -0.000094   0.000039  -0.023379
    20  H    0.003086   0.001246  -0.002631  -0.000039   0.000020  -0.022890
    21  H    0.000000  -0.000000   0.000050  -0.000002   0.000256   0.000099
    22  H    0.000000  -0.000000  -0.000000  -0.000000   0.000001   0.000000
    23  H    0.000000  -0.000000   0.000000  -0.000000   0.000000  -0.000000
    24  H   -0.000000  -0.000000  -0.000000  -0.000000  -0.000000  -0.000000
    25  H    0.000000  -0.000000   0.000028  -0.000050   0.015914   0.000004
               7          8          9         10         11         12
     1  O    0.003839   0.000013  -0.000010  -0.000000   0.000000   0.000000
     2  C   -0.007332   0.004116   0.000608   0.000013  -0.000000   0.000000
     3  C   -0.086216  -0.023345  -0.034814   0.000730   0.000051   0.000001
     4  C    0.006092  -0.039509  -0.052211   0.004672  -0.000147   0.000002
     5  N   -0.000204  -0.101004   0.379444  -0.083370   0.007298  -0.000098
     6  C    0.391422   0.444924  -0.036246   0.004348   0.000301  -0.000000
     7  C    5.024134  -0.087008   0.005099  -0.000167  -0.000041  -0.000001
     8  N   -0.087008   7.005393   0.364260  -0.082832  -0.008796   0.000630
     9  C    0.005099   0.364260   4.716900   0.311577  -0.039129   0.005975
    10  C   -0.000167  -0.082832   0.311577   4.900027   0.509124  -0.022143
    11  C   -0.000041  -0.008796  -0.039129   0.509124   4.958430   0.502376
    12  C   -0.000001   0.000630   0.005975  -0.022143   0.502376   4.846180
    13  C   -0.000000  -0.000007   0.000372  -0.034938  -0.035821   0.540923
    14  C   -0.000000  -0.000098   0.006031  -0.022078  -0.043753  -0.029954
    15  C    0.000004   0.007308  -0.036346   0.506406  -0.083041  -0.043678
    16  H    0.000301  -0.000108  -0.000027  -0.000000   0.000000   0.000000
    17  H   -0.000117  -0.000328   0.004118  -0.000086   0.000005  -0.000000
    18  H    0.371826   0.001895  -0.000173   0.000004   0.000000   0.000000
    19  H    0.354068   0.004286   0.000535  -0.000072  -0.000016   0.000001
    20  H    0.371812   0.001895  -0.000173   0.000004   0.000000   0.000000
    21  H   -0.000117   0.016394  -0.012823  -0.035113   0.367386  -0.045722
    22  H    0.000000   0.000000  -0.000184   0.003473  -0.036107   0.369779
    23  H   -0.000000   0.000000   0.000009   0.000727   0.004831  -0.041916
    24  H    0.000000   0.000001  -0.000182   0.003453   0.000897   0.004557
    25  H    0.000000   0.000249  -0.011968  -0.035469   0.005568   0.000303
              13         14         15         16         17         18
     1  O   -0.000000   0.000000   0.000000  -0.049096   0.000020   0.003087
     2  C    0.000000  -0.000000  -0.000000   0.378606  -0.002310   0.001246
     3  C   -0.000000   0.000001   0.000018  -0.125979  -0.066220  -0.002631
     4  C    0.000000  -0.000000   0.000200   0.007075   0.391089  -0.000039
     5  N   -0.000006   0.000605  -0.008924   0.000131  -0.048876   0.000020
     6  C    0.000000   0.000002  -0.000105   0.001392   0.003006  -0.022890
     7  C   -0.000000  -0.000000   0.000004   0.000301  -0.000117   0.371826
     8  N   -0.000007  -0.000098   0.007308  -0.000108  -0.000328   0.001895
     9  C    0.000372   0.006031  -0.036346  -0.000027   0.004118  -0.000173
    10  C   -0.034938  -0.022078   0.506406  -0.000000  -0.000086   0.000004
    11  C   -0.035821  -0.043753  -0.083041   0.000000   0.000005   0.000000
    12  C    0.540923  -0.029954  -0.043678   0.000000  -0.000000   0.000000
    13  C    4.805973   0.540843  -0.035917  -0.000000   0.000000   0.000000
    14  C    0.540843   4.846331   0.502567   0.000000  -0.000001   0.000000
    15  C   -0.035917   0.502567   4.957454   0.000000  -0.000025  -0.000000
    16  H   -0.000000   0.000000   0.000000   0.698739   0.006571   0.000052
    17  H    0.000000  -0.000001  -0.000025   0.006571   0.594135   0.000001
    18  H    0.000000   0.000000  -0.000000   0.000052   0.000001   0.557776
    19  H    0.000000  -0.000000  -0.000000   0.000013   0.000003  -0.027590
    20  H    0.000000   0.000000  -0.000000   0.000052   0.000001  -0.024538
    21  H    0.005042   0.000290   0.005594   0.000000   0.000000   0.000001
    22  H   -0.042397   0.004552   0.000901  -0.000000   0.000000  -0.000000
    23  H    0.368819  -0.041888   0.004829   0.000000  -0.000000   0.000000
    24  H   -0.042400   0.369826  -0.036162   0.000000   0.000000  -0.000000
    25  H    0.005034  -0.045813   0.368178   0.000000  -0.000036  -0.000000
              19         20         21         22         23         24
     1  O    0.000555   0.003086   0.000000   0.000000   0.000000  -0.000000
     2  C    0.000159   0.001246  -0.000000  -0.000000  -0.000000  -0.000000
     3  C    0.005970  -0.002631   0.000050  -0.000000   0.000000  -0.000000
     4  C   -0.000094  -0.000039  -0.000002  -0.000000  -0.000000  -0.000000
     5  N    0.000039   0.000020   0.000256   0.000001   0.000000  -0.000000
     6  C   -0.023379  -0.022890   0.000099   0.000000  -0.000000  -0.000000
     7  C    0.354068   0.371812  -0.000117   0.000000  -0.000000   0.000000
     8  N    0.004286   0.001895   0.016394   0.000000   0.000000   0.000001
     9  C    0.000535  -0.000173  -0.012823  -0.000184   0.000009  -0.000182
    10  C   -0.000072   0.000004  -0.035113   0.003473   0.000727   0.003453
    11  C   -0.000016   0.000000   0.367386  -0.036107   0.004831   0.000897
    12  C    0.000001   0.000000  -0.045722   0.369779  -0.041916   0.004557
    13  C    0.000000   0.000000   0.005042  -0.042397   0.368819  -0.042400
    14  C   -0.000000   0.000000   0.000290   0.004552  -0.041888   0.369826
    15  C   -0.000000  -0.000000   0.005594   0.000901   0.004829  -0.036162
    16  H    0.000013   0.000052   0.000000  -0.000000   0.000000   0.000000
    17  H    0.000003   0.000001   0.000000   0.000000  -0.000000   0.000000
    18  H   -0.027590  -0.024538   0.000001  -0.000000   0.000000  -0.000000
    19  H    0.587376  -0.027596   0.000278  -0.000000  -0.000000   0.000000
    20  H   -0.027596   0.557814   0.000001  -0.000000   0.000000  -0.000000
    21  H    0.000278   0.000001   0.592708  -0.006129  -0.000186   0.000016
    22  H   -0.000000  -0.000000  -0.006129   0.620751  -0.006150  -0.000197
    23  H   -0.000000   0.000000  -0.000186  -0.006150   0.628280  -0.006152
    24  H    0.000000  -0.000000   0.000016  -0.000197  -0.006152   0.620922
    25  H   -0.000000  -0.000000  -0.000163   0.000016  -0.000187  -0.006123
              25
     1  O    0.000000
     2  C   -0.000000
     3  C    0.000028
     4  C   -0.000050
     5  N    0.015914
     6  C    0.000004
     7  C    0.000000
     8  N    0.000249
     9  C   -0.011968
    10  C   -0.035469
    11  C    0.005568
    12  C    0.000303
    13  C    0.005034
    14  C   -0.045813
    15  C    0.368178
    16  H    0.000000
    17  H   -0.000036
    18  H   -0.000000
    19  H   -0.000000
    20  H   -0.000000
    21  H   -0.000163
    22  H    0.000016
    23  H   -0.000187
    24  H   -0.006123
    25  H    0.592147
 Mulliken charges:
               1
     1  O   -0.421359
     2  C    0.250152
     3  C    0.029092
     4  C    0.086389
     5  N   -0.484706
     6  C    0.256563
     7  C   -0.347394
     8  N   -0.508329
     9  C    0.429359
    10  C    0.071710
    11  C   -0.109419
    12  C   -0.087215
    13  C   -0.075520
    14  C   -0.087462
    15  C   -0.109262
    16  H    0.082278
    17  H    0.119048
    18  H    0.141952
    19  H    0.125465
    20  H    0.141936
    21  H    0.112139
    22  H    0.091690
    23  H    0.088984
    24  H    0.091542
    25  H    0.112367
 Sum of Mulliken charges =  -0.00000
 Mulliken charges with hydrogens summed into heavy atoms:
               1
     1  O   -0.421359
     2  C    0.332429
     3  C    0.029092
     4  C    0.205437
     5  N   -0.484706
     6  C    0.256563
     7  C    0.061959
     8  N   -0.508329
     9  C    0.429359
    10  C    0.071710
    11  C    0.002721
    12  C    0.004475
    13  C    0.013464
    14  C    0.004080
    15  C    0.003105
 Electronic spatial extent (au):  <R**2>=           4008.8214
 Charge=             -0.0000 electrons
 Dipole moment (field-independent basis, Debye):
    X=             -1.6602    Y=             -0.7926    Z=             -0.0001  Tot=              1.8397
 Quadrupole moment (field-independent basis, Debye-Ang):
   XX=            -87.6054   YY=            -78.7433   ZZ=            -87.1215
   XY=             -5.3923   XZ=             -0.0007   YZ=             -0.0012
 Traceless Quadrupole moment (field-independent basis, Debye-Ang):
   XX=             -3.1153   YY=              5.7467   ZZ=             -2.6314
   XY=             -5.3923   XZ=             -0.0007   YZ=             -0.0012
 Octapole moment (field-independent basis, Debye-Ang**2):
  XXX=           -122.7618  YYY=              1.7572  ZZZ=              0.0002  XYY=             12.8013
  XXY=            -19.3046  XXZ=              0.0004  XZZ=             19.4399  YZZ=              1.2302
  YYZ=              0.0002  XYZ=              0.0061
 Hexadecapole moment (field-independent basis, Debye-Ang**3):
 XXXX=          -4703.7652 YYYY=           -765.9531 ZZZZ=            -91.2806 XXXY=            -83.9247
 XXXZ=             -0.0141 YYYX=            -15.7135 YYYZ=             -0.0035 ZZZX=              0.0008
 ZZZY=              0.0017 XXYY=           -766.1402 XXZZ=           -780.4745 YYZZ=           -156.4808
 XXYZ=             -0.0095 YYXZ=             -0.0029 ZZXY=              6.4335
 N-N= 8.718867584564D+02 E-N=-3.248942735988D+03  KE= 6.416855781240D+02
 Calling FoFJK, ICntrl=      2127 FMM=F ISym2X=0 I1Cent= 0 IOpClX= 0 NMat=1 NMatS=1 NMatT=0.
 ***** Axes restored to original set *****
 -------------------------------------------------------------------
 Center     Atomic                   Forces (Hartrees/Bohr)
 Number     Number              X              Y              Z
 -------------------------------------------------------------------
      1        8           0.014800697   -0.010804453    0.000651018
      2        6          -0.004329101    0.027317217   -0.002127812
      3        6          -0.005745062   -0.008502259    0.000767771
      4        6           0.028986436    0.016790546   -0.001766528
      5        7          -0.012307558    0.004281677   -0.000159469
      6        6           0.016851720    0.027878981   -0.002494811
      7        6           0.002733974   -0.007207377    0.000472367
      8        7          -0.006054725   -0.018646860    0.001601512
      9        6          -0.006229714   -0.002008105    0.000232504
     10        6          -0.008213596   -0.001908848    0.000268239
     11        6          -0.002269906    0.004036057   -0.000287030
     12        6          -0.004635919   -0.005460055    0.000496059
     13        6           0.004482283    0.001036703   -0.000147477
     14        6          -0.006635692    0.003097454   -0.000153132
     15        6          -0.000125045   -0.004349398    0.000365092
     16        1          -0.000097945   -0.011951832    0.000960345
     17        1          -0.003699565   -0.003963857    0.000369301
     18        1          -0.004866298   -0.002015725   -0.000221223
     19        1           0.006891755   -0.004373452    0.000258275
     20        1          -0.004811109   -0.001946585    0.000741189
     21        1          -0.005294295   -0.000903603    0.000150841
     22        1           0.000319508    0.003184795   -0.000256030
     23        1           0.003941376    0.000840532   -0.000124612
     24        1           0.001629525   -0.002849136    0.000203241
     25        1          -0.005321744   -0.001572416    0.000200369
 -------------------------------------------------------------------
 Cartesian Forces:  Max     0.028986436 RMS     0.007911282

 GradGradGradGradGradGradGradGradGradGradGradGradGradGradGradGradGradGrad
 Berny optimization.
 FormGI is forming the generalized inverse of G from B-inverse, IUseBI=4.
 Internal  Forces:  Max     0.027544504 RMS     0.005909476
 Search for a local minimum.
 Step number   1 out of a maximum of  131
 All quantities printed in internal units (Hartrees-Bohrs-Radians)
 Mixed Optimization -- RFO/linear search
 Second derivative matrix not updated -- first step.
 ITU=  0
     Eigenvalues ---    0.00483   0.00683   0.00906   0.00906   0.01347
     Eigenvalues ---    0.01527   0.01596   0.01665   0.02030   0.02033
     Eigenvalues ---    0.02088   0.02103   0.02132   0.02154   0.02186
     Eigenvalues ---    0.02194   0.02197   0.02203   0.02207   0.02209
     Eigenvalues ---    0.06954   0.07216   0.16000   0.16000   0.16000
     Eigenvalues ---    0.16000   0.16000   0.16000   0.16000   0.16000
     Eigenvalues ---    0.16000   0.16000   0.22000   0.22000   0.22000
     Eigenvalues ---    0.23296   0.23462   0.25000   0.25000   0.25000
     Eigenvalues ---    0.25000   0.25000   0.25000   0.30234   0.31729
     Eigenvalues ---    0.33512   0.34741   0.34753   0.34813   0.34827
     Eigenvalues ---    0.35800   0.35911   0.35936   0.35946   0.35963
     Eigenvalues ---    0.35998   0.41631   0.41903   0.42348   0.44083
     Eigenvalues ---    0.45236   0.46193   0.46837   0.47101   0.50042
     Eigenvalues ---    0.50598   0.52697   0.53437   0.91274
 RFO step:  Lambda=-1.14120208D-02 EMin= 4.83079182D-03
 Linear search not attempted -- first point.
 Iteration  1 RMS(Cart)=  0.05130081 RMS(Int)=  0.00028005
 Iteration  2 RMS(Cart)=  0.00046040 RMS(Int)=  0.00004258
 Iteration  3 RMS(Cart)=  0.00000010 RMS(Int)=  0.00004258
 Variable       Old X    -DE/DX   Delta X   Delta X   Delta X     New X
                                 (Linear)    (Quad)   (Total)
    R1        2.32351  -0.01832   0.00000  -0.01982  -0.01982   2.30369
    R2        2.81462  -0.01123   0.00000  -0.03241  -0.03241   2.78221
    R3        2.06098   0.01187   0.00000   0.03307   0.03307   2.09405
    R4        2.64713  -0.00356   0.00000  -0.00663  -0.00671   2.64042
    R5        2.66349  -0.00126   0.00000  -0.00116  -0.00122   2.66227
    R6        2.56329  -0.02754   0.00000  -0.05068  -0.05070   2.51259
    R7        2.04395   0.00473   0.00000   0.01280   0.01280   2.05675
    R8        2.57362  -0.01645   0.00000  -0.03202  -0.03195   2.54168
    R9        2.87500  -0.01247   0.00000  -0.03973  -0.03973   2.83527
   R10        2.56851  -0.02264   0.00000  -0.04127  -0.04125   2.52726
   R11        2.05957   0.00250   0.00000   0.00694   0.00694   2.06651
   R12        2.06077  -0.00023   0.00000  -0.00065  -0.00065   2.06013
   R13        2.05979   0.00242   0.00000   0.00674   0.00674   2.06653
   R14        2.57414  -0.01407   0.00000  -0.02718  -0.02710   2.54704
   R15        2.84642  -0.02266   0.00000  -0.06894  -0.06894   2.77749
   R16        2.65682  -0.00409   0.00000  -0.00963  -0.00959   2.64722
   R17        2.65690  -0.00418   0.00000  -0.00984  -0.00980   2.64710
   R18        2.63183  -0.00040   0.00000  -0.00083  -0.00083   2.63100
   R19        2.04140   0.00277   0.00000   0.00748   0.00748   2.04888
   R20        2.62846   0.00550   0.00000   0.01207   0.01203   2.64049
   R21        2.04182   0.00314   0.00000   0.00848   0.00848   2.05030
   R22        2.62844   0.00553   0.00000   0.01213   0.01209   2.64053
   R23        2.04221   0.00403   0.00000   0.01088   0.01088   2.05309
   R24        2.63213  -0.00053   0.00000  -0.00112  -0.00113   2.63101
   R25        2.04165   0.00321   0.00000   0.00865   0.00865   2.05031
   R26        2.04084   0.00299   0.00000   0.00805   0.00805   2.04890
    A1        2.18868  -0.00012   0.00000  -0.00054  -0.00054   2.18814
    A2        2.09523   0.00185   0.00000   0.01069   0.01069   2.10592
    A3        1.99928  -0.00172   0.00000  -0.01015  -0.01015   1.98913
    A4        2.07255   0.00061   0.00000  -0.00016  -0.00008   2.07247
    A5        2.18580  -0.00228   0.00000  -0.01120  -0.01112   2.17468
    A6        2.02484   0.00168   0.00000   0.01136   0.01119   2.03604
    A7        2.14615   0.00258   0.00000   0.01224   0.01213   2.15829
    A8        2.13109  -0.00402   0.00000  -0.02209  -0.02203   2.10906
    A9        2.00594   0.00145   0.00000   0.00985   0.00990   2.01584
   A10        2.04475  -0.00771   0.00000  -0.03501  -0.03496   2.00979
   A11        2.16063  -0.00323   0.00000  -0.01428  -0.01425   2.14637
   A12        2.12913  -0.00833   0.00000  -0.02803  -0.02809   2.10105
   A13        1.99343   0.01156   0.00000   0.04231   0.04234   2.03577
   A14        1.92283   0.00211   0.00000   0.01057   0.01064   1.93348
   A15        1.96270  -0.01115   0.00000  -0.06149  -0.06136   1.90134
   A16        1.92285   0.00211   0.00000   0.01054   0.01061   1.93346
   A17        1.88207   0.00540   0.00000   0.03487   0.03499   1.91706
   A18        1.88934  -0.00359   0.00000  -0.02800  -0.02799   1.86135
   A19        1.88191   0.00541   0.00000   0.03496   0.03508   1.91700
   A20        2.05539  -0.00006   0.00000  -0.00146  -0.00132   2.05407
   A21        2.16610   0.01185   0.00000   0.04091   0.04104   2.20714
   A22        2.05908  -0.00599   0.00000  -0.02070  -0.02076   2.03832
   A23        2.05800  -0.00586   0.00000  -0.02021  -0.02028   2.03773
   A24        2.11415  -0.00452   0.00000  -0.01630  -0.01634   2.09781
   A25        2.11508  -0.00456   0.00000  -0.01646  -0.01649   2.09859
   A26        2.05395   0.00907   0.00000   0.03276   0.03283   2.08679
   A27        2.11712  -0.00440   0.00000  -0.01967  -0.01964   2.09749
   A28        2.10092  -0.00250   0.00000  -0.01756  -0.01758   2.08334
   A29        2.06514   0.00689   0.00000   0.03724   0.03722   2.10236
   A30        2.08921   0.00109   0.00000   0.00690   0.00687   2.09608
   A31        2.09524  -0.00122   0.00000  -0.00736  -0.00734   2.08789
   A32        2.09874   0.00012   0.00000   0.00046   0.00048   2.09921
   A33        2.09990  -0.00254   0.00000  -0.00739  -0.00746   2.09244
   A34        2.09148   0.00129   0.00000   0.00381   0.00385   2.09532
   A35        2.09180   0.00125   0.00000   0.00358   0.00362   2.09542
   A36        2.08925   0.00112   0.00000   0.00697   0.00693   2.09619
   A37        2.09820   0.00017   0.00000   0.00080   0.00082   2.09902
   A38        2.09573  -0.00130   0.00000  -0.00777  -0.00775   2.08798
   A39        2.11693  -0.00436   0.00000  -0.01957  -0.01953   2.09739
   A40        2.10180  -0.00260   0.00000  -0.01807  -0.01809   2.08372
   A41        2.06446   0.00695   0.00000   0.03764   0.03762   2.10208
    D1        3.14158   0.00000   0.00000   0.00001   0.00001  -3.14159
    D2       -0.00002   0.00000   0.00000   0.00002   0.00002  -0.00000
    D3        0.00001  -0.00000   0.00000  -0.00005  -0.00005  -0.00004
    D4        3.14159  -0.00000   0.00000  -0.00004  -0.00004   3.14155
    D5       -3.14157  -0.00000   0.00000  -0.00002  -0.00002  -3.14159
    D6       -0.00004   0.00000   0.00000   0.00005   0.00005   0.00001
    D7        0.00003  -0.00000   0.00000  -0.00002  -0.00002   0.00001
    D8        3.14156   0.00000   0.00000   0.00005   0.00005  -3.14158
    D9        0.00000   0.00000   0.00000   0.00001   0.00001   0.00001
   D10       -3.14154  -0.00000   0.00000  -0.00003  -0.00003  -3.14158
   D11        3.14158   0.00000   0.00000   0.00001   0.00001  -3.14159
   D12        0.00004  -0.00000   0.00000  -0.00003  -0.00003   0.00001
   D13       -0.00001  -0.00000   0.00000  -0.00001  -0.00001  -0.00002
   D14       -3.14154  -0.00000   0.00000  -0.00007  -0.00007   3.14157
   D15       -0.00008   0.00000   0.00000   0.00010   0.00010   0.00001
   D16       -3.14156  -0.00000   0.00000  -0.00010  -0.00010   3.14153
   D17        1.04168  -0.00089   0.00000  -0.01071  -0.01067   1.03101
   D18       -3.14148  -0.00000   0.00000  -0.00008  -0.00008  -3.14156
   D19       -1.04165   0.00089   0.00000   0.01066   0.01062  -1.03103
   D20       -2.09995  -0.00089   0.00000  -0.01067  -0.01063  -2.11059
   D21        0.00007  -0.00000   0.00000  -0.00004  -0.00004   0.00003
   D22        2.09990   0.00089   0.00000   0.01070   0.01066   2.11055
   D23       -0.00013   0.00000   0.00000   0.00011   0.00011  -0.00002
   D24        3.14151   0.00000   0.00000   0.00007   0.00007   3.14158
   D25        0.00015  -0.00000   0.00000  -0.00014  -0.00015   0.00001
   D26       -3.14156   0.00000   0.00000   0.00005   0.00005  -3.14151
   D27       -3.14133   0.00000   0.00000   0.00002   0.00002  -3.14132
   D28        0.00031   0.00000   0.00000  -0.00003  -0.00003   0.00028
   D29        0.00037  -0.00000   0.00000  -0.00017  -0.00016   0.00021
   D30       -3.14117  -0.00001   0.00000  -0.00021  -0.00021  -3.14138
   D31        3.14155   0.00000   0.00000   0.00003   0.00003   3.14158
   D32       -0.00003   0.00000   0.00000   0.00002   0.00002  -0.00001
   D33       -0.00009   0.00000   0.00000   0.00007   0.00007  -0.00002
   D34        3.14151   0.00000   0.00000   0.00006   0.00006   3.14157
   D35       -3.14155  -0.00000   0.00000  -0.00004  -0.00004  -3.14159
   D36       -0.00009   0.00000   0.00000   0.00007   0.00007  -0.00003
   D37        0.00010  -0.00000   0.00000  -0.00008  -0.00008   0.00001
   D38        3.14155   0.00000   0.00000   0.00003   0.00003   3.14157
   D39        0.00005  -0.00000   0.00000  -0.00004  -0.00004   0.00002
   D40        3.14154   0.00000   0.00000   0.00003   0.00003   3.14157
   D41       -3.14155  -0.00000   0.00000  -0.00003  -0.00003  -3.14157
   D42       -0.00006   0.00000   0.00000   0.00005   0.00005  -0.00002
   D43       -0.00001   0.00000   0.00000   0.00001   0.00001  -0.00001
   D44        3.14157   0.00000   0.00000   0.00002   0.00002   3.14159
   D45       -3.14150  -0.00000   0.00000  -0.00006  -0.00006  -3.14156
   D46        0.00009  -0.00000   0.00000  -0.00005  -0.00005   0.00004
   D47        0.00002  -0.00000   0.00000  -0.00002  -0.00002  -0.00000
   D48       -3.14158  -0.00000   0.00000  -0.00001  -0.00002   3.14159
   D49       -3.14157  -0.00000   0.00000  -0.00003  -0.00003   3.14159
   D50        0.00002  -0.00000   0.00000  -0.00003  -0.00003  -0.00001
   D51       -0.00006   0.00000   0.00000   0.00006   0.00006  -0.00000
   D52       -3.14151  -0.00000   0.00000  -0.00005  -0.00005  -3.14156
   D53        3.14154   0.00000   0.00000   0.00006   0.00006  -3.14159
   D54        0.00008  -0.00000   0.00000  -0.00005  -0.00005   0.00003
         Item               Value     Threshold  Converged?
 Maximum Force            0.027545     0.000450     NO 
 RMS     Force            0.005909     0.000300     NO 
 Maximum Displacement     0.170950     0.001800     NO 
 RMS     Displacement     0.051456     0.001200     NO 
 Predicted change in Energy=-5.921451D-03
 GradGradGradGradGradGradGradGradGradGradGradGradGradGradGradGradGradGrad

                          Input orientation:                          
 ---------------------------------------------------------------------
 Center     Atomic      Atomic             Coordinates (Angstroms)
 Number     Number       Type             X           Y           Z
 ---------------------------------------------------------------------
      1          8           0       -4.862149   -0.651661    0.084980
      2          6           0       -3.913250   -1.415501    0.132444
      3          6           0       -2.496386   -1.018823    0.079862
      4          6           0       -1.517270   -2.013483    0.145414
      5          7           0       -0.211496   -1.765935    0.106440
      6          6           0       -2.041238    0.309616   -0.033482
      7          6           0       -2.968376    1.486452   -0.114420
      8          7           0       -0.730999    0.574546   -0.073942
      9          6           0        0.121143   -0.467301   -0.002732
     10          6           0        1.556120   -0.152704   -0.048897
     11          6           0        1.982667    1.176860   -0.161586
     12          6           0        3.342061    1.474424   -0.205269
     13          6           0        4.286746    0.447148   -0.136833
     14          6           0        3.865033   -0.880253   -0.024398
     15          6           0        2.506093   -1.179875    0.019451
     16          1           0       -4.071655   -2.508541    0.222498
     17          1           0       -1.792825   -3.062704    0.233694
     18          1           0       -3.608393    1.537743    0.770792
     19          1           0       -2.376440    2.398249   -0.196342
     20          1           0       -3.633966    1.397339   -0.977508
     21          1           0        1.244637    1.969369   -0.214265
     22          1           0        3.662495    2.507306   -0.292672
     23          1           0        5.347367    0.680148   -0.170982
     24          1           0        4.593296   -1.682707    0.029199
     25          1           0        2.172786   -2.207910    0.106653
 ---------------------------------------------------------------------
                    Distance matrix (angstroms):
                    1          2          3          4          5
     1  O    0.000000
     2  C    1.219063   0.000000
     3  C    2.394090   1.472284   0.000000
     4  C    3.611983   2.469508   1.397252   0.000000
     5  N    4.782325   3.718395   2.404081   1.329603   0.000000
     6  C    2.982553   2.551076   1.408815   2.388166   2.770460
     7  C    2.863156   3.061872   2.556741   3.797733   4.269332
     8  N    4.312220   3.758937   2.383081   2.713713   2.404220
     9  C    4.987472   4.146526   2.676277   2.257659   1.344997
    10  C    6.439026   5.616187   4.146029   3.598053   2.398148
    11  C    7.089131   6.447373   4.994121   4.745745   3.680521
    12  C    8.480185   7.816984   6.354923   5.991792   4.819217
    13  C    9.217313   8.413198   6.943120   6.310386   5.019074
    14  C    8.730860   7.798255   6.363783   5.502930   4.173685
    15  C    7.387441   6.424659   5.005436   4.110744   2.781425
    16  H    2.022818   1.108123   2.172804   2.603057   3.932653
    17  H    3.905891   2.686955   2.167051   1.088388   2.049001
    18  H    2.614523   3.036787   2.872276   4.168345   4.784826
    19  H    3.944597   4.124873   3.430315   4.507588   4.703093
    20  H    2.614520   3.036785   2.872274   4.168340   4.784824
    21  H    6.652232   6.179106   4.796985   4.860105   4.021900
    22  H    9.098969   8.541724   7.106630   6.889080   5.781668
    23  H   10.299196   9.499623   8.029563   7.380989   6.079576
    24  H    9.511656   8.511367   7.120878   6.120615   4.806133
    25  H    7.205046   6.137460   4.818280   3.695378   2.424901
                    6          7          8          9         10
     6  C    0.000000
     7  C    1.500360   0.000000
     8  N    1.337368   2.416417   0.000000
     9  C    2.297920   3.657152   1.347836   0.000000
    10  C    3.626978   4.812712   2.400091   1.469783   0.000000
    11  C    4.118292   4.960938   2.781087   2.488729   1.400850
    12  C    5.510553   6.311102   4.173349   3.766381   2.421070
    13  C    6.330322   7.329220   5.019756   4.266902   2.797119
    14  C    6.024941   7.232212   4.821038   3.766658   2.420951
    15  C    4.785353   6.090734   3.683134   2.489225   1.400785
    16  H    3.482834   4.158210   4.555578   4.668720   6.107003
    17  H    3.391996   4.711467   3.801540   3.233463   4.445604
    18  H    2.147353   1.093550   3.149718   4.304414   5.495608
    19  H    2.121620   1.090171   2.459339   3.806151   4.689790
    20  H    2.147349   1.093559   3.149704   4.304406   5.495630
    21  H    3.685707   4.241776   2.422470   2.691533   2.151178
    22  H    6.117973   6.711361   4.804809   4.633954   3.401749
    23  H    7.399168   8.354933   6.080057   5.353351   3.883567
    24  H    6.927504   8.200188   5.783938   4.634477   3.401682
    25  H    4.910761   6.334725   4.025747   2.692754   2.151358
                   11         12         13         14         15
    11  C    0.000000
    12  C    1.392266   0.000000
    13  C    2.416997   1.397287   0.000000
    14  C    2.791745   2.418826   1.397311   0.000000
    15  C    2.420940   2.791889   2.417097   1.392270   0.000000
    16  H    7.098205   8.426754   8.872885   8.105758   6.713669
    17  H    5.690737   6.866241   7.029761   6.069684   4.698046
    18  H    5.679746   7.018940   8.021621   7.895007   6.733268
    19  H    4.527119   5.792649   6.943226   7.052243   6.057117
    20  H    5.679868   7.019062   8.021675   7.894988   6.733222
    21  H    1.084220   2.155049   3.402584   3.875935   3.400535
    22  H    2.146880   1.084971   2.158292   3.404195   3.876853
    23  H    3.401179   2.157152   1.086449   2.157232   3.401292
    24  H    3.876713   3.404121   2.158199   1.084975   2.146940
    25  H    3.400700   3.876090   3.402564   2.154889   1.084229
                   16         17         18         19         20
    16  H    0.000000
    17  H    2.345269   0.000000
    18  H    4.109458   4.974823   0.000000
    19  H    5.208240   5.508860   1.787044   0.000000
    20  H    4.109438   4.974815   1.754115   1.787013   0.000000
    21  H    6.964582   5.894795   4.970769   3.646431   4.970968
    22  H    9.232616   7.814255   7.411938   6.040688   7.412109
    23  H    9.951911   8.071867   9.045885   7.912629   9.045948
    24  H    8.706362   6.536723   8.842452   8.079745   8.842396
    25  H    6.252747   4.058681   6.920479   6.481046   6.920375
                   21         22         23         24         25
    21  H    0.000000
    22  H    2.478217   0.000000
    23  H    4.300739   2.488395   0.000000
    24  H    4.960892   4.304207   2.488328   0.000000
    25  H    4.291166   4.961043   4.300688   2.478044   0.000000
 Stoichiometry    C12H10N2O
 Framework group  C1[X(C12H10N2O)]
 Deg. of freedom    69
 Full point group                 C1      NOp   1
 Largest Abelian subgroup         C1      NOp   1
 Largest concise Abelian subgroup C1      NOp   1
                         Standard orientation:                         
 ---------------------------------------------------------------------
 Center     Atomic      Atomic             Coordinates (Angstroms)
 Number     Number       Type             X           Y           Z
 ---------------------------------------------------------------------
      1          8           0        4.729424    0.086456   -0.000054
      2          6           0        3.865754   -0.773886   -0.000109
      3          6           0        2.414689   -0.524829   -0.000048
      4          6           0        1.545206   -1.618590   -0.000118
      5          7           0        0.220309   -1.506818   -0.000080
      6          6           0        1.822404    0.753435    0.000083
      7          6           0        2.621048    2.023571    0.000167
      8          7           0        0.491239    0.882088    0.000149
      9          6           0       -0.246982   -0.245606    0.000061
     10          6           0       -1.707442   -0.080324    0.000025
     11          6           0       -2.271387    1.201998   -0.000168
     12          6           0       -3.654873    1.358111   -0.000216
     13          6           0       -4.486686    0.235393   -0.000052
     14          6           0       -3.927777   -1.045270    0.000153
     15          6           0       -2.544526   -1.203485    0.000192
     16          1           0        4.138133   -1.848012   -0.000170
     17          1           0        1.929516   -2.636870   -0.000208
     18          1           0        3.272375    2.072378   -0.876898
     19          1           0        1.936457    2.871986    0.000299
     20          1           0        3.272421    2.072219    0.877217
     21          1           0       -1.620484    2.069096   -0.000278
     22          1           0       -4.082104    2.355426   -0.000347
     23          1           0       -5.566191    0.358029   -0.000088
     24          1           0       -4.567920   -1.921276    0.000284
     25          1           0       -2.104999   -2.194630    0.000324
 ---------------------------------------------------------------------
 Rotational constants (GHZ):           1.9465396           0.3065833           0.2652975
 Standard basis: 6-31G(d,p) (6D, 7F)
 There are   275 symmetry adapted cartesian basis functions of A   symmetry.
 There are   275 symmetry adapted basis functions of A   symmetry.
   275 basis functions,   490 primitive gaussians,   275 cartesian basis functions
    52 alpha electrons       52 beta electrons
       nuclear repulsion energy       881.4979612806 Hartrees.
 NAtoms=   25 NActive=   25 NUniq=   25 SFac= 1.00D+00 NAtFMM=   60 NAOKFM=F Big=F
 Integral buffers will be    131072 words long.
 Raffenetti 2 integral format.
 Two-electron integral symmetry is turned on.
 Nuclear repulsion after empirical dispersion term =      881.4458391815 Hartrees.
 One-electron integrals computed using PRISM.
 NBasis=   275 RedAO= T EigKep=  4.53D-04  NBF=   275
 NBsUse=   275 1.00D-06 EigRej= -1.00D+00 NBFU=   275
 Initial guess from the checkpoint file:  "pyrmd5_conf-2.chk"
 B after Tr=    -0.000000    0.000000   -0.000000
         Rot=    0.999999   -0.000001   -0.000000    0.001579 Ang=  -0.18 deg.
 ExpMin= 1.61D-01 ExpMax= 5.48D+03 ExpMxC= 8.25D+02 IAcc=3 IRadAn=         5 AccDes= 0.00D+00
 Harris functional with IExCor=  402 and IRadAn=       5 diagonalized for initial guess.
 HarFok:  IExCor=  402 AccDes= 0.00D+00 IRadAn=         5 IDoV= 1 UseB2=F ITyADJ=14
 ICtDFT=  3500011 ScaDFX=  1.000000  1.000000  1.000000  1.000000
 FoFCou: FMM=F IPFlag=           0 FMFlag=      100000 FMFlg1=           0
         NFxFlg=           0 DoJE=T BraDBF=F KetDBF=T FulRan=T
         wScrn=  0.000000 ICntrl=       500 IOpCl=  0 I1Cent=   200000004 NGrid=           0
         NMat0=    1 NMatS0=      1 NMatT0=    0 NMatD0=    1 NMtDS0=    0 NMtDT0=    0
 Petite list used in FoFCou.
 Requested convergence on RMS density matrix=1.00D-08 within 128 cycles.
 Requested convergence on MAX density matrix=1.00D-06.
 Requested convergence on             energy=1.00D-06.
 No special actions if energy rises.
 Integral accuracy reduced to 1.0D-05 until final iterations.
 Initial convergence to 1.0D-05 achieved.  Increase integral accuracy.
 SCF Done:  E(RB3LYP) =  -648.099620878     A.U. after   12 cycles
            NFock= 12  Conv=0.60D-08     -V/T= 2.0094
 Calling FoFJK, ICntrl=      2127 FMM=F ISym2X=0 I1Cent= 0 IOpClX= 0 NMat=1 NMatS=1 NMatT=0.
 ***** Axes restored to original set *****
 -------------------------------------------------------------------
 Center     Atomic                   Forces (Hartrees/Bohr)
 Number     Number              X              Y              Z
 -------------------------------------------------------------------
      1        8          -0.000034910   -0.001827576    0.000148858
      2        6           0.000516297    0.004694245   -0.000388885
      3        6          -0.004425131   -0.006506782    0.000588939
      4        6           0.003761653   -0.001712827    0.000081017
      5        7          -0.006815317    0.000236382    0.000077195
      6        6           0.001946360    0.008128663   -0.000682011
      7        6           0.001691033    0.000626488   -0.000083627
      8        7          -0.005191094   -0.005849289    0.000545331
      9        6           0.006011972    0.003943498   -0.000395875
     10        6           0.001015762    0.000876445   -0.000089477
     11        6           0.003305756    0.003967465   -0.000366868
     12        6          -0.000544735   -0.001353983    0.000113882
     13        6           0.000315441    0.000087294   -0.000010954
     14        6          -0.001060047    0.000989041   -0.000063923
     15        6           0.004464464   -0.002267072    0.000119559
     16        1          -0.000251724   -0.002356000    0.000194555
     17        1          -0.002823629   -0.000566096    0.000087401
     18        1          -0.000950337   -0.000522765   -0.000940762
     19        1           0.000533294    0.000011092   -0.000005348
     20        1          -0.000920262   -0.000365745    0.001044115
     21        1          -0.000308548   -0.001591383    0.000132075
     22        1           0.000497210    0.000226131   -0.000023885
     23        1          -0.000355479   -0.000091321    0.000012117
     24        1           0.000526251   -0.000009726   -0.000006797
     25        1          -0.000904279    0.001233821   -0.000086630
 -------------------------------------------------------------------
 Cartesian Forces:  Max     0.008128663 RMS     0.002368429

 GradGradGradGradGradGradGradGradGradGradGradGradGradGradGradGradGradGrad
 Berny optimization.
 Using GEDIIS/GDIIS optimizer.
 FormGI is forming the generalized inverse of G from B-inverse, IUseBI=4.
 Internal  Forces:  Max     0.007499440 RMS     0.001634544
 Search for a local minimum.
 Step number   2 out of a maximum of  131
 All quantities printed in internal units (Hartrees-Bohrs-Radians)
 Mixed Optimization -- RFO/linear search
 Update second derivatives using D2CorX and points    1    2
 DE= -5.30D-03 DEPred=-5.92D-03 R= 8.94D-01
 TightC=F SS=  1.41D+00  RLast= 1.94D-01 DXNew= 5.0454D-01 5.8169D-01
 Trust test= 8.94D-01 RLast= 1.94D-01 DXMaxT set to 5.05D-01
 ITU=  1  0
 Use linear search instead of GDIIS.
     Eigenvalues ---    0.00483   0.00683   0.00906   0.00906   0.01328
     Eigenvalues ---    0.01552   0.01610   0.01671   0.02030   0.02032
     Eigenvalues ---    0.02091   0.02106   0.02134   0.02154   0.02185
     Eigenvalues ---    0.02195   0.02197   0.02203   0.02206   0.02209
     Eigenvalues ---    0.07156   0.07267   0.14760   0.16000   0.16000
     Eigenvalues ---    0.16000   0.16000   0.16000   0.16000   0.16000
     Eigenvalues ---    0.16000   0.16157   0.21834   0.22000   0.22039
     Eigenvalues ---    0.23194   0.23456   0.24460   0.25000   0.25000
     Eigenvalues ---    0.25000   0.25000   0.27136   0.30103   0.33145
     Eigenvalues ---    0.34334   0.34667   0.34762   0.34820   0.35120
     Eigenvalues ---    0.35726   0.35919   0.35925   0.35942   0.35982
     Eigenvalues ---    0.36404   0.41862   0.41977   0.42637   0.44081
     Eigenvalues ---    0.45217   0.46137   0.46832   0.47100   0.49977
     Eigenvalues ---    0.51532   0.52640   0.56357   0.90752
 RFO step:  Lambda=-9.05447677D-04 EMin= 4.83079183D-03
 Quartic linear search produced a step of -0.08189.
 Iteration  1 RMS(Cart)=  0.01242951 RMS(Int)=  0.00004211
 Iteration  2 RMS(Cart)=  0.00006282 RMS(Int)=  0.00000576
 Iteration  3 RMS(Cart)=  0.00000000 RMS(Int)=  0.00000576
 Variable       Old X    -DE/DX   Delta X   Delta X   Delta X     New X
                                 (Linear)    (Quad)   (Total)
    R1        2.30369  -0.00112   0.00162  -0.00434  -0.00272   2.30098
    R2        2.78221  -0.00036   0.00265  -0.00638  -0.00373   2.77849
    R3        2.09405   0.00238  -0.00271   0.01176   0.00905   2.10310
    R4        2.64042   0.00049   0.00055  -0.00013   0.00040   2.64083
    R5        2.66227   0.00587   0.00010   0.01196   0.01205   2.67432
    R6        2.51259   0.00108   0.00415  -0.00644  -0.00229   2.51030
    R7        2.05675   0.00127  -0.00105   0.00537   0.00432   2.06107
    R8        2.54168   0.00454   0.00262   0.00270   0.00532   2.54700
    R9        2.83527  -0.00042   0.00325  -0.00791  -0.00465   2.83062
   R10        2.52726  -0.00010   0.00338  -0.00696  -0.00357   2.52368
   R11        2.06651  -0.00023  -0.00057   0.00055  -0.00002   2.06649
   R12        2.06013   0.00030   0.00005   0.00068   0.00073   2.06086
   R13        2.06653  -0.00023  -0.00055   0.00050  -0.00005   2.06648
   R14        2.54704   0.00105   0.00222  -0.00260  -0.00037   2.54667
   R15        2.77749   0.00724   0.00564   0.00937   0.01502   2.79251
   R16        2.64722   0.00272   0.00079   0.00429   0.00507   2.65229
   R17        2.64710   0.00271   0.00080   0.00422   0.00502   2.65212
   R18        2.63100  -0.00031   0.00007  -0.00073  -0.00066   2.63034
   R19        2.04888  -0.00096  -0.00061  -0.00120  -0.00181   2.04707
   R20        2.64049  -0.00065  -0.00099   0.00046  -0.00052   2.63997
   R21        2.05030   0.00036  -0.00069   0.00234   0.00164   2.05194
   R22        2.64053  -0.00065  -0.00099   0.00047  -0.00052   2.64002
   R23        2.05309  -0.00037  -0.00089   0.00087  -0.00002   2.05307
   R24        2.63101  -0.00033   0.00009  -0.00084  -0.00075   2.63026
   R25        2.05031   0.00036  -0.00071   0.00235   0.00164   2.05195
   R26        2.04890  -0.00090  -0.00066  -0.00095  -0.00161   2.04729
    A1        2.18814   0.00229   0.00004   0.00942   0.00946   2.19760
    A2        2.10592  -0.00105  -0.00088  -0.00236  -0.00324   2.10268
    A3        1.98913  -0.00124   0.00083  -0.00705  -0.00622   1.98290
    A4        2.07247  -0.00029   0.00001  -0.00101  -0.00099   2.07148
    A5        2.17468   0.00204   0.00091   0.00565   0.00657   2.18125
    A6        2.03604  -0.00175  -0.00092  -0.00464  -0.00558   2.03046
    A7        2.15829   0.00001  -0.00099   0.00211   0.00110   2.15938
    A8        2.10906  -0.00267   0.00180  -0.01901  -0.01720   2.09186
    A9        2.01584   0.00265  -0.00081   0.01690   0.01610   2.03194
   A10        2.00979   0.00460   0.00286   0.01109   0.01396   2.02375
   A11        2.14637   0.00055   0.00117  -0.00032   0.00085   2.14722
   A12        2.10105  -0.00089   0.00230  -0.00811  -0.00581   2.09523
   A13        2.03577   0.00033  -0.00347   0.00843   0.00496   2.04073
   A14        1.93348   0.00030  -0.00087   0.00212   0.00124   1.93471
   A15        1.90134  -0.00036   0.00502  -0.00986  -0.00485   1.89649
   A16        1.93346   0.00030  -0.00087   0.00212   0.00124   1.93471
   A17        1.91706   0.00052  -0.00286   0.01183   0.00896   1.92602
   A18        1.86135  -0.00128   0.00229  -0.01768  -0.01540   1.84595
   A19        1.91700   0.00053  -0.00287   0.01189   0.00901   1.92601
   A20        2.05407   0.00552   0.00011   0.01996   0.02009   2.07416
   A21        2.20714  -0.00750  -0.00336  -0.02041  -0.02375   2.18340
   A22        2.03832   0.00421   0.00170   0.01183   0.01352   2.05183
   A23        2.03773   0.00329   0.00166   0.00858   0.01023   2.04795
   A24        2.09781   0.00131   0.00134   0.00159   0.00293   2.10074
   A25        2.09859   0.00074   0.00135  -0.00053   0.00082   2.09941
   A26        2.08679  -0.00205  -0.00269  -0.00106  -0.00375   2.08304
   A27        2.09749   0.00047   0.00161  -0.00095   0.00065   2.09814
   A28        2.08334  -0.00158   0.00144  -0.01197  -0.01053   2.07281
   A29        2.10236   0.00111  -0.00305   0.01292   0.00988   2.11224
   A30        2.09608   0.00048  -0.00056   0.00245   0.00189   2.09796
   A31        2.08789   0.00018   0.00060   0.00048   0.00108   2.08897
   A32        2.09921  -0.00066  -0.00004  -0.00293  -0.00297   2.09625
   A33        2.09244   0.00014   0.00061  -0.00199  -0.00137   2.09107
   A34        2.09532  -0.00006  -0.00031   0.00109   0.00077   2.09609
   A35        2.09542  -0.00008  -0.00030   0.00090   0.00060   2.09602
   A36        2.09619   0.00049  -0.00057   0.00249   0.00193   2.09811
   A37        2.09902  -0.00064  -0.00007  -0.00275  -0.00282   2.09620
   A38        2.08798   0.00015   0.00063   0.00025   0.00089   2.08887
   A39        2.09739   0.00047   0.00160  -0.00094   0.00066   2.09805
   A40        2.08372  -0.00151   0.00148  -0.01163  -0.01015   2.07356
   A41        2.10208   0.00103  -0.00308   0.01257   0.00949   2.11157
    D1       -3.14159  -0.00000  -0.00000  -0.00013  -0.00013   3.14147
    D2       -0.00000  -0.00000  -0.00000  -0.00013  -0.00013  -0.00014
    D3       -0.00004   0.00000   0.00000   0.00014   0.00015   0.00011
    D4        3.14155   0.00000   0.00000   0.00014   0.00014  -3.14150
    D5       -3.14159   0.00000   0.00000  -0.00000   0.00000  -3.14158
[...]
 Alpha virt. eigenvalues --    0.49780   0.50288   0.51733   0.51893   0.52120
 Alpha virt. eigenvalues --    0.52179   0.52577   0.53288   0.53787   0.54427
 Alpha virt. eigenvalues --    0.55728   0.57326   0.58197   0.58383   0.60647
 Alpha virt. eigenvalues --    0.61117   0.61714   0.63284   0.63454   0.64913
 Alpha virt. eigenvalues --    0.65525   0.66926   0.67491   0.67707   0.69825
 Alpha virt. eigenvalues --    0.70717   0.71193   0.71390   0.73165   0.73697
 Alpha virt. eigenvalues --    0.75214   0.75859   0.76549   0.76805   0.77275
 Alpha virt. eigenvalues --    0.77490   0.78522   0.78753   0.79147   0.79634
 Alpha virt. eigenvalues --    0.81155   0.81250   0.82674   0.84235   0.85384
 Alpha virt. eigenvalues --    0.87069   0.87762   0.89396   0.91218   0.92695
 Alpha virt. eigenvalues --    0.93377   0.94097   0.95437   0.95721   0.98211
 Alpha virt. eigenvalues --    0.99481   0.99877   1.01204   1.02263   1.03561
 Alpha virt. eigenvalues --    1.04455   1.05921   1.07314   1.08953   1.09964
 Alpha virt. eigenvalues --    1.10407   1.11503   1.12046   1.14647   1.15923
 Alpha virt. eigenvalues --    1.16962   1.19095   1.21721   1.23658   1.25206
 Alpha virt. eigenvalues --    1.25654   1.25689   1.27564   1.28065   1.28889
 Alpha virt. eigenvalues --    1.29866   1.31594   1.31903   1.33298   1.34330
 Alpha virt. eigenvalues --    1.36921   1.38175   1.40235   1.40680   1.41301
 Alpha virt. eigenvalues --    1.42429   1.43997   1.44790   1.45855   1.47305
 Alpha virt. eigenvalues --    1.48085   1.50210   1.50799   1.51858   1.52479
 Alpha virt. eigenvalues --    1.53951   1.54333   1.55381   1.56737   1.57741
 Alpha virt. eigenvalues --    1.58343   1.58694   1.60136   1.60965   1.62171
 Alpha virt. eigenvalues --    1.62889   1.64113   1.64532   1.65399   1.66379
 Alpha virt. eigenvalues --    1.67582   1.68143   1.68427   1.68780   1.70964
 Alpha virt. eigenvalues --    1.72609   1.73582   1.74092   1.74362   1.74676
 Alpha virt. eigenvalues --    1.75012   1.75910   1.81280   1.81463   1.82541
 Alpha virt. eigenvalues --    1.87230   1.88854   1.89020   1.89830   1.90074
 Alpha virt. eigenvalues --    1.93228   1.94433   1.95087   1.95306   1.97913
 Alpha virt. eigenvalues --    1.98680   2.00838   2.01270   2.02455   2.04407
 Alpha virt. eigenvalues --    2.06034   2.06519   2.07608   2.09710   2.12582
 Alpha virt. eigenvalues --    2.12602   2.12618   2.14004   2.15501   2.16471
 Alpha virt. eigenvalues --    2.18436   2.19179   2.21310   2.24628   2.25032
 Alpha virt. eigenvalues --    2.26282   2.27657   2.29360   2.31410   2.31675
 Alpha virt. eigenvalues --    2.32826   2.34025   2.35826   2.35917   2.39067
 Alpha virt. eigenvalues --    2.40120   2.40584   2.41102   2.42937   2.46287
 Alpha virt. eigenvalues --    2.46973   2.47713   2.49045   2.50729   2.53293
 Alpha virt. eigenvalues --    2.53296   2.56325   2.57134   2.57199   2.59359
 Alpha virt. eigenvalues --    2.60200   2.60335   2.61362   2.62587   2.65587
 Alpha virt. eigenvalues --    2.67322   2.67382   2.68000   2.69129   2.70104
 Alpha virt. eigenvalues --    2.70944   2.71136   2.71220   2.71515   2.74380
 Alpha virt. eigenvalues --    2.76148   2.76222   2.76755   2.77408   2.77943
 Alpha virt. eigenvalues --    2.79788   2.81178   2.82992   2.83248   2.84434
 Alpha virt. eigenvalues --    2.85276   2.85335   2.87222   2.88685   2.88747
 Alpha virt. eigenvalues --    2.90612   2.91351   2.91998   2.93561   2.94694
 Alpha virt. eigenvalues --    2.95602   2.95916   2.96724   2.97439   2.99860
 Alpha virt. eigenvalues --    3.01277   3.02891   3.03645   3.04604   3.05840
 Alpha virt. eigenvalues --    3.08308   3.09084   3.10951   3.11020   3.11893
 Alpha virt. eigenvalues --    3.12029   3.13339   3.13671   3.13881   3.14735
 Alpha virt. eigenvalues --    3.15903   3.16020   3.16541   3.18093   3.18371
 Alpha virt. eigenvalues --    3.18593   3.20208   3.21100   3.22222   3.23700
 Alpha virt. eigenvalues --    3.25105   3.25680   3.25727   3.27686   3.28226
 Alpha virt. eigenvalues --    3.28867   3.30674   3.30819   3.31227   3.33104
 Alpha virt. eigenvalues --    3.33990   3.34053   3.34766   3.34912   3.36362
 Alpha virt. eigenvalues --    3.37705   3.37749   3.38503   3.38508   3.40723
 Alpha virt. eigenvalues --    3.41736   3.42082   3.44250   3.45217   3.46425
 Alpha virt. eigenvalues --    3.46835   3.47994   3.50927   3.51894   3.52667
 Alpha virt. eigenvalues --    3.53042   3.54316   3.57188   3.57818   3.60758
 Alpha virt. eigenvalues --    3.62772   3.66380   3.66388   3.67688   3.68314
 Alpha virt. eigenvalues --    3.69968   3.73963   3.75221   3.77382   3.77485
 Alpha virt. eigenvalues --    3.78872   3.81200   3.83122   3.84205   3.85650
 Alpha virt. eigenvalues --    3.85713   3.88472   3.89543   3.91420   3.92062
 Alpha virt. eigenvalues --    3.93916   3.97817   4.01300   4.01873   4.03048
 Alpha virt. eigenvalues --    4.04881   4.05900   4.08706   4.08944   4.10637
 Alpha virt. eigenvalues --    4.11801   4.13639   4.14596   4.14602   4.15788
 Alpha virt. eigenvalues --    4.18244   4.18559   4.19635   4.21465   4.24752
 Alpha virt. eigenvalues --    4.25049   4.28923   4.29294   4.29475   4.31452
 Alpha virt. eigenvalues --    4.34226   4.36294   4.38042   4.42629   4.46876
 Alpha virt. eigenvalues --    4.51140   4.53556   4.54368   4.55463   4.57409
 Alpha virt. eigenvalues --    4.62150   4.63631   4.64715   4.67721   4.69803
 Alpha virt. eigenvalues --    4.72754   4.73949   4.75016   4.81026   4.82376
 Alpha virt. eigenvalues --    4.85596   4.86776   4.89869   4.93468   4.94115
 Alpha virt. eigenvalues --    5.02190   5.02917   5.03595   5.04600   5.07320
 Alpha virt. eigenvalues --    5.07656   5.09406   5.13742   5.19730   5.21217
 Alpha virt. eigenvalues --    5.23060   5.26974   5.30165   5.31234   5.35175
 Alpha virt. eigenvalues --    5.36823   5.40595   5.40987   5.43032   5.47518
 Alpha virt. eigenvalues --    5.55586   5.57522   5.61520   5.62146   5.73171
 Alpha virt. eigenvalues --    5.76205   5.80810   5.84088   5.96618   6.04605
 Alpha virt. eigenvalues --    6.29168   6.34637   6.38279   6.50555   6.54147
 Alpha virt. eigenvalues --    6.77951   6.97191   7.04181  22.33131  22.55753
 Alpha virt. eigenvalues --   22.67176  22.68908  22.81772  22.87251  22.90766
 Alpha virt. eigenvalues --   22.92187  23.05114  23.20590  23.32401  23.46505
 Alpha virt. eigenvalues --   32.54105  32.87362  44.01122
          Condensed to atoms (all electrons):
               1          2          3          4          5          6
     1  O    7.857157   0.615956  -0.116751   0.004966  -0.000344  -0.019700
     2  C    0.615956   4.758840   0.081082  -0.011813   0.002113  -0.023607
     3  C   -0.116751   0.081082   5.778810   0.445363  -0.038818   0.345298
     4  C    0.004966  -0.011813   0.445363   4.827325   0.536957  -0.077463
     5  N   -0.000344   0.002113  -0.038818   0.536957   6.548126  -0.036143
     6  C   -0.019700  -0.023607   0.345298  -0.077463  -0.036143   5.018978
     7  C    0.011675  -0.013534  -0.091553   0.001897  -0.002275   0.267539
     8  N    0.000237   0.000785  -0.075030  -0.019849  -0.069840   0.564783
     9  C   -0.000252  -0.001719  -0.047893  -0.094842   0.432676  -0.078344
    10  C   -0.000030  -0.001201  -0.008419   0.003631  -0.127564   0.001859
    11  C    0.000001   0.000019   0.002158  -0.001242   0.011975  -0.000295
    12  C   -0.000000  -0.000000   0.000015  -0.000026  -0.001171  -0.000154
    13  C    0.000000   0.000000   0.000010   0.000055   0.001139   0.000018
    14  C   -0.000000  -0.000001  -0.000032  -0.000305  -0.005315   0.000035
    15  C    0.000000   0.000014   0.000463   0.000878   0.022775  -0.000533
    16  H   -0.051533   0.507582  -0.206039   0.017929  -0.000207   0.005613
    17  H   -0.000179  -0.000323  -0.091675   0.448062  -0.031955   0.004569
    18  H   -0.001021  -0.004104   0.000107   0.000676   0.000148  -0.035872
    19  H    0.002467   0.001970   0.009216   0.000132   0.000215  -0.075147
    20  H   -0.001021  -0.004104   0.000106   0.000676   0.000148  -0.035872
    21  H   -0.000000  -0.000010   0.000705  -0.000137   0.000822   0.000071
    22  H   -0.000000  -0.000000  -0.000002  -0.000001   0.000003  -0.000003
    23  H    0.000000   0.000000   0.000000   0.000000   0.000002   0.000000
    24  H   -0.000000  -0.000000  -0.000001  -0.000008  -0.000149  -0.000001
    25  H    0.000000  -0.000003   0.000427   0.000725   0.025952   0.000020
               7          8          9         10         11         12
     1  O    0.011675   0.000237  -0.000252  -0.000030   0.000001  -0.000000
     2  C   -0.013534   0.000785  -0.001719  -0.001201   0.000019  -0.000000
     3  C   -0.091553  -0.075030  -0.047893  -0.008419   0.002158   0.000015
     4  C    0.001897  -0.019849  -0.094842   0.003631  -0.001242  -0.000026
     5  N   -0.002275  -0.069840   0.432676  -0.127564   0.011975  -0.001171
     6  C    0.267539   0.564783  -0.078344   0.001859  -0.000295  -0.000154
     7  C    5.096742  -0.055337   0.005116   0.000678  -0.000755  -0.000028
     8  N   -0.055337   6.543818   0.445206  -0.114834   0.018238  -0.003428
     9  C    0.005116   0.445206   4.843582   0.377697  -0.085473   0.010759
    10  C    0.000678  -0.114834   0.377697   5.095389   0.450533  -0.039369
    11  C   -0.000755   0.018238  -0.085473   0.450533   5.046524   0.492608
    12  C   -0.000028  -0.003428   0.010759  -0.039369   0.492608   4.930207
    13  C   -0.000001   0.000779  -0.005968  -0.054485  -0.026059   0.497433
    14  C   -0.000006  -0.000901   0.009572  -0.027587  -0.060576  -0.026271
    15  C    0.000272   0.011239  -0.090147   0.417767  -0.040763  -0.067484
    16  H    0.001607  -0.000460  -0.000535  -0.000116   0.000003  -0.000000
    17  H   -0.000009  -0.002072   0.009450   0.000171   0.000118   0.000001
    18  H    0.408970   0.000903  -0.000374  -0.000031   0.000018   0.000000
    19  H    0.426818   0.006832   0.000306  -0.001381   0.000165  -0.000002
    20  H    0.408971   0.000903  -0.000374  -0.000031   0.000018   0.000000
    21  H   -0.000569   0.021300  -0.010041  -0.020898   0.398657  -0.034960
    22  H    0.000002  -0.000093  -0.000287   0.005125  -0.030998   0.408320
    23  H    0.000000   0.000001   0.000240   0.000476   0.003029  -0.032470
    24  H   -0.000000   0.000004  -0.000263   0.006046   0.000242   0.003602
    25  H    0.000013   0.000834  -0.010844  -0.026760   0.006737  -0.001529
              13         14         15         16         17         18
     1  O    0.000000  -0.000000   0.000000  -0.051533  -0.000179  -0.001021
     2  C    0.000000  -0.000001   0.000014   0.507582  -0.000323  -0.004104
     3  C    0.000010  -0.000032   0.000463  -0.206039  -0.091675   0.000107
     4  C    0.000055  -0.000305   0.000878   0.017929   0.448062   0.000676
     5  N    0.001139  -0.005315   0.022775  -0.000207  -0.031955   0.000148
     6  C    0.000018   0.000035  -0.000533   0.005613   0.004569  -0.035872
     7  C   -0.000001  -0.000006   0.000272   0.001607  -0.000009   0.408970
     8  N    0.000779  -0.000901   0.011239  -0.000460  -0.002072   0.000903
     9  C   -0.005968   0.009572  -0.090147  -0.000535   0.009450  -0.000374
    10  C   -0.054485  -0.027587   0.417767  -0.000116   0.000171  -0.000031
    11  C   -0.026059  -0.060576  -0.040763   0.000003   0.000118   0.000018
    12  C    0.497433  -0.026271  -0.067484  -0.000000   0.000001   0.000000
    13  C    4.888575   0.492539  -0.016149   0.000000  -0.000002   0.000000
    14  C    0.492539   4.939082   0.472829  -0.000000   0.000002   0.000000
    15  C   -0.016149   0.472829   5.093202   0.000005  -0.000247  -0.000006
    16  H    0.000000  -0.000000   0.000005   0.624453   0.003625  -0.000023
    17  H   -0.000002   0.000002  -0.000247   0.003625   0.508329   0.000015
    18  H    0.000000   0.000000  -0.000006  -0.000023   0.000015   0.509390
    19  H    0.000003  -0.000003   0.000020   0.000147   0.000022  -0.021423
    20  H    0.000000   0.000000  -0.000006  -0.000023   0.000015  -0.028535
    21  H    0.003571  -0.000951   0.006446   0.000000   0.000005   0.000021
    22  H   -0.032089   0.003259   0.000418  -0.000000   0.000000  -0.000000
    23  H    0.411057  -0.032882   0.003229   0.000000  -0.000000   0.000000
    24  H   -0.033170   0.409889  -0.032694  -0.000000   0.000001   0.000000
    25  H    0.004683  -0.037751   0.403594   0.000001  -0.000317  -0.000000
              19         20         21         22         23         24
     1  O    0.002467  -0.001021  -0.000000  -0.000000   0.000000  -0.000000
     2  C    0.001970  -0.004104  -0.000010  -0.000000   0.000000  -0.000000
     3  C    0.009216   0.000106   0.000705  -0.000002   0.000000  -0.000001
     4  C    0.000132   0.000676  -0.000137  -0.000001   0.000000  -0.000008
     5  N    0.000215   0.000148   0.000822   0.000003   0.000002  -0.000149
     6  C   -0.075147  -0.035872   0.000071  -0.000003   0.000000  -0.000001
     7  C    0.426818   0.408971  -0.000569   0.000002   0.000000  -0.000000
     8  N    0.006832   0.000903   0.021300  -0.000093   0.000001   0.000004
     9  C    0.000306  -0.000374  -0.010041  -0.000287   0.000240  -0.000263
    10  C   -0.001381  -0.000031  -0.020898   0.005125   0.000476   0.006046
    11  C    0.000165   0.000018   0.398657  -0.030998   0.003029   0.000242
    12  C   -0.000002   0.000000  -0.034960   0.408320  -0.032470   0.003602
    13  C    0.000003   0.000000   0.003571  -0.032089   0.411057  -0.033170
    14  C   -0.000003   0.000000  -0.000951   0.003259  -0.032882   0.409889
    15  C    0.000020  -0.000006   0.006446   0.000418   0.003229  -0.032694
    16  H    0.000147  -0.000023   0.000000  -0.000000   0.000000  -0.000000
    17  H    0.000022   0.000015   0.000005   0.000000  -0.000000   0.000001
    18  H   -0.021423  -0.028535   0.000021  -0.000000   0.000000   0.000000
    19  H    0.517966  -0.021423   0.000434  -0.000002   0.000000  -0.000000
    20  H   -0.021423   0.509389   0.000021  -0.000000   0.000000   0.000000
    21  H    0.000434   0.000021   0.465727  -0.003204  -0.000197   0.000066
    22  H   -0.000002  -0.000000  -0.003204   0.506189  -0.003796  -0.000265
    23  H    0.000000   0.000000  -0.000197  -0.003796   0.507382  -0.003868
    24  H   -0.000000   0.000000   0.000066  -0.000265  -0.003868   0.506712
    25  H   -0.000000  -0.000000  -0.000208   0.000065  -0.000183  -0.003566
              25
     1  O    0.000000
     2  C   -0.000003
     3  C    0.000427
     4  C    0.000725
     5  N    0.025952
     6  C    0.000020
     7  C    0.000013
     8  N    0.000834
     9  C   -0.010844
    10  C   -0.026760
    11  C    0.006737
    12  C   -0.001529
    13  C    0.004683
    14  C   -0.037751
    15  C    0.403594
    16  H    0.000001
    17  H   -0.000317
    18  H   -0.000000
    19  H   -0.000000
    20  H   -0.000000
    21  H   -0.000208
    22  H    0.000065
    23  H   -0.000183
    24  H   -0.003566
    25  H    0.467119
 Mulliken charges:
               1
     1  O   -0.301627
     2  C    0.092058
     3  C    0.012452
     4  C   -0.083586
     5  N   -0.269268
     6  C    0.174351
     7  C   -0.466232
     8  N   -0.274018
     9  C    0.292751
    10  C    0.063335
    11  C   -0.184883
    12  C   -0.136052
    13  C   -0.131941
    14  C   -0.134626
    15  C   -0.185122
    16  H    0.097972
    17  H    0.152395
    18  H    0.171144
    19  H    0.152671
    20  H    0.171144
    21  H    0.173329
    22  H    0.147357
    23  H    0.147980
    24  H    0.147424
    25  H    0.170992
 Sum of Mulliken charges =  -0.00000
 Mulliken charges with hydrogens summed into heavy atoms:
               1
     1  O   -0.301627
     2  C    0.190030
     3  C    0.012452
     4  C    0.068809
     5  N   -0.269268
     6  C    0.174351
     7  C    0.028726
     8  N   -0.274018
     9  C    0.292751
    10  C    0.063335
    11  C   -0.011554
    12  C    0.011305
    13  C    0.016039
    14  C    0.012797
    15  C   -0.014130
 Electronic spatial extent (au):  <R**2>=           3919.6022
 Charge=             -0.0000 electrons
 Dipole moment (field-independent basis, Debye):
    X=             -1.6281    Y=             -0.7616    Z=             -0.0000  Tot=              1.7974
 Quadrupole moment (field-independent basis, Debye-Ang):
   XX=            -89.7895   YY=            -79.4301   ZZ=            -89.7344
   XY=             -5.2503   XZ=              0.0004   YZ=              0.0001
 Traceless Quadrupole moment (field-independent basis, Debye-Ang):
   XX=             -3.4715   YY=              6.8879   ZZ=             -3.4164
   XY=             -5.2503   XZ=              0.0004   YZ=              0.0001
 Octapole moment (field-independent basis, Debye-Ang**2):
  XXX=           -128.2113  YYY=              0.7748  ZZZ=             -0.0001  XYY=             13.6128
  XXY=            -18.2751  XXZ=             -0.0001  XZZ=             21.3257  YZZ=              1.1356
  YYZ=             -0.0005  XYZ=              0.0003
 Hexadecapole moment (field-independent basis, Debye-Ang**3):
 XXXX=          -4675.4157 YYYY=           -775.3056 ZZZZ=           -103.7309 XXXY=            -80.2145
 XXXZ=              0.0153 YYYX=            -20.0295 YYYZ=              0.0007 ZZZX=             -0.0016
 ZZZY=             -0.0001 XXYY=           -757.6776 XXZZ=           -789.8231 YYZZ=           -163.0987
 XXYZ=              0.0011 YYXZ=             -0.0000 ZZXY=              6.8787
 N-N= 8.798241073385D+02 E-N=-3.266881647212D+03  KE= 6.445869519386D+02
 Unable to Open any file for archive entry.
 1\1\GINC-COMPUTE-0-33\SP\RM062X\def2TZVP\C12H10N2O1\ZTAN64\14-Aug-2024
 \0\\# M062X/def2tzvp int=(grid=ultrafine) nmr=giao guess=read geom=che
 ck\\pyrmd5.xyz\\0,1\O,0,-4.8808535547,-0.6661290146,0.0863887874\C,0,-
 3.9245371588,-1.419429878,0.132821351\C,0,-2.5105590896,-1.0212111924,
 0.0801990523\C,0,-1.5273863471,-2.0135464096,0.1454237913\N,0,-0.22368
 65755,-1.7643018091,0.106356618\C,0,-2.0475297161,0.3129816671,-0.0335
 952159\C,0,-2.9704678354,1.4908415363,-0.1145809779\N,0,-0.7379544904,
 0.5658374938,-0.0730396819\C,0,0.1256597577,-0.466258244,-0.0029041112
 \C,0,1.5668271847,-0.1496097029,-0.0493141834\C,0,1.996856251,1.181908
 7823,-0.162383231\C,0,3.3558229118,1.4764341152,-0.2058250352\C,0,4.29
 90379961,0.4486161985,-0.1371395599\C,0,3.8772007469,-0.8781416206,-0.
 0245694583\C,0,2.5195419455,-1.1784620829,0.0193183355\H,0,-4.07515131
 93,-2.5183325958,0.2231807037\H,0,-1.8207832073,-3.0601075937,0.233669
 0006\H,0,-3.6185898273,1.536149474,0.7651612097\H,0,-2.3791166281,2.40
 30095748,-0.1963950516\H,0,-3.6439736737,1.3968800744,-0.9710993115\H,
 0,1.2513199798,1.9659570926,-0.2144002284\H,0,3.6814462604,2.508289203
 9,-0.2933381728\H,0,5.3592205171,0.6807464249,-0.1712193404\H,0,4.6085
 741788,-1.6785400633,0.0289638615\H,0,2.1750816937,-2.2017814308,0.106
 4208486\\Version=ES64L-G16RevC.01\State=1-A\HF=-648.0011371\RMSD=2.613
 e-09\Dipole=0.6685932,-0.2301311,0.0086921\Quadrupole=-3.3166655,5.796
 2066,-2.4795411,2.9956625,-0.2286099,-0.712453\PG=C01 [X(C12H10N2O1)]\
 \@
 The archive entry for this job was punched.


 IT IS WELL TO REMEMBER THAT MAN IS A PART OF NATURE AND THAT HIS WORKS,
 WHATEVER THEY MAY BE, ARE NO MORE "UNNATURAL" THAN 
 THE FLIGHT OF AN EAGLE OR THE PASSAGE OF A TORNADO.

                                    -- CHARLES MCCARRY IN "THE GREAT SOUTHWEST"
 Job cpu time:       0 days  0 hours 50 minutes  1.4 seconds.
 Elapsed time:       0 days  0 hours  3 minutes 19.3 seconds.
 File lengths (MBytes):  RWF=    156 Int=      0 D2E=      0 Chk=     26 Scr=      1
 Normal termination of Gaussian 16 at Wed Aug 14 20:37:41 2024.
 
 
-----Kestrel cluster job statistics-----
Time info:

real	15m11.256s
user	237m56.104s
sys	0m28.793s
 
Disk space usage:
26M	/scratch/362995.kestrel.chem.wisc.edu
