 Entering Gaussian System, Link 0=/share/apps/gaussian/g16/g16
 Initial command:
 /share/apps/gaussian/g16/l1.exe "/scratch/362998.kestrel.chem.wisc.edu/Gau-21456.inp" -scrdir="/scratch/362998.kestrel.chem.wisc.edu/"
 Entering Link 1 = /share/apps/gaussian/g16/l1.exe PID=     21457.
  
 Copyright (c) 1988-2019, Gaussian, Inc.  All Rights Reserved.
  
 This is part of the Gaussian(R) 16 program.  It is based on
 the Gaussian(R) 09 system (copyright 2009, Gaussian, Inc.),
 the Gaussian(R) 03 system (copyright 2003, Gaussian, Inc.),
 the Gaussian(R) 98 system (copyright 1998, Gaussian, Inc.),
 the Gaussian(R) 94 system (copyright 1995, Gaussian, Inc.),
 the Gaussian 92(TM) system (copyright 1992, Gaussian, Inc.),
 the Gaussian 90(TM) system (copyright 1990, Gaussian, Inc.),
 the Gaussian 88(TM) system (copyright 1988, Gaussian, Inc.),
 the Gaussian 86(TM) system (copyright 1986, Carnegie Mellon
 University), and the Gaussian 82(TM) system (copyright 1983,
 Carnegie Mellon University). Gaussian is a federally registered
 trademark of Gaussian, Inc.
  
 This software contains proprietary and confidential information,
 including trade secrets, belonging to Gaussian, Inc.
  
 This software is provided under written license and may be
 used, copied, transmitted, or stored only in accord with that
 written license.
  
 The following legend is applicable only to US Government
 contracts under FAR:
  
                    RESTRICTED RIGHTS LEGEND
  
 Use, reproduction and disclosure by the US Government is
 subject to restrictions as set forth in subparagraphs (a)
 and (c) of the Commercial Computer Software - Restricted
 Rights clause in FAR 52.227-19.
  
 Gaussian, Inc.
 340 Quinnipiac St., Bldg. 40, Wallingford CT 06492
  
  
 ---------------------------------------------------------------
 Warning -- This program may not be used in any manner that
 competes with the business of Gaussian, Inc. or will provide
 assistance to any competitor of Gaussian, Inc.  The licensee
 of this program is prohibited from giving any competitor of
 Gaussian, Inc. access to this program.  By using this program,
 the user acknowledges that Gaussian, Inc. is engaged in the
 business of creating and licensing software in the field of
 computational chemistry and represents and warrants to the
 licensee that it is not a competitor of Gaussian, Inc. and that
 it will not use this program in any manner prohibited above.
 ---------------------------------------------------------------
  

 Cite this work as:
 Gaussian 16, Revision C.01,
 M. J. Frisch, G. W. Trucks, H. B. Schlegel, G. E. Scuseria, 
 M. A. Robb, J. R. Cheeseman, G. Scalmani, V. Barone, 
 G. A. Petersson, H. Nakatsuji, X. Li, M. Caricato, A. V. Marenich, 
 J. Bloino, B. G. Janesko, R. Gomperts, B. Mennucci, H. P. Hratchian, 
 J. V. Ortiz, A. F. Izmaylov, J. L. Sonnenberg, D. Williams-Young, 
 F. Ding, F. Lipparini, F. Egidi, J. Goings, B. Peng, A. Petrone, 
 T. Henderson, D. Ranasinghe, V. G. Zakrzewski, J. Gao, N. Rega, 
 G. Zheng, W. Liang, M. Hada, M. Ehara, K. Toyota, R. Fukuda, 
 J. Hasegawa, M. Ishida, T. Nakajima, Y. Honda, O. Kitao, H. Nakai, 
 T. Vreven, K. Throssell, J. A. Montgomery, Jr., J. E. Peralta, 
 F. Ogliaro, M. J. Bearpark, J. J. Heyd, E. N. Brothers, K. N. Kudin, 
 V. N. Staroverov, T. A. Keith, R. Kobayashi, J. Normand, 
 K. Raghavachari, A. P. Rendell, J. C. Burant, S. S. Iyengar, 
 J. Tomasi, M. Cossi, J. M. Millam, M. Klene, C. Adamo, R. Cammi, 
 J. W. Ochterski, R. L. Martin, K. Morokuma, O. Farkas, 
 J. B. Foresman, and D. J. Fox, Gaussian, Inc., Wallingford CT, 2019.
 
 ******************************************
 Gaussian 16:  ES64L-G16RevC.01  3-Jul-2019
                14-Aug-2024 
 ******************************************
 %nprocs=16
 Will use up to   16 processors via shared memory.
 %mem=16GB
 %chk=pyrz1_conf-1.chk
 ----------------------------------------------------------------------
 # B3LYP/6-31G(d,p) symmetry=loose empiricaldispersion=GD3BJ int=(grid=
 ultrafine) opt freq=noraman
 ----------------------------------------------------------------------
 1/18=20,19=15,26=4,38=1/1,3;
 2/9=110,12=2,17=4,18=3,40=1/2;
 3/5=1,6=6,7=101,11=2,25=1,30=1,71=1,74=-5,75=-5,124=41/1,2,3;
 4//1;
 5/5=2,38=5/2;
 6/7=2,8=2,9=2,10=2,28=1/1;
 7//1,2,3,16;
 1/18=20,19=15,26=4/3(2);
 2/9=110/2;
 99//99;
 2/9=110/2;
 3/5=1,6=6,7=101,11=2,25=1,30=1,71=1,74=-5,75=-5,124=41/1,2,3;
 4/5=5,16=3,69=1/1;
 5/5=2,38=5/2;
 7//1,2,3,16;
 1/18=20,19=15,26=4/3(-5);
 2/9=110/2;
 6/7=2,8=2,9=2,10=2,19=2,28=1/1;
 99/9=1/99;
 ---------
 pyrz1.xyz
 ---------
 Symbolic Z-matrix:
 Charge =  0 Multiplicity = 1
 Cl                    3.6209   -1.9227    1.077 
 C                     2.1284   -1.2121    0.5706 
 C                     2.1043    0.0198   -0.101 
 C                     3.3689    0.801    -0.4238 
 N                     0.9323    0.5831   -0.5015 
 C                    -0.2265   -0.0842   -0.2322 
 C                    -1.5303    0.5111   -0.6607 
 O                    -1.4023    1.7018   -1.2977 
 C                    -2.5517    2.3935   -1.7663 
 O                    -2.6171   -0.0338   -0.452 
 C                    -0.1924   -1.3152    0.4397 
 N                     0.976    -1.88      0.8408 
 H                     4.0294    0.205    -1.0543 
 H                     3.157     1.7344   -0.9479 
 H                     3.905     1.0461    0.4937 
 H                    -2.2553    3.3249   -2.2486 
 H                    -3.1007    1.7933   -2.4937 
 H                    -3.2256    2.6362   -0.943 
 H                    -1.0979   -1.8634    0.6647 
 

 GradGradGradGradGradGradGradGradGradGradGradGradGradGradGradGradGradGrad
 Berny optimization.
 Initialization pass.
                           ----------------------------
                           !    Initial Parameters    !
                           ! (Angstroms and Degrees)  !
 --------------------------                            --------------------------
 ! Name  Definition              Value          Derivative Info.                !
 --------------------------------------------------------------------------------
 ! R1    R(1,2)                  1.7289         estimate D2E/DX2                !
 ! R2    R(2,3)                  1.4033         estimate D2E/DX2                !
 ! R3    R(2,12)                 1.3591         estimate D2E/DX2                !
 ! R4    R(3,4)                  1.5211         estimate D2E/DX2                !
 ! R5    R(3,5)                  1.3606         estimate D2E/DX2                !
 ! R6    R(4,13)                 1.0904         estimate D2E/DX2                !
 ! R7    R(4,14)                 1.0912         estimate D2E/DX2                !
 ! R8    R(4,15)                 1.0905         estimate D2E/DX2                !
 ! R9    R(5,6)                  1.364          estimate D2E/DX2                !
 ! R10   R(6,7)                  1.496          estimate D2E/DX2                !
 ! R11   R(6,11)                 1.4028         estimate D2E/DX2                !
 ! R12   R(7,8)                  1.3564         estimate D2E/DX2                !
 ! R13   R(7,10)                 1.2335         estimate D2E/DX2                !
 ! R14   R(8,9)                  1.421          estimate D2E/DX2                !
 ! R15   R(9,16)                 1.0899         estimate D2E/DX2                !
 ! R16   R(9,17)                 1.0912         estimate D2E/DX2                !
 ! R17   R(9,18)                 1.0913         estimate D2E/DX2                !
 ! R18   R(11,12)                1.3583         estimate D2E/DX2                !
 ! R19   R(11,19)                1.0822         estimate D2E/DX2                !
 ! A1    A(1,2,3)              121.0533         estimate D2E/DX2                !
 ! A2    A(1,2,12)             118.1496         estimate D2E/DX2                !
 ! A3    A(3,2,12)             120.7971         estimate D2E/DX2                !
 ! A4    A(2,3,4)              122.5575         estimate D2E/DX2                !
 ! A5    A(2,3,5)              121.2724         estimate D2E/DX2                !
 ! A6    A(4,3,5)              116.1702         estimate D2E/DX2                !
 ! A7    A(3,4,13)             110.2178         estimate D2E/DX2                !
 ! A8    A(3,4,14)             112.3199         estimate D2E/DX2                !
 ! A9    A(3,4,15)             110.2174         estimate D2E/DX2                !
 ! A10   A(13,4,14)            107.9048         estimate D2E/DX2                !
 ! A11   A(13,4,15)            108.1522         estimate D2E/DX2                !
 ! A12   A(14,4,15)            107.8957         estimate D2E/DX2                !
 ! A13   A(3,5,6)              118.1067         estimate D2E/DX2                !
 ! A14   A(5,6,7)              119.2868         estimate D2E/DX2                !
 ! A15   A(5,6,11)             120.2111         estimate D2E/DX2                !
 ! A16   A(7,6,11)             120.5021         estimate D2E/DX2                !
 ! A17   A(6,7,8)              113.6775         estimate D2E/DX2                !
 ! A18   A(6,7,10)             122.9309         estimate D2E/DX2                !
 ! A19   A(8,7,10)             123.3916         estimate D2E/DX2                !
 ! A20   A(7,8,9)              120.3871         estimate D2E/DX2                !
 ! A21   A(8,9,16)             109.9945         estimate D2E/DX2                !
 ! A22   A(8,9,17)             111.0413         estimate D2E/DX2                !
 ! A23   A(8,9,18)             111.0376         estimate D2E/DX2                !
 ! A24   A(16,9,17)            108.1719         estimate D2E/DX2                !
 ! A25   A(16,9,18)            108.1632         estimate D2E/DX2                !
 ! A26   A(17,9,18)            108.3335         estimate D2E/DX2                !
 ! A27   A(6,11,12)            121.8173         estimate D2E/DX2                !
 ! A28   A(6,11,19)            121.5852         estimate D2E/DX2                !
 ! A29   A(12,11,19)           116.5975         estimate D2E/DX2                !
 ! A30   A(2,12,11)            117.7954         estimate D2E/DX2                !
 ! D1    D(1,2,3,4)             -0.0033         estimate D2E/DX2                !
 ! D2    D(1,2,3,5)           -179.9986         estimate D2E/DX2                !
 ! D3    D(12,2,3,4)          -179.998          estimate D2E/DX2                !
 ! D4    D(12,2,3,5)             0.0068         estimate D2E/DX2                !
 ! D5    D(1,2,12,11)         -179.9983         estimate D2E/DX2                !
 ! D6    D(3,2,12,11)           -0.0034         estimate D2E/DX2                !
 ! D7    D(2,3,4,13)            59.6635         estimate D2E/DX2                !
 ! D8    D(2,3,4,14)          -179.982          estimate D2E/DX2                !
 ! D9    D(2,3,4,15)           -59.6392         estimate D2E/DX2                !
 ! D10   D(5,3,4,13)          -120.341          estimate D2E/DX2                !
 ! D11   D(5,3,4,14)             0.0135         estimate D2E/DX2                !
 ! D12   D(5,3,4,15)           120.3563         estimate D2E/DX2                !
 ! D13   D(2,3,5,6)             -0.009          estimate D2E/DX2                !
 ! D14   D(4,3,5,6)            179.9954         estimate D2E/DX2                !
 ! D15   D(3,5,6,7)            179.9998         estimate D2E/DX2                !
 ! D16   D(3,5,6,11)             0.0083         estimate D2E/DX2                !
 ! D17   D(5,6,7,8)              0.0104         estimate D2E/DX2                !
 ! D18   D(5,6,7,10)          -179.9944         estimate D2E/DX2                !
 ! D19   D(11,6,7,8)          -179.998          estimate D2E/DX2                !
 ! D20   D(11,6,7,10)           -0.0028         estimate D2E/DX2                !
 ! D21   D(5,6,11,12)           -0.0053         estimate D2E/DX2                !
 ! D22   D(5,6,11,19)          179.9991         estimate D2E/DX2                !
 ! D23   D(7,6,11,12)         -179.9968         estimate D2E/DX2                !
 ! D24   D(7,6,11,19)            0.0076         estimate D2E/DX2                !
 ! D25   D(6,7,8,9)            179.9953         estimate D2E/DX2                !
 ! D26   D(10,7,8,9)             0.0001         estimate D2E/DX2                !
 ! D27   D(7,8,9,16)           179.9915         estimate D2E/DX2                !
 ! D28   D(7,8,9,17)           -60.302          estimate D2E/DX2                !
 ! D29   D(7,8,9,18)            60.2983         estimate D2E/DX2                !
 ! D30   D(6,11,12,2)            0.0028         estimate D2E/DX2                !
 ! D31   D(19,11,12,2)         179.9986         estimate D2E/DX2                !
 --------------------------------------------------------------------------------
 Trust Radius=3.00D-01 FncErr=1.00D-07 GrdErr=1.00D-06 EigMax=2.50D+02 EigMin=1.00D-04
 Number of steps in this run=     90 maximum allowed number of steps=    114.
 GradGradGradGradGradGradGradGradGradGradGradGradGradGradGradGradGradGrad

                          Input orientation:                          
 ---------------------------------------------------------------------
 Center     Atomic      Atomic             Coordinates (Angstroms)
 Number     Number       Type             X           Y           Z
 ---------------------------------------------------------------------
      1         17           0        3.620900   -1.922700    1.077000
      2          6           0        2.128400   -1.212100    0.570600
      3          6           0        2.104300    0.019800   -0.101000
      4          6           0        3.368900    0.801000   -0.423800
      5          7           0        0.932300    0.583100   -0.501500
      6          6           0       -0.226500   -0.084200   -0.232200
      7          6           0       -1.530300    0.511100   -0.660700
      8          8           0       -1.402300    1.701800   -1.297700
      9          6           0       -2.551700    2.393500   -1.766300
     10          8           0       -2.617100   -0.033800   -0.452000
     11          6           0       -0.192400   -1.315200    0.439700
     12          7           0        0.976000   -1.880000    0.840800
     13          1           0        4.029400    0.205000   -1.054300
     14          1           0        3.157000    1.734400   -0.947900
     15          1           0        3.905000    1.046100    0.493700
     16          1           0       -2.255300    3.324900   -2.248600
     17          1           0       -3.100700    1.793300   -2.493700
     18          1           0       -3.225600    2.636200   -0.943000
     19          1           0       -1.097900   -1.863400    0.664700
 ---------------------------------------------------------------------
                    Distance matrix (angstroms):
                    1          2          3          4          5
     1  Cl   0.000000
     2  C    1.728858   0.000000
     3  C    2.731495   1.403284   0.000000
     4  C    3.120007   2.565198   1.521081   0.000000
     5  N    3.999908   2.408899   1.360622   2.447557   0.000000
     6  C    4.460558   2.731703   2.336805   3.707720   1.364049
     7  C    5.956328   4.227482   3.710115   4.913484   2.468791
     8  O    6.633908   4.944411   4.069086   4.933507   2.708465
     9  C    8.050772   6.353329   5.485072   6.276294   4.124988
    10  O    6.694657   4.995385   4.734733   6.043996   3.602951
    11  C    3.913625   2.326774   2.710980   4.231642   2.398823
    12  N    2.655769   1.359089   2.401934   3.809586   2.805448
    13  H    3.039148   2.874417   2.156175   1.090416   3.168687
    14  H    4.205925   3.470695   2.182950   1.091246   2.544416
    15  H    3.038869   2.874315   2.156265   1.090543   3.168870
    16  H    8.551412   6.910071   5.877243   6.428965   4.553089
    17  H    8.469856   6.765046   5.996861   6.864756   4.658169
    18  H    8.469860   6.765036   5.996861   6.864762   4.658141
    19  H    4.737149   3.292728   3.792997   5.313771   3.386310
                    6          7          8          9         10
     6  C    0.000000
     7  C    1.495957   0.000000
     8  O    2.389057   1.356436   0.000000
     9  C    3.728138   2.410195   1.420970   0.000000
    10  O    2.401212   1.233534   2.281064   2.761059   0.000000
    11  C    1.402845   2.517187   3.685744   4.918047   2.883797
    12  N    2.412930   3.775368   4.801956   6.124087   4.241480
    13  H    4.344211   5.582014   5.639417   6.971897   6.678005
    14  H    3.907378   4.852806   4.572815   5.804606   6.059099
    15  H    4.344399   5.582235   5.639724   6.972235   6.678197
    16  H    4.450153   3.311272   2.065496   1.089941   3.826165
    17  H    4.111011   2.733145   2.079267   1.091216   2.782212
    18  H    4.111011   2.733091   2.079264   1.091269   2.782131
    19  H    2.174700   2.753526   4.080971   5.113169   2.627246
                   11         12         13         14         15
    11  C    0.000000
    12  N    1.358322   0.000000
    13  H    4.729338   4.154742   0.000000
    14  H    4.737507   4.584768   1.763935   0.000000
    15  H    4.729412   4.154706   1.766134   1.763936   0.000000
    16  H    5.745698   6.861244   7.117414   5.789171   7.117755
    17  H    5.169702   6.421176   7.445327   6.446067   7.652627
    18  H    5.169693   6.421172   7.652329   6.445995   7.445669
    19  H    1.082164   2.081429   5.789857   5.800760   5.789943
                   16         17         18         19
    16  H    0.000000
    17  H    1.766515   0.000000
    18  H    1.766460   1.769393   0.000000
    19  H    6.061794   5.230502   5.230507   0.000000
 Stoichiometry    C7H7ClN2O2
 Framework group  C1[X(C7H7ClN2O2)]
 Deg. of freedom    51
 Full point group                 C1      NOp   1
 Largest Abelian subgroup         C1      NOp   1
 Largest concise Abelian subgroup C1      NOp   1
                         Standard orientation:                         
 ---------------------------------------------------------------------
 Center     Atomic      Atomic             Coordinates (Angstroms)
 Number     Number       Type             X           Y           Z
 ---------------------------------------------------------------------
      1         17           0       -3.659138   -0.283611    0.000020
      2          6           0       -1.930769   -0.324707   -0.000026
      3          6           0       -1.178534    0.859923    0.000003
      4          6           0       -1.822023    2.238185    0.000004
      5          7           0        0.181817    0.832781   -0.000062
      6          6           0        0.800312   -0.382988    0.000031
      7          6           0        2.295040   -0.443626   -0.000041
      8          8           0        2.889676    0.775524    0.000027
      9          6           0        4.306484    0.884204    0.000071
     10          8           0        2.923104   -1.505295   -0.000066
     11          6           0        0.039862   -1.561838    0.000016
     12          7           0       -1.318250   -1.537945    0.000016
     13          1           0       -2.449748    2.360995    0.883115
     14          1           0       -1.082643    3.040765   -0.000289
     15          1           0       -2.450120    2.360863   -0.883019
     16          1           0        4.599739    1.933953   -0.000028
     17          1           0        4.735693    0.411039    0.884744
     18          1           0        4.735705    0.411015   -0.884649
     19          1           0        0.507272   -2.537854    0.000073
 ---------------------------------------------------------------------
 Rotational constants (GHZ):           2.1192960           0.4074393           0.3432010
 Standard basis: 6-31G(d,p) (6D, 7F)
 There are   219 symmetry adapted cartesian basis functions of A   symmetry.
 There are   219 symmetry adapted basis functions of A   symmetry.
   219 basis functions,   409 primitive gaussians,   219 cartesian basis functions
    48 alpha electrons       48 beta electrons
       nuclear repulsion energy       749.9937671339 Hartrees.
 NAtoms=   19 NActive=   19 NUniq=   19 SFac= 1.00D+00 NAtFMM=   60 NAOKFM=F Big=F
 Integral buffers will be    131072 words long.
 Raffenetti 2 integral format.
 Two-electron integral symmetry is turned on.
 Nuclear repulsion after empirical dispersion term =      749.9582715761 Hartrees.
 One-electron integrals computed using PRISM.
 NBasis=   219 RedAO= T EigKep=  1.22D-03  NBF=   219
 NBsUse=   219 1.00D-06 EigRej= -1.00D+00 NBFU=   219
 ExpMin= 1.43D-01 ExpMax= 2.52D+04 ExpMxC= 3.78D+03 IAcc=3 IRadAn=         5 AccDes= 0.00D+00
 Harris functional with IExCor=  402 and IRadAn=       5 diagonalized for initial guess.
 HarFok:  IExCor=  402 AccDes= 0.00D+00 IRadAn=         5 IDoV= 1 UseB2=F ITyADJ=14
 ICtDFT=  3500011 ScaDFX=  1.000000  1.000000  1.000000  1.000000
 FoFCou: FMM=F IPFlag=           0 FMFlag=      100000 FMFlg1=           0
         NFxFlg=           0 DoJE=T BraDBF=F KetDBF=T FulRan=T
         wScrn=  0.000000 ICntrl=       500 IOpCl=  0 I1Cent=   200000004 NGrid=           0
         NMat0=    1 NMatS0=      1 NMatT0=    0 NMatD0=    1 NMtDS0=    0 NMtDT0=    0
 Petite list used in FoFCou.
 Requested convergence on RMS density matrix=1.00D-08 within 128 cycles.
 Requested convergence on MAX density matrix=1.00D-06.
 Requested convergence on             energy=1.00D-06.
 No special actions if energy rises.
 Integral accuracy reduced to 1.0D-05 until final iterations.
 Initial convergence to 1.0D-05 achieved.  Increase integral accuracy.
 SCF Done:  E(RB3LYP) =  -991.147908663     A.U. after   15 cycles
            NFock= 15  Conv=0.53D-08     -V/T= 2.0068

 **********************************************************************

            Population analysis using the SCF Density.

 **********************************************************************

 Orbital symmetries:
       Occupied  (A) (A) (A) (A) (A) (A) (A) (A) (A) (A) (A) (A)
                 (A) (A) (A) (A) (A) (A) (A) (A) (A) (A) (A) (A)
                 (A) (A) (A) (A) (A) (A) (A) (A) (A) (A) (A) (A)
                 (A) (A) (A) (A) (A) (A) (A) (A) (A) (A) (A) (A)
       Virtual   (A) (A) (A) (A) (A) (A) (A) (A) (A) (A) (A) (A)
                 (A) (A) (A) (A) (A) (A) (A) (A) (A) (A) (A) (A)
                 (A) (A) (A) (A) (A) (A) (A) (A) (A) (A) (A) (A)
                 (A) (A) (A) (A) (A) (A) (A) (A) (A) (A) (A) (A)
                 (A) (A) (A) (A) (A) (A) (A) (A) (A) (A) (A) (A)
                 (A) (A) (A) (A) (A) (A) (A) (A) (A) (A) (A) (A)
                 (A) (A) (A) (A) (A) (A) (A) (A) (A) (A) (A) (A)
                 (A) (A) (A) (A) (A) (A) (A) (A) (A) (A) (A) (A)
                 (A) (A) (A) (A) (A) (A) (A) (A) (A) (A) (A) (A)
                 (A) (A) (A) (A) (A) (A) (A) (A) (A) (A) (A) (A)
                 (A) (A) (A) (A) (A) (A) (A) (A) (A) (A) (A) (A)
                 (A) (A) (A) (A) (A) (A) (A) (A) (A) (A) (A) (A)
                 (A) (A) (A) (A) (A) (A) (A) (A) (A) (A) (A) (A)
                 (A) (A) (A) (A) (A) (A) (A) (A) (A) (A) (A) (A)
                 (A) (A) (A)
 The electronic state is 1-A.
 Alpha  occ. eigenvalues -- -101.57188 -19.20173 -19.14865 -14.37510 -14.37184
 Alpha  occ. eigenvalues --  -10.33485 -10.30753 -10.26807 -10.26257 -10.25711
 Alpha  occ. eigenvalues --  -10.24847 -10.20007  -9.48858  -7.25256  -7.24307
 Alpha  occ. eigenvalues --   -7.24214  -1.10620  -1.01850  -0.99782  -0.92647
 Alpha  occ. eigenvalues --   -0.88106  -0.80441  -0.74534  -0.73058  -0.67380
 Alpha  occ. eigenvalues --   -0.64975  -0.58480  -0.55363  -0.52891  -0.51063
 Alpha  occ. eigenvalues --   -0.48881  -0.47391  -0.46346  -0.44853  -0.44153
 Alpha  occ. eigenvalues --   -0.42090  -0.41646  -0.40396  -0.40121  -0.36459
 Alpha  occ. eigenvalues --   -0.35769  -0.34255  -0.32749  -0.31376  -0.30686
 Alpha  occ. eigenvalues --   -0.29207  -0.27427  -0.26842
 Alpha virt. eigenvalues --   -0.08535  -0.05578   0.02428   0.02633   0.10782
 Alpha virt. eigenvalues --    0.11064   0.11582   0.12122   0.13795   0.14779
 Alpha virt. eigenvalues --    0.15549   0.16871   0.17271   0.19187   0.20257
 Alpha virt. eigenvalues --    0.24356   0.26714   0.28167   0.29477   0.33015
 Alpha virt. eigenvalues --    0.36012   0.37477   0.39019   0.41279   0.43793
 Alpha virt. eigenvalues --    0.45075   0.46051   0.48919   0.50541   0.51863
 Alpha virt. eigenvalues --    0.51957   0.53500   0.54038   0.55718   0.56881
 Alpha virt. eigenvalues --    0.57100   0.59068   0.60987   0.61414   0.63403
 Alpha virt. eigenvalues --    0.64338   0.67826   0.70101   0.71122   0.71644
 Alpha virt. eigenvalues --    0.75437   0.76699   0.78523   0.80296   0.80803
 Alpha virt. eigenvalues --    0.82342   0.82996   0.83359   0.84309   0.84729
 Alpha virt. eigenvalues --    0.85536   0.86727   0.86996   0.89561   0.92384
 Alpha virt. eigenvalues --    0.92907   0.94671   0.95874   0.95946   0.97649
 Alpha virt. eigenvalues --    0.97750   1.01073   1.04622   1.05838   1.07577
 Alpha virt. eigenvalues --    1.08181   1.11109   1.21210   1.21639   1.25083
 Alpha virt. eigenvalues --    1.27206   1.29104   1.30074   1.30504   1.31567
 Alpha virt. eigenvalues --    1.35283   1.40654   1.41303   1.44182   1.46611
 Alpha virt. eigenvalues --    1.47428   1.52620   1.54205   1.58140   1.61966
 Alpha virt. eigenvalues --    1.65592   1.68467   1.71248   1.73398   1.74058
 Alpha virt. eigenvalues --    1.76965   1.79059   1.80477   1.82035   1.85302
 Alpha virt. eigenvalues --    1.85519   1.87529   1.91183   1.92298   1.94379
 Alpha virt. eigenvalues --    1.99314   2.00637   2.01469   2.02322   2.03090
 Alpha virt. eigenvalues --    2.04625   2.04892   2.07273   2.09860   2.12518
 Alpha virt. eigenvalues --    2.13387   2.16434   2.16697   2.17221   2.22866
 Alpha virt. eigenvalues --    2.27771   2.28262   2.30335   2.34246   2.40020
 Alpha virt. eigenvalues --    2.40381   2.42561   2.46240   2.47349   2.50922
 Alpha virt. eigenvalues --    2.52450   2.57016   2.57589   2.61018   2.62455
 Alpha virt. eigenvalues --    2.63772   2.65496   2.69188   2.70747   2.74528
 Alpha virt. eigenvalues --    2.76140   2.77772   2.84660   2.84875   2.85496
 Alpha virt. eigenvalues --    2.89430   2.93624   2.96644   3.03942   3.13746
 Alpha virt. eigenvalues --    3.17368   3.19400   3.21407   3.29173   3.40740
 Alpha virt. eigenvalues --    3.41805   3.43295   3.44354   3.55083   3.90175
 Alpha virt. eigenvalues --    4.00329   4.02021   4.10447   4.25641   4.32147
 Alpha virt. eigenvalues --    4.36282   4.37106   4.44029   4.52406   4.54043
 Alpha virt. eigenvalues --    4.62600
          Condensed to atoms (all electrons):
               1          2          3          4          5          6
     1  Cl  16.816896   0.270868  -0.080533   0.004286   0.003007   0.000567
     2  C    0.270868   5.096313   0.389780  -0.080768  -0.041653  -0.036113
     3  C   -0.080533   0.389780   4.759072   0.369466   0.442358  -0.034065
     4  C    0.004286  -0.080768   0.369466   5.034473  -0.080850   0.007264
     5  N    0.003007  -0.041653   0.442358  -0.080850   6.927208   0.368280
     6  C    0.000567  -0.036113  -0.034065   0.007264   0.368280   5.031927
     7  C    0.000023   0.000294   0.005960  -0.000057  -0.059918   0.284683
     8  O   -0.000000  -0.000018   0.000082  -0.000000   0.002751  -0.079656
     9  C    0.000000   0.000001   0.000011  -0.000000  -0.000285   0.006844
    10  O   -0.000000  -0.000006  -0.000056   0.000000   0.002051  -0.085196
    11  C    0.003697  -0.063154  -0.031534   0.000378  -0.062904   0.418464
    12  N   -0.073689   0.390528  -0.040750   0.004309  -0.034478  -0.024713
    13  H    0.001653  -0.002882  -0.026152   0.374730   0.001668  -0.000165
    14  H    0.000214   0.005574  -0.020751   0.365583   0.004051  -0.000059
    15  H    0.001652  -0.002883  -0.026154   0.374715   0.001669  -0.000165
    16  H   -0.000000   0.000000  -0.000001  -0.000000  -0.000017   0.000064
    17  H    0.000000  -0.000000   0.000001   0.000000   0.000002  -0.000295
    18  H    0.000000  -0.000000   0.000001   0.000000   0.000002  -0.000295
    19  H   -0.000103   0.004988   0.000320   0.000022   0.003750  -0.055273
               7          8          9         10         11         12
     1  Cl   0.000023  -0.000000   0.000000  -0.000000   0.003697  -0.073689
     2  C    0.000294  -0.000018   0.000001  -0.000006  -0.063154   0.390528
     3  C    0.005960   0.000082   0.000011  -0.000056  -0.031534  -0.040750
     4  C   -0.000057  -0.000000  -0.000000   0.000000   0.000378   0.004309
     5  N   -0.059918   0.002751  -0.000285   0.002051  -0.062904  -0.034478
     6  C    0.284683  -0.079656   0.006844  -0.085196   0.418464  -0.024713
     7  C    4.427061   0.264036  -0.018991   0.543856  -0.056514   0.004424
     8  O    0.264036   8.219372   0.220289  -0.085301   0.003746  -0.000019
     9  C   -0.018991   0.220289   4.711295   0.005079  -0.000133   0.000000
    10  O    0.543856  -0.085301   0.005079   8.080244   0.006224   0.000309
    11  C   -0.056514   0.003746  -0.000133   0.006224   4.876869   0.421460
    12  N    0.004424  -0.000019   0.000000   0.000309   0.421460   6.805414
    13  H    0.000002  -0.000000   0.000000  -0.000000   0.000021  -0.000023
    14  H   -0.000041   0.000002  -0.000000   0.000000   0.000021  -0.000085
    15  H    0.000002  -0.000000   0.000000  -0.000000   0.000021  -0.000023
    16  H    0.003360  -0.029043   0.392038   0.000307   0.000001  -0.000000
    17  H   -0.004842  -0.031542   0.383154   0.005197  -0.000001   0.000000
    18  H   -0.004845  -0.031543   0.383145   0.005198  -0.000001   0.000000
    19  H    0.000615   0.000142  -0.000006   0.009209   0.382875  -0.045124
              13         14         15         16         17         18
     1  Cl   0.001653   0.000214   0.001652  -0.000000   0.000000   0.000000
     2  C   -0.002882   0.005574  -0.002883   0.000000  -0.000000  -0.000000
     3  C   -0.026152  -0.020751  -0.026154  -0.000001   0.000001   0.000001
     4  C    0.374730   0.365583   0.374715  -0.000000   0.000000   0.000000
     5  N    0.001668   0.004051   0.001669  -0.000017   0.000002   0.000002
     6  C   -0.000165  -0.000059  -0.000165   0.000064  -0.000295  -0.000295
     7  C    0.000002  -0.000041   0.000002   0.003360  -0.004842  -0.004845
     8  O   -0.000000   0.000002  -0.000000  -0.029043  -0.031542  -0.031543
     9  C    0.000000  -0.000000   0.000000   0.392038   0.383154   0.383145
    10  O   -0.000000   0.000000  -0.000000   0.000307   0.005197   0.005198
    11  C    0.000021   0.000021   0.000021   0.000001  -0.000001  -0.000001
    12  N   -0.000023  -0.000085  -0.000023  -0.000000   0.000000   0.000000
    13  H    0.566441  -0.025452  -0.029021   0.000000  -0.000000  -0.000000
    14  H   -0.025452   0.554723  -0.025458   0.000000  -0.000000  -0.000000
    15  H   -0.029021  -0.025458   0.566490   0.000000  -0.000000  -0.000000
    16  H    0.000000   0.000000   0.000000   0.576732  -0.036169  -0.036174
    17  H   -0.000000  -0.000000  -0.000000  -0.036169   0.591879  -0.037413
    18  H   -0.000000  -0.000000  -0.000000  -0.036174  -0.037413   0.591908
    19  H   -0.000000  -0.000001  -0.000000  -0.000000  -0.000001  -0.000001
              19
     1  Cl  -0.000103
     2  C    0.004988
     3  C    0.000320
     4  C    0.000022
     5  N    0.003750
     6  C   -0.055273
     7  C    0.000615
     8  O    0.000142
     9  C   -0.000006
    10  O    0.009209
    11  C    0.382875
    12  N   -0.045124
    13  H   -0.000000
    14  H   -0.000001
    15  H   -0.000000
    16  H   -0.000000
    17  H   -0.000001
    18  H   -0.000001
    19  H    0.549718
 Mulliken charges:
               1
     1  Cl   0.051463
     2  C    0.069131
     3  C    0.292947
     4  C   -0.373550
     5  N   -0.476694
     6  C    0.197901
     7  C    0.610893
     8  O   -0.453297
     9  C   -0.082441
    10  O   -0.487113
    11  C    0.100465
    12  N   -0.407541
    13  H    0.139180
    14  H    0.141679
    15  H    0.139155
    16  H    0.128903
    17  H    0.130030
    18  H    0.130018
    19  H    0.148872
 Sum of Mulliken charges =  -0.00000
 Mulliken charges with hydrogens summed into heavy atoms:
               1
     1  Cl   0.051463
     2  C    0.069131
     3  C    0.292947
     4  C    0.046464
     5  N   -0.476694
     6  C    0.197901
     7  C    0.610893
     8  O   -0.453297
     9  C    0.306509
    10  O   -0.487113
    11  C    0.249337
    12  N   -0.407541
 Electronic spatial extent (au):  <R**2>=           2978.2742
 Charge=             -0.0000 electrons
 Dipole moment (field-independent basis, Debye):
    X=              0.6097    Y=              2.5669    Z=              0.0002  Tot=              2.6383
 Quadrupole moment (field-independent basis, Debye-Ang):
   XX=            -68.9082   YY=            -77.2504   ZZ=            -73.6586
   XY=              1.5576   XZ=              0.0005   YZ=             -0.0003
 Traceless Quadrupole moment (field-independent basis, Debye-Ang):
   XX=              4.3642   YY=             -3.9780   ZZ=             -0.3862
   XY=              1.5576   XZ=              0.0005   YZ=             -0.0003
 Octapole moment (field-independent basis, Debye-Ang**2):
  XXX=             58.1914  YYY=             11.3949  ZZZ=              0.0006  XYY=             -3.0137
  XXY=             44.3619  XXZ=              0.0023  XZZ=              5.1513  YZZ=             -0.2369
  YYZ=              0.0001  XYZ=             -0.0014
 Hexadecapole moment (field-independent basis, Debye-Ang**3):
 XXXX=          -2675.9689 YYYY=           -671.2540 ZZZZ=            -82.7011 XXXY=            125.3419
 XXXZ=              0.0073 YYYX=             -2.4464 YYYZ=             -0.0035 ZZZX=             -0.0010
 ZZZY=              0.0016 XXYY=           -637.9981 XXZZ=           -502.0732 YYZZ=           -129.3803
 XXYZ=             -0.0034 YYXZ=             -0.0003 ZZXY=             -4.7355
 N-N= 7.499582715761D+02 E-N=-3.830403265980D+03  KE= 9.844977661238D+02
 Calling FoFJK, ICntrl=      2127 FMM=F ISym2X=0 I1Cent= 0 IOpClX= 0 NMat=1 NMatS=1 NMatT=0.
 ***** Axes restored to original set *****
 -------------------------------------------------------------------
 Center     Atomic                   Forces (Hartrees/Bohr)
 Number     Number              X              Y              Z
 -------------------------------------------------------------------
      1       17           0.002327192   -0.002874910    0.001751561
      2        6          -0.046670326   -0.007736510    0.000432170
      3        6          -0.004501331    0.026859861   -0.014946157
      4        6          -0.006155945   -0.004159159    0.001851221
      5        7          -0.001186084   -0.020691292    0.011134319
      6        6           0.025652801    0.006980218   -0.001704209
      7        6          -0.034909784    0.002392950   -0.004125526
      8        8           0.019526402   -0.007130603    0.005446492
      9        6          -0.015167161   -0.004548774    0.001300650
     10        8           0.026190604    0.010664301   -0.003685153
     11        6           0.019576463   -0.003213615    0.003312480
     12        7           0.009903038    0.016172206   -0.007985897
     13        1           0.003155207   -0.002154835    0.000298367
     14        1          -0.006164475   -0.002219853    0.000700945
     15        1           0.002976181   -0.001240602    0.001962590
     16        1           0.009373483   -0.002140597    0.001909235
     17        1          -0.000960788   -0.003110438   -0.000005590
     18        1          -0.001147270   -0.001771462    0.002455418
     19        1          -0.001818209   -0.000076886   -0.000102916
 -------------------------------------------------------------------
 Cartesian Forces:  Max     0.046670326 RMS     0.012089953

 GradGradGradGradGradGradGradGradGradGradGradGradGradGradGradGradGradGrad
 Berny optimization.
 FormGI is forming the generalized inverse of G from B-inverse, IUseBI=4.
 Internal  Forces:  Max     0.032686444 RMS     0.008828785
 Search for a local minimum.
 Step number   1 out of a maximum of   90
 All quantities printed in internal units (Hartrees-Bohrs-Radians)
 Mixed Optimization -- RFO/linear search
 Second derivative matrix not updated -- first step.
 ITU=  0
     Eigenvalues ---    0.00487   0.00819   0.01306   0.01358   0.01414
     Eigenvalues ---    0.01621   0.02079   0.02094   0.02123   0.02141
     Eigenvalues ---    0.02218   0.02268   0.06966   0.07214   0.10103
     Eigenvalues ---    0.10231   0.16000   0.16000   0.16000   0.16000
     Eigenvalues ---    0.16000   0.16000   0.16000   0.23346   0.25000
     Eigenvalues ---    0.25000   0.25000   0.25000   0.25000   0.25000
     Eigenvalues ---    0.25000   0.25000   0.30263   0.32630   0.32805
     Eigenvalues ---    0.34666   0.34669   0.34673   0.34750   0.34765
     Eigenvalues ---    0.34819   0.35734   0.41969   0.42315   0.45117
     Eigenvalues ---    0.48998   0.51417   0.52743   0.53079   0.53674
     Eigenvalues ---    0.89630
 RFO step:  Lambda=-1.52902385D-02 EMin= 4.87090522D-03
 Linear search not attempted -- first point.
 Iteration  1 RMS(Cart)=  0.06638077 RMS(Int)=  0.00128983
 Iteration  2 RMS(Cart)=  0.00251601 RMS(Int)=  0.00009708
 Iteration  3 RMS(Cart)=  0.00000058 RMS(Int)=  0.00009708
 Variable       Old X    -DE/DX   Delta X   Delta X   Delta X     New X
                                 (Linear)    (Quad)   (Total)
    R1        3.26707   0.00370   0.00000   0.01084   0.01084   3.27791
    R2        2.65182   0.00344   0.00000   0.00764   0.00770   2.65952
    R3        2.56831  -0.03269   0.00000  -0.06006  -0.06006   2.50825
    R4        2.87443  -0.01119   0.00000  -0.03519  -0.03519   2.83924
    R5        2.57120  -0.02623   0.00000  -0.04778  -0.04772   2.52348
    R6        2.06059   0.00292   0.00000   0.00804   0.00804   2.06862
    R7        2.06216  -0.00104   0.00000  -0.00287  -0.00287   2.05929
    R8        2.06083   0.00284   0.00000   0.00782   0.00782   2.06864
    R9        2.57768  -0.02262   0.00000  -0.04188  -0.04189   2.53579
   R10        2.82695  -0.00572   0.00000  -0.01667  -0.01667   2.81028
   R11        2.65099  -0.00701   0.00000  -0.01527  -0.01533   2.63566
   R12        2.56329  -0.02054   0.00000  -0.03720  -0.03720   2.52609
   R13        2.33104  -0.02841   0.00000  -0.03116  -0.03116   2.29988
   R14        2.68524  -0.00111   0.00000  -0.00253  -0.00253   2.68272
   R15        2.05969  -0.00013   0.00000  -0.00034  -0.00034   2.05935
   R16        2.06210   0.00220   0.00000   0.00607   0.00607   2.06817
   R17        2.06220   0.00217   0.00000   0.00599   0.00599   2.06819
   R18        2.56686  -0.02670   0.00000  -0.04919  -0.04925   2.51761
   R19        2.04499   0.00154   0.00000   0.00413   0.00413   2.04912
    A1        2.11278  -0.00397   0.00000  -0.01493  -0.01496   2.09782
    A2        2.06210  -0.00966   0.00000  -0.03637  -0.03640   2.02570
    A3        2.10831   0.01363   0.00000   0.05131   0.05136   2.15967
    A4        2.13903   0.00158   0.00000   0.00520   0.00514   2.14417
    A5        2.11660  -0.00798   0.00000  -0.02859  -0.02848   2.08813
    A6        2.02755   0.00640   0.00000   0.02339   0.02334   2.05089
    A7        1.92366   0.00201   0.00000   0.01146   0.01145   1.93512
    A8        1.96035  -0.00938   0.00000  -0.05347  -0.05342   1.90693
    A9        1.92366   0.00201   0.00000   0.01145   0.01145   1.93511
   A10        1.88329   0.00384   0.00000   0.02193   0.02198   1.90527
   A11        1.88761  -0.00207   0.00000  -0.01191  -0.01197   1.87565
   A12        1.88314   0.00385   0.00000   0.02202   0.02207   1.90521
   A13        2.06135  -0.00545   0.00000  -0.01807  -0.01799   2.04336
   A14        2.08195   0.00012   0.00000   0.00034   0.00036   2.08231
   A15        2.09808   0.00856   0.00000   0.03247   0.03241   2.13049
   A16        2.10316  -0.00868   0.00000  -0.03281  -0.03278   2.07038
   A17        1.98405  -0.00415   0.00000  -0.01566  -0.01566   1.96839
   A18        2.14555  -0.00082   0.00000  -0.00307  -0.00307   2.14248
   A19        2.15359   0.00497   0.00000   0.01873   0.01873   2.17232
   A20        2.10115  -0.02588   0.00000  -0.09757  -0.09757   2.00358
   A21        1.91977  -0.01366   0.00000  -0.07956  -0.07994   1.83983
   A22        1.93804   0.00035   0.00000   0.00281   0.00256   1.94060
   A23        1.93797   0.00036   0.00000   0.00288   0.00264   1.94061
   A24        1.88796   0.00625   0.00000   0.03410   0.03371   1.92167
   A25        1.88780   0.00626   0.00000   0.03420   0.03382   1.92162
   A26        1.89078   0.00097   0.00000   0.00857   0.00843   1.89921
   A27        2.12611  -0.00044   0.00000  -0.00341  -0.00352   2.12259
   A28        2.12206  -0.00078   0.00000  -0.00399  -0.00394   2.11812
   A29        2.03501   0.00122   0.00000   0.00740   0.00746   2.04247
   A30        2.05592  -0.00834   0.00000  -0.03371  -0.03379   2.02213
    D1       -0.00006   0.00000   0.00000   0.00007   0.00007   0.00001
    D2       -3.14157   0.00000   0.00000   0.00001   0.00001  -3.14156
    D3       -3.14156  -0.00000   0.00000  -0.00003  -0.00004  -3.14159
    D4        0.00012  -0.00000   0.00000  -0.00009  -0.00009   0.00002
    D5       -3.14156  -0.00000   0.00000  -0.00004  -0.00004   3.14158
    D6       -0.00006   0.00000   0.00000   0.00006   0.00006  -0.00000
    D7        1.04133  -0.00001   0.00000  -0.00020  -0.00015   1.04117
    D8       -3.14128  -0.00000   0.00000  -0.00010  -0.00010  -3.14137
    D9       -1.04090   0.00001   0.00000   0.00013   0.00009  -1.04082
   D10       -2.10035  -0.00001   0.00000  -0.00014  -0.00010  -2.10044
   D11        0.00024  -0.00000   0.00000  -0.00004  -0.00004   0.00020
   D12        2.10061   0.00002   0.00000   0.00018   0.00014   2.10075
   D13       -0.00016   0.00000   0.00000   0.00012   0.00012  -0.00004
   D14        3.14151   0.00000   0.00000   0.00007   0.00006   3.14158
   D15        3.14159  -0.00000   0.00000  -0.00000  -0.00000   3.14159
   D16        0.00014  -0.00000   0.00000  -0.00011  -0.00011   0.00004
   D17        0.00018  -0.00000   0.00000  -0.00014  -0.00014   0.00004
   D18       -3.14149   0.00000   0.00000   0.00002   0.00002  -3.14147
   D19       -3.14156  -0.00000   0.00000  -0.00003  -0.00003  -3.14159
   D20       -0.00005   0.00000   0.00000   0.00013   0.00013   0.00008
   D21       -0.00009   0.00000   0.00000   0.00007   0.00008  -0.00002
   D22        3.14158   0.00000   0.00000   0.00002   0.00002  -3.14159
   D23       -3.14154  -0.00000   0.00000  -0.00003  -0.00003  -3.14157
   D24        0.00013  -0.00000   0.00000  -0.00009  -0.00009   0.00004
   D25        3.14151   0.00000   0.00000   0.00011   0.00011  -3.14156
   D26        0.00000  -0.00000   0.00000  -0.00005  -0.00005  -0.00005
   D27        3.14144   0.00001   0.00000   0.00007   0.00007   3.14152
   D28       -1.05247  -0.00086   0.00000  -0.00736  -0.00715  -1.05962
   D29        1.05240   0.00085   0.00000   0.00732   0.00711   1.05952
   D30        0.00005  -0.00000   0.00000  -0.00005  -0.00005  -0.00000
   D31        3.14157  -0.00000   0.00000   0.00000   0.00001   3.14157
         Item               Value     Threshold  Converged?
 Maximum Force            0.032686     0.000450     NO 
 RMS     Force            0.008829     0.000300     NO 
 Maximum Displacement     0.205092     0.001800     NO 
 RMS     Displacement     0.067247     0.001200     NO 
 Predicted change in Energy=-8.003902D-03
 GradGradGradGradGradGradGradGradGradGradGradGradGradGradGradGradGradGrad

                          Input orientation:                          
 ---------------------------------------------------------------------
 Center     Atomic      Atomic             Coordinates (Angstroms)
 Number     Number       Type             X           Y           Z
 ---------------------------------------------------------------------
      1         17           0        3.527050   -1.932016    1.074609
      2          6           0        2.055035   -1.180802    0.547665
      3          6           0        2.092055    0.056503   -0.121932
      4          6           0        3.372088    0.786358   -0.415556
      5          7           0        0.952098    0.624910   -0.522707
      6          6           0       -0.185857   -0.034334   -0.256044
      7          6           0       -1.484293    0.553647   -0.680216
      8          8           0       -1.341671    1.726179   -1.306099
      9          6           0       -2.556308    2.326369   -1.730112
     10          8           0       -2.552955    0.010237   -0.470793
     11          6           0       -0.193051   -1.259955    0.409599
     12          7           0        0.935033   -1.840572    0.816082
     13          1           0        4.034806    0.176630   -1.037919
     14          1           0        3.144558    1.714988   -0.938417
     15          1           0        3.910347    1.017325    0.509242
     16          1           0       -2.265406    3.258760   -2.213432
     17          1           0       -3.087964    1.684770   -2.439666
     18          1           0       -3.213584    2.532659   -0.879686
     19          1           0       -1.119583   -1.782857    0.619183
 ---------------------------------------------------------------------
                    Distance matrix (angstroms):
                    1          2          3          4          5
     1  Cl   0.000000
     2  C    1.734596   0.000000
     3  C    2.728576   1.407357   0.000000
     4  C    3.103895   2.555805   1.502460   0.000000
     5  N    3.964803   2.371236   1.335368   2.427735   0.000000
     6  C    4.376930   2.642335   2.283664   3.654853   1.341884
     7  C    5.862720   4.128298   3.653642   4.869151   2.442517
     8  O    6.538701   4.839896   3.997568   4.888338   2.662306
     9  C    7.937730   6.225191   5.417178   6.264628   4.081875
    10  O    6.567121   4.867176   4.658322   5.975914   3.558921
    11  C    3.838366   2.253711   2.690222   4.192671   2.394426
    12  N    2.606483   1.327309   2.411943   3.789054   2.805575
    13  H    3.027702   2.876837   2.151219   1.094668   3.157449
    14  H    4.183206   3.432361   2.127201   1.089728   2.483539
    15  H    3.027403   2.876704   2.151219   1.094679   3.157553
    16  H    8.444401   6.782298   5.797955   6.412992   4.488658
    17  H    8.318033   6.601976   5.903875   6.829087   4.595665
    18  H    8.317977   6.601929   5.903842   6.829060   4.595634
    19  H    4.671280   3.231993   3.774535   5.276992   3.375369
                    6          7          8          9         10
     6  C    0.000000
     7  C    1.487138   0.000000
     8  O    2.353280   1.336751   0.000000
     9  C    3.655794   2.322508   1.419633   0.000000
    10  O    2.377237   1.217042   2.260400   2.636355   0.000000
    11  C    1.394733   2.478740   3.630420   4.798444   2.820926
    12  N    2.380829   3.718108   4.733788   6.002997   4.153023
    13  H    4.297654   5.543514   5.601743   6.967302   6.614221
    14  H    3.823274   4.779293   4.501285   5.787957   5.965443
    15  H    4.297736   5.543640   5.601931   6.967491   6.614300
    16  H    4.358940   3.206014   2.006325   1.089759   3.697618
    17  H    4.018177   2.635690   2.082361   1.094429   2.639461
    18  H    4.018148   2.635664   2.082378   1.094437   2.639363
    19  H    2.166841   2.698277   4.008662   4.946625   2.541218
                   11         12         13         14         15
    11  C    0.000000
    12  N    1.332260   0.000000
    13  H    4.694023   4.137030   0.000000
    14  H    4.669803   4.538973   1.780165   0.000000
    15  H    4.694018   4.136934   1.765210   1.780135   0.000000
    16  H    5.620830   6.739729   7.111542   5.768588   7.111744
    17  H    5.016995   6.261983   7.414394   6.410850   7.623509
    18  H    5.016951   6.261932   7.623324   6.410773   7.414563
    19  H    1.084349   2.064835   5.757890   5.730963   5.757890
                   16         17         18         19
    16  H    0.000000
    17  H    1.790315   0.000000
    18  H    1.790292   1.779953   0.000000
    19  H    5.895296   5.025486   5.025447   0.000000
 Stoichiometry    C7H7ClN2O2
 Framework group  C1[X(C7H7ClN2O2)]
 Deg. of freedom    51
 Full point group                 C1      NOp   1
 Largest Abelian subgroup         C1      NOp   1
 Largest concise Abelian subgroup C1      NOp   1
                         Standard orientation:                         
 ---------------------------------------------------------------------
 Center     Atomic      Atomic             Coordinates (Angstroms)
 Number     Number       Type             X           Y           Z
 ---------------------------------------------------------------------
      1         17           0       -3.600554   -0.329749   -0.000029
      2          6           0       -1.865959   -0.330999    0.000011
      3          6           0       -1.157236    0.884881    0.000017
      4          6           0       -1.837251    2.224645    0.000002
      5          7           0        0.178060    0.870977    0.000008
      6          6           0        0.776376   -0.330135    0.000041
      7          6           0        2.261702   -0.403513    0.000026
      8          8           0        2.839471    0.801928    0.000032
      9          6           0        4.258962    0.781814   -0.000023
     10          8           0        2.868874   -1.458280   -0.000067
     11          6           0        0.048622   -1.519948    0.000039
     12          7           0       -1.283633   -1.523747    0.000024
     13          1           0       -2.474582    2.338580    0.882684
     14          1           0       -1.082592    3.010772   -0.000215
     15          1           0       -2.474840    2.338423   -0.882526
     16          1           0        4.563473    1.828164   -0.000092
     17          1           0        4.647441    0.277035    0.889952
     18          1           0        4.647389    0.276983   -0.890001
     19          1           0        0.544076   -2.484488    0.000068
 ---------------------------------------------------------------------
 Rotational constants (GHZ):           2.1749876           0.4201255           0.3536715
 Standard basis: 6-31G(d,p) (6D, 7F)
 There are   219 symmetry adapted cartesian basis functions of A   symmetry.
 There are   219 symmetry adapted basis functions of A   symmetry.
   219 basis functions,   409 primitive gaussians,   219 cartesian basis functions
    48 alpha electrons       48 beta electrons
       nuclear repulsion energy       759.6316392228 Hartrees.
 NAtoms=   19 NActive=   19 NUniq=   19 SFac= 1.00D+00 NAtFMM=   60 NAOKFM=F Big=F
 Integral buffers will be    131072 words long.
 Raffenetti 2 integral format.
 Two-electron integral symmetry is turned on.
 Nuclear repulsion after empirical dispersion term =      759.5956899091 Hartrees.
 One-electron integrals computed using PRISM.
 NBasis=   219 RedAO= T EigKep=  1.17D-03  NBF=   219
 NBsUse=   219 1.00D-06 EigRej= -1.00D+00 NBFU=   219
 Initial guess from the checkpoint file:  "pyrz1_conf-1.chk"
 B after Tr=    -0.000000    0.000000    0.000000
         Rot=    0.999999    0.000000    0.000000   -0.001439 Ang=   0.16 deg.
 ExpMin= 1.43D-01 ExpMax= 2.52D+04 ExpMxC= 3.78D+03 IAcc=3 IRadAn=         5 AccDes= 0.00D+00
 Harris functional with IExCor=  402 and IRadAn=       5 diagonalized for initial guess.
 HarFok:  IExCor=  402 AccDes= 0.00D+00 IRadAn=         5 IDoV= 1 UseB2=F ITyADJ=14
 ICtDFT=  3500011 ScaDFX=  1.000000  1.000000  1.000000  1.000000
 FoFCou: FMM=F IPFlag=           0 FMFlag=      100000 FMFlg1=           0
         NFxFlg=           0 DoJE=T BraDBF=F KetDBF=T FulRan=T
         wScrn=  0.000000 ICntrl=       500 IOpCl=  0 I1Cent=   200000004 NGrid=           0
         NMat0=    1 NMatS0=      1 NMatT0=    0 NMatD0=    1 NMtDS0=    0 NMtDT0=    0
 Petite list used in FoFCou.
 Requested convergence on RMS density matrix=1.00D-08 within 128 cycles.
 Requested convergence on MAX density matrix=1.00D-06.
 Requested convergence on             energy=1.00D-06.
 No special actions if energy rises.
 Integral accuracy reduced to 1.0D-05 until final iterations.
 Initial convergence to 1.0D-05 achieved.  Increase integral accuracy.
 SCF Done:  E(RB3LYP) =  -991.155425056     A.U. after   13 cycles
            NFock= 13  Conv=0.36D-08     -V/T= 2.0062
 Calling FoFJK, ICntrl=      2127 FMM=F ISym2X=0 I1Cent= 0 IOpClX= 0 NMat=1 NMatS=1 NMatT=0.
 ***** Axes restored to original set *****
 -------------------------------------------------------------------
 Center     Atomic                   Forces (Hartrees/Bohr)
 Number     Number              X              Y              Z
 -------------------------------------------------------------------
      1       17           0.007241452   -0.002047806    0.001695642
      2        6          -0.010682031   -0.004780792    0.001737773
      3        6           0.005331043    0.007818301   -0.003817365
      4        6          -0.000147882   -0.000977143    0.000532508
      5        7          -0.001366088   -0.006143283    0.003224671
      6        6           0.002564319    0.001670723   -0.000700347
      7        6          -0.004417134   -0.002372235    0.000945165
      8        8           0.005831109   -0.002500326    0.001825693
      9        6          -0.008269384    0.007009811   -0.004468340
     10        8           0.000554780    0.001038296   -0.000525024
     11        6          -0.004252628   -0.002235108    0.000868906
     12        7           0.007815247    0.003622688   -0.001339064
     13        1           0.000626739    0.000022012    0.000682254
     14        1          -0.000856756   -0.000044684   -0.000049632
     15        1           0.000703953   -0.000520009   -0.000312117
     16        1          -0.000474942    0.000182498   -0.000140741
     17        1           0.000498511   -0.000217707    0.001158557
     18        1           0.000625858   -0.001057076   -0.000380089
     19        1          -0.001326165    0.001531842   -0.000938450
 -------------------------------------------------------------------
 Cartesian Forces:  Max     0.010682031 RMS     0.003464971

 GradGradGradGradGradGradGradGradGradGradGradGradGradGradGradGradGradGrad
 Berny optimization.
 Using GEDIIS/GDIIS optimizer.
 FormGI is forming the generalized inverse of G from B-inverse, IUseBI=4.
 Internal  Forces:  Max     0.010165453 RMS     0.002236323
 Search for a local minimum.
 Step number   2 out of a maximum of   90
 All quantities printed in internal units (Hartrees-Bohrs-Radians)
 Mixed Optimization -- RFO/linear search
 Update second derivatives using D2CorX and points    1    2
 DE= -7.52D-03 DEPred=-8.00D-03 R= 9.39D-01
 TightC=F SS=  1.41D+00  RLast= 2.17D-01 DXNew= 5.0454D-01 6.5061D-01
 Trust test= 9.39D-01 RLast= 2.17D-01 DXMaxT set to 5.05D-01
 ITU=  1  0
 Use linear search instead of GDIIS.
     Eigenvalues ---    0.00487   0.00819   0.01315   0.01339   0.01414
     Eigenvalues ---    0.01636   0.02078   0.02094   0.02123   0.02139
     Eigenvalues ---    0.02218   0.02268   0.07155   0.07262   0.10150
     Eigenvalues ---    0.10685   0.15395   0.16000   0.16000   0.16000
     Eigenvalues ---    0.16000   0.16000   0.16336   0.22935   0.23825
     Eigenvalues ---    0.25000   0.25000   0.25000   0.25000   0.25000
     Eigenvalues ---    0.25000   0.27368   0.30064   0.32498   0.33641
     Eigenvalues ---    0.34668   0.34670   0.34711   0.34757   0.34819
     Eigenvalues ---    0.34870   0.35732   0.41469   0.42390   0.45142
     Eigenvalues ---    0.49047   0.50864   0.51954   0.53492   0.58950
     Eigenvalues ---    0.89179
 RFO step:  Lambda=-1.11064206D-03 EMin= 4.87090522D-03
 Quartic linear search produced a step of -0.04237.
 Iteration  1 RMS(Cart)=  0.01590528 RMS(Int)=  0.00004660
 Iteration  2 RMS(Cart)=  0.00007165 RMS(Int)=  0.00001384
 Iteration  3 RMS(Cart)=  0.00000000 RMS(Int)=  0.00001384
 Variable       Old X    -DE/DX   Delta X   Delta X   Delta X     New X
                                 (Linear)    (Quad)   (Total)
    R1        3.27791   0.00755  -0.00046   0.02337   0.02291   3.30082
    R2        2.65952   0.00367  -0.00033   0.00849   0.00816   2.66768
    R3        2.50825  -0.00332   0.00254  -0.01310  -0.01056   2.49769
    R4        2.83924  -0.00063   0.00149  -0.00622  -0.00473   2.83451
    R5        2.52348   0.00137   0.00202  -0.00330  -0.00128   2.52220
    R6        2.06862  -0.00002  -0.00034   0.00091   0.00057   2.06919
    R7        2.05929   0.00016   0.00012   0.00011   0.00023   2.05952
    R8        2.06864  -0.00003  -0.00033   0.00086   0.00053   2.06917
    R9        2.53579   0.00001   0.00177  -0.00490  -0.00312   2.53268
   R10        2.81028   0.00621   0.00071   0.01606   0.01677   2.82705
   R11        2.63566   0.00078   0.00065   0.00003   0.00068   2.63634
   R12        2.52609   0.00375   0.00158   0.00228   0.00385   2.52995
   R13        2.29988  -0.00104   0.00132  -0.00475  -0.00343   2.29645
   R14        2.68272   0.01017   0.00011   0.02264   0.02275   2.70546
   R15        2.05935   0.00009   0.00001   0.00021   0.00023   2.05957
   R16        2.06817  -0.00087  -0.00026  -0.00166  -0.00191   2.06626
   R17        2.06819  -0.00087  -0.00025  -0.00168  -0.00193   2.06625
   R18        2.51761   0.00558   0.00209   0.00432   0.00641   2.52401
   R19        2.04912   0.00021  -0.00018   0.00106   0.00089   2.05001
    A1        2.09782  -0.00231   0.00063  -0.01051  -0.00987   2.08794
    A2        2.02570   0.00292   0.00154   0.00682   0.00836   2.03406
    A3        2.15967  -0.00060  -0.00218   0.00370   0.00151   2.16118
    A4        2.14417   0.00015  -0.00022   0.00144   0.00122   2.14539
    A5        2.08813  -0.00337   0.00121  -0.01680  -0.01560   2.07253
    A6        2.05089   0.00322  -0.00099   0.01537   0.01438   2.06527
    A7        1.93512   0.00065  -0.00049   0.00483   0.00435   1.93947
    A8        1.90693  -0.00124   0.00226  -0.01315  -0.01088   1.89606
    A9        1.93511   0.00065  -0.00049   0.00485   0.00437   1.93947
   A10        1.90527   0.00047  -0.00093   0.00647   0.00555   1.91082
   A11        1.87565  -0.00099   0.00051  -0.00919  -0.00868   1.86697
   A12        1.90521   0.00048  -0.00094   0.00654   0.00561   1.91082
   A13        2.04336   0.00533   0.00076   0.01795   0.01874   2.06210
   A14        2.08231   0.00273  -0.00002   0.01019   0.01017   2.09248
   A15        2.13049  -0.00271  -0.00137  -0.00587  -0.00724   2.12326
   A16        2.07038  -0.00002   0.00139  -0.00432  -0.00293   2.06745
   A17        1.96839   0.00153   0.00066   0.00391   0.00457   1.97296
   A18        2.14248   0.00011   0.00013   0.00005   0.00018   2.14266
   A19        2.17232  -0.00164  -0.00079  -0.00396  -0.00475   2.16757
   A20        2.00358   0.00241   0.00413  -0.00270   0.00144   2.00502
   A21        1.83983   0.00154   0.00339   0.00101   0.00441   1.84424
   A22        1.94060  -0.00111  -0.00011  -0.00738  -0.00751   1.93308
   A23        1.94061  -0.00112  -0.00011  -0.00738  -0.00752   1.93309
   A24        1.92167   0.00046  -0.00143   0.00893   0.00751   1.92918
   A25        1.92162   0.00047  -0.00143   0.00898   0.00756   1.92918
   A26        1.89921  -0.00018  -0.00036  -0.00359  -0.00401   1.89520
   A27        2.12259  -0.00181   0.00015  -0.00743  -0.00728   2.11531
   A28        2.11812  -0.00137   0.00017  -0.01054  -0.01037   2.10775
   A29        2.04247   0.00318  -0.00032   0.01796   0.01765   2.06012
   A30        2.02213   0.00316   0.00143   0.00845   0.00986   2.03199
    D1        0.00001  -0.00000  -0.00000   0.00000  -0.00000   0.00001
    D2       -3.14156  -0.00000  -0.00000  -0.00006  -0.00006   3.14157
    D3       -3.14159   0.00000   0.00000   0.00001   0.00002  -3.14158
    D4        0.00002  -0.00000   0.00000  -0.00004  -0.00004  -0.00002
    D5        3.14158   0.00000   0.00000   0.00002   0.00003  -3.14158
    D6       -0.00000  -0.00000  -0.00000   0.00001   0.00001   0.00001
    D7        1.04117  -0.00020   0.00001  -0.00269  -0.00268   1.03849
    D8       -3.14137  -0.00000   0.00000  -0.00014  -0.00013  -3.14151
    D9       -1.04082   0.00020  -0.00000   0.00252   0.00251  -1.03831
   D10       -2.10044  -0.00020   0.00000  -0.00264  -0.00263  -2.10307
   D11        0.00020  -0.00000   0.00000  -0.00008  -0.00008   0.00012
   D12        2.10075   0.00020  -0.00001   0.00257   0.00257   2.10332
   D13       -0.00004   0.00000  -0.00001   0.00008   0.00007   0.00003
   D14        3.14158   0.00000  -0.00000   0.00002   0.00002  -3.14159
   D15        3.14159  -0.00000   0.00000  -0.00001  -0.00001   3.14157
   D16        0.00004  -0.00000   0.00000  -0.00008  -0.00008  -0.00004
   D17        0.00004   0.00000   0.00001   0.00009   0.00009   0.00014
   D18       -3.14147  -0.00000  -0.00000  -0.00022  -0.00022   3.14149
   D19       -3.14159   0.00000   0.00000   0.00015   0.00015  -3.14144
   D20        0.00008  -0.00000  -0.00001  -0.00016  -0.00016  -0.00008
   D21       -0.00002   0.00000  -0.00000   0.00005   0.00005   0.00003
   D22       -3.14159  -0.00000  -0.00000   0.00001   0.00000  -3.14159
   D23       -3.14157   0.00000   0.00000  -0.00001  -0.00001  -3.14158
   D24        0.00004  -0.00000   0.00000  -0.00006  -0.00006  -0.00001
   D25       -3.14156  -0.00000  -0.00000  -0.00014  -0.00014   3.14148
   D26       -0.00005   0.00000   0.00000   0.00018   0.00018   0.00014
   D27        3.14152   0.00000  -0.00000   0.00004   0.00003   3.14155
   D28       -1.05962   0.00089   0.00030   0.00740   0.00764  -1.05198
   D29        1.05952  -0.00089  -0.00030  -0.00739  -0.00763   1.05189
   D30       -0.00000  -0.00000   0.00000  -0.00002  -0.00001  -0.00001
   D31        3.14157   0.00000  -0.00000   0.00003   0.00003  -3.14158
         Item               Value     Threshold  Converged?
 Maximum Force            0.010165     0.000450     NO 
 RMS     Force            0.002236     0.000300     NO 
 Maximum Displacement     0.059031     0.001800     NO 
 RMS     Displacement     0.015857     0.001200     NO 
 Predicted change in Energy=-5.701683D-04
 GradGradGradGradGradGradGradGradGradGradGradGradGradGradGradGradGradGrad

                          Input orientation:                          
 ---------------------------------------------------------------------
 Center     Atomic      Atomic             Coordinates (Angstroms)
 Number     Number       Type             X           Y           Z
 ---------------------------------------------------------------------
      1         17           0        3.544463   -1.937041    1.078518
      2          6           0        2.059443   -1.184469    0.549949
      3          6           0        2.106302    0.056754   -0.120871
      4          6           0        3.388613    0.779117   -0.410248
      5          7           0        0.960982    0.615957   -0.517028
      6          6           0       -0.182598   -0.032602   -0.256594
      7          6           0       -1.488867    0.558783   -0.683173
      8          8           0       -1.352245    1.733427   -1.310792
      9          6           0       -2.579550    2.335059   -1.736749
     10          8           0       -2.555961    0.016149   -0.474274
     11          6           0       -0.193711   -1.258700    0.408873
     12          7           0        0.940377   -1.836279    0.814100
     13          1           0        4.054480    0.168600   -1.028991
     14          1           0        3.155553    1.706592   -0.932978
     15          1           0        3.930394    1.006849    0.513629
     16          1           0       -2.296643    3.269171   -2.221759
     17          1           0       -3.107649    1.683342   -2.438131
     18          1           0       -3.233052    2.529343   -0.881914
     19          1           0       -1.127931   -1.771254    0.612235
 ---------------------------------------------------------------------
                    Distance matrix (angstroms):
                    1          2          3          4          5
     1  Cl   0.000000
     2  C    1.746721   0.000000
     3  C    2.735336   1.411677   0.000000
     4  C    3.101327   2.558191   1.499956   0.000000
     5  N    3.967108   2.363598   1.334693   2.435449   0.000000
     6  C    4.393222   2.646518   2.294661   3.665521   1.340236
     7  C    5.887878   4.141259   3.673344   4.890076   2.456142
     8  O    6.569542   4.859639   4.023516   4.919087   2.688832
     9  C    7.979982   6.255904   5.455176   6.308687   4.120485
    10  O    6.591001   4.877753   4.675814   5.993678   3.567981
    11  C    3.857787   2.258787   2.702056   4.201988   2.388504
    12  N    2.619415   1.321719   2.411872   3.785919   2.790303
    13  H    3.022489   2.881670   2.152345   1.094968   3.167327
    14  H    4.180123   3.429105   2.117170   1.089850   2.485687
    15  H    3.022339   2.881606   2.152343   1.094959   3.167405
    16  H    8.492055   6.818560   5.841171   6.465607   4.534068
    17  H    8.350125   6.622070   5.933023   6.865228   4.624252
    18  H    8.350245   6.622170   5.933092   6.865290   4.624295
    19  H    4.698529   3.241535   3.786729   5.286684   3.367131
                    6          7          8          9         10
     6  C    0.000000
     7  C    1.496010   0.000000
     8  O    2.366065   1.338790   0.000000
     9  C    3.679954   2.335544   1.431670   0.000000
    10  O    2.383823   1.215228   2.257817   2.640406   0.000000
    11  C    1.395093   2.484600   3.640367   4.817782   2.825847
    12  N    2.379224   3.725503   4.744900   6.024681   4.161222
    13  H    4.311602   5.567812   5.635669   7.014615   6.635426
    14  H    3.824336   4.790669   4.523682   5.825155   5.974060
    15  H    4.311659   5.567898   5.635840   7.014821   6.635528
    16  H    4.385518   3.219619   2.019965   1.089879   3.701770
    17  H    4.032306   2.639122   2.086827   1.093416   2.634507
    18  H    4.032351   2.639088   2.086829   1.093414   2.634534
    19  H    2.161349   2.690247   4.003891   4.948407   2.532702
                   11         12         13         14         15
    11  C    0.000000
    12  N    1.335650   0.000000
    13  H    4.706566   4.136927   0.000000
    14  H    4.670235   4.528931   1.784014   0.000000
    15  H    4.706584   4.136890   1.760039   1.784010   0.000000
    16  H    5.643063   6.764640   7.167496   5.816275   7.167736
    17  H    5.025144   6.273057   7.454945   6.441562   7.661891
    18  H    5.025236   6.273167   7.661779   6.441568   7.455232
    19  H    1.084820   2.079152   5.771831   5.729863   5.771848
                   16         17         18         19
    16  H    0.000000
    17  H    1.794269   0.000000
    18  H    1.794266   1.775741   0.000000
    19  H    5.899432   5.015800   5.015890   0.000000
 Stoichiometry    C7H7ClN2O2
 Framework group  C1[X(C7H7ClN2O2)]
 Deg. of freedom    51
 Full point group                 C1      NOp   1
 Largest Abelian subgroup         C1      NOp   1
 Largest concise Abelian subgroup C1      NOp   1
                         Standard orientation:                         
 ---------------------------------------------------------------------
 Center     Atomic      Atomic             Coordinates (Angstroms)
 Number     Number       Type             X           Y           Z
 ---------------------------------------------------------------------
      1         17           0       -3.615474   -0.332262    0.000061
      2          6           0       -1.868758   -0.336493    0.000003
      3          6           0       -1.167852    0.888890   -0.000047
      4          6           0       -1.856020    2.221667   -0.000039
      5          7           0        0.166629    0.865088   -0.000065
      6          6           0        0.777746   -0.327710   -0.000073
      7          6           0        2.272017   -0.399813   -0.000119
      8          8           0        2.854800    0.805477    0.000020
      9          6           0        4.286283    0.782346    0.000122
     10          8           0        2.879680   -1.452203   -0.000023
     11          6           0        0.054666   -1.520791   -0.000015
     12          7           0       -1.280985   -1.520327    0.000015
     13          1           0       -2.497627    2.334471    0.880057
     14          1           0       -1.098196    3.004914   -0.000172
     15          1           0       -2.497841    2.334375   -0.879981
     16          1           0        4.597521    1.826840    0.000182
     17          1           0        4.665500    0.269100    0.888003
     18          1           0        4.665631    0.269165   -0.887738
     19          1           0        0.564227   -2.478486   -0.000017
 ---------------------------------------------------------------------
 Rotational constants (GHZ):           2.1806213           0.4161211           0.3509676
 Standard basis: 6-31G(d,p) (6D, 7F)
 There are   219 symmetry adapted cartesian basis functions of A   symmetry.
 There are   219 symmetry adapted basis functions of A   symmetry.
   219 basis functions,   409 primitive gaussians,   219 cartesian basis functions
    48 alpha electrons       48 beta electrons
       nuclear repulsion energy       757.7983342795 Hartrees.
 NAtoms=   19 NActive=   19 NUniq=   19 SFac= 1.00D+00 NAtFMM=   60 NAOKFM=F Big=F
 Integral buffers will be    131072 words long.
 Raffenetti 2 integral format.
 Two-electron integral symmetry is turned on.
 Nuclear repulsion after empirical dispersion term =      757.7624552511 Hartrees.
 One-electron integrals computed using PRISM.
 NBasis=   219 RedAO= T EigKep=  1.15D-03  NBF=   219
 NBsUse=   219 1.00D-06 EigRej= -1.00D+00 NBFU=   219
 Initial guess from the checkpoint file:  "pyrz1_conf-1.chk"
 B after Tr=     0.000000    0.000000    0.000000
         Rot=    1.000000   -0.000001    0.000000   -0.000561 Ang=  -0.06 deg.
 ExpMin= 1.43D-01 ExpMax= 2.52D+04 ExpMxC= 3.78D+03 IAcc=3 IRadAn=         5 AccDes= 0.00D+00
 Harris functional with IExCor=  402 and IRadAn=       5 diagonalized for initial guess.
 HarFok:  IExCor=  402 AccDes= 0.00D+00 IRadAn=         5 IDoV= 1 UseB2=F ITyADJ=14
 ICtDFT=  3500011 ScaDFX=  1.000000  1.000000  1.000000  1.000000
 FoFCou: FMM=F IPFlag=           0 FMFlag=      100000 FMFlg1=           0
         NFxFlg=           0 DoJE=T BraDBF=F KetDBF=T FulRan=T
         wScrn=  0.000000 ICntrl=       500 IOpCl=  0 I1Cent=   200000004 NGrid=           0
         NMat0=    1 NMatS0=      1 NMatT0=    0 NMatD0=    1 NMtDS0=    0 NMtDT0=    0
 Petite list used in FoFCou.
 Requested convergence on RMS density matrix=1.00D-08 within 128 cycles.
 Requested convergence on MAX density matrix=1.00D-06.
 Requested convergence on             energy=1.00D-06.
 No special actions if energy rises.
 Integral accuracy reduced to 1.0D-05 until final iterations.
 Initial convergence to 1.0D-05 achieved.  Increase integral accuracy.
 SCF Done:  E(RB3LYP) =  -991.156095469     A.U. after   12 cycles
            NFock= 12  Conv=0.44D-08     -V/T= 2.0063
 Calling FoFJK, ICntrl=      2127 FMM=F ISym2X=0 I1Cent= 0 IOpClX= 0 NMat=1 NMatS=1 NMatT=0.
 ***** Axes restored to original set *****
 -------------------------------------------------------------------
 Center     Atomic                   Forces (Hartrees/Bohr)
 Number     Number              X              Y              Z
 -------------------------------------------------------------------
      1       17           0.002692181   -0.000929187    0.000722265
      2        6          -0.004996960   -0.002030755    0.000701778
      3        6           0.000938188    0.001491192   -0.000739971
      4        6          -0.000485851    0.000310925   -0.000210787
      5        7           0.000283180   -0.000446212    0.000271181
      6        6           0.000727033    0.000489020   -0.000200916
      7        6          -0.000358862    0.000321111   -0.000239724
      8        8           0.002933646   -0.000441691    0.000488228
      9        6          -0.003303771    0.002065837   -0.001390694
     10        8          -0.000793334   -0.001090361    0.000542968
     11        6          -0.002171178   -0.000306287   -0.000003721
     12        7           0.003253444    0.001003965   -0.000285566
     13        1          -0.000202911    0.000064150    0.000187580
     14        1           0.000407281    0.000269889   -0.000114501
     15        1          -0.000171256   -0.000134340   -0.000175571
     16        1           0.000106787   -0.000456165    0.000256546
     17        1           0.000487159   -0.000021941    0.000323746
     18        1           0.000519964   -0.000249122   -0.000094039
     19        1           0.000135261    0.000089971   -0.000038806
 -------------------------------------------------------------------
 Cartesian Forces:  Max     0.004996960 RMS     0.001255563

 GradGradGradGradGradGradGradGradGradGradGradGradGradGradGradGradGradGrad
 Berny optimization.
 Using GEDIIS/GDIIS optimizer.
 FormGI is forming the generalized inverse of G from B-inverse, IUseBI=4.
 Internal  Forces:  Max     0.002907699 RMS     0.000682869
 Search for a local minimum.
 Step number   3 out of a maximum of   90
 All quantities printed in internal units (Hartrees-Bohrs-Radians)
 Mixed Optimization -- En-DIIS/RFO-DIIS
 Update second derivatives using D2CorX and points    1    2    3
 DE= -6.70D-04 DEPred=-5.70D-04 R= 1.18D+00
 TightC=F SS=  1.41D+00  RLast= 6.37D-02 DXNew= 8.4853D-01 1.9125D-01
 Trust test= 1.18D+00 RLast= 6.37D-02 DXMaxT set to 5.05D-01
 ITU=  1  1  0
 Use linear search instead of GDIIS.
     Eigenvalues ---    0.00487   0.00819   0.01313   0.01329   0.01414
     Eigenvalues ---    0.01632   0.02078   0.02095   0.02124   0.02140
     Eigenvalues ---    0.02218   0.02268   0.07085   0.07300   0.10218
     Eigenvalues ---    0.10674   0.14579   0.16000   0.16000   0.16000
     Eigenvalues ---    0.16000   0.16264   0.16613   0.20710   0.23732
     Eigenvalues ---    0.25000   0.25000   0.25000   0.25000   0.25000
     Eigenvalues ---    0.25705   0.28374   0.29291   0.30907   0.34147
     Eigenvalues ---    0.34664   0.34671   0.34673   0.34756   0.34790
     Eigenvalues ---    0.35066   0.35762   0.39657   0.41937   0.45056
     Eigenvalues ---    0.48996   0.50509   0.51936   0.53502   0.57609
     Eigenvalues ---    0.90121
 RFO step:  Lambda=-9.83816451D-05 EMin= 4.87090478D-03
 Quartic linear search produced a step of  0.23227.
 Iteration  1 RMS(Cart)=  0.00409165 RMS(Int)=  0.00000966
 Iteration  2 RMS(Cart)=  0.00001431 RMS(Int)=  0.00000560
 Iteration  3 RMS(Cart)=  0.00000000 RMS(Int)=  0.00000560
 Variable       Old X    -DE/DX   Delta X   Delta X   Delta X     New X
                                 (Linear)    (Quad)   (Total)
    R1        3.30082   0.00291   0.00532   0.00805   0.01337   3.31419
    R2        2.66768   0.00189   0.00190   0.00407   0.00597   2.67365
    R3        2.49769  -0.00206  -0.00245  -0.00473  -0.00718   2.49050
    R4        2.83451  -0.00008  -0.00110  -0.00049  -0.00159   2.83292
    R5        2.52220  -0.00044  -0.00030  -0.00203  -0.00232   2.51988
    R6        2.06919  -0.00027   0.00013  -0.00084  -0.00071   2.06848
    R7        2.05952   0.00020   0.00005   0.00061   0.00066   2.06018
    R8        2.06917  -0.00026   0.00012  -0.00082  -0.00070   2.06847
    R9        2.53268  -0.00006  -0.00072  -0.00062  -0.00134   2.53134
   R10        2.82705   0.00044   0.00389  -0.00112   0.00278   2.82983
   R11        2.63634   0.00057   0.00016   0.00125   0.00141   2.63775
   R12        2.52995   0.00106   0.00089   0.00103   0.00193   2.53188
   R13        2.29645   0.00128  -0.00080   0.00155   0.00075   2.29720
   R14        2.70546   0.00271   0.00528   0.00463   0.00991   2.71537
   R15        2.05957  -0.00048   0.00005  -0.00174  -0.00169   2.05788
   R16        2.06626  -0.00043  -0.00044  -0.00112  -0.00157   2.06469
   R17        2.06625  -0.00043  -0.00045  -0.00112  -0.00157   2.06469
   R18        2.52401   0.00167   0.00149   0.00190   0.00339   2.52740
   R19        2.05001  -0.00017   0.00021  -0.00061  -0.00040   2.04961
    A1        2.08794  -0.00076  -0.00229  -0.00258  -0.00488   2.08307
    A2        2.03406   0.00064   0.00194   0.00124   0.00318   2.03724
    A3        2.16118   0.00012   0.00035   0.00135   0.00170   2.16288
    A4        2.14539   0.00064   0.00028   0.00328   0.00357   2.14895
    A5        2.07253  -0.00036  -0.00362  -0.00060  -0.00422   2.06831
    A6        2.06527  -0.00028   0.00334  -0.00269   0.00065   2.06592
    A7        1.93947  -0.00025   0.00101  -0.00267  -0.00166   1.93781
    A8        1.89606   0.00077  -0.00253   0.00703   0.00450   1.90056
    A9        1.93947  -0.00025   0.00101  -0.00267  -0.00166   1.93782
   A10        1.91082  -0.00017   0.00129  -0.00074   0.00055   1.91136
   A11        1.86697   0.00005  -0.00202  -0.00036  -0.00238   1.86458
   A12        1.91082  -0.00017   0.00130  -0.00074   0.00056   1.91138
   A13        2.06210   0.00042   0.00435  -0.00102   0.00334   2.06544
   A14        2.09248  -0.00012   0.00236  -0.00223   0.00013   2.09261
   A15        2.12326   0.00001  -0.00168   0.00223   0.00056   2.12381
   A16        2.06745   0.00011  -0.00068   0.00000  -0.00068   2.06676
   A17        1.97296  -0.00079   0.00106  -0.00492  -0.00386   1.96910
   A18        2.14266  -0.00040   0.00004  -0.00210  -0.00206   2.14060
   A19        2.16757   0.00119  -0.00110   0.00702   0.00592   2.17349
   A20        2.00502   0.00035   0.00033  -0.00076  -0.00043   2.00459
   A21        1.84424  -0.00015   0.00103  -0.00355  -0.00253   1.84171
   A22        1.93308  -0.00046  -0.00174  -0.00262  -0.00438   1.92871
   A23        1.93309  -0.00046  -0.00175  -0.00261  -0.00437   1.92872
   A24        1.92918   0.00034   0.00175   0.00264   0.00438   1.93356
   A25        1.92918   0.00034   0.00176   0.00264   0.00439   1.93357
   A26        1.89520   0.00038  -0.00093   0.00334   0.00238   1.89757
   A27        2.11531  -0.00064  -0.00169  -0.00216  -0.00385   2.11146
   A28        2.10775   0.00030  -0.00241   0.00275   0.00035   2.10810
   A29        2.06012   0.00034   0.00410  -0.00059   0.00351   2.06362
   A30        2.03199   0.00044   0.00229   0.00020   0.00248   2.03447
    D1        0.00001   0.00000  -0.00000  -0.00001  -0.00001   0.00000
    D2        3.14157   0.00000  -0.00001   0.00006   0.00005  -3.14157
    D3       -3.14158  -0.00000   0.00000  -0.00004  -0.00004   3.14157
    D4       -0.00002   0.00000  -0.00001   0.00003   0.00002   0.00000
    D5       -3.14158  -0.00000   0.00001  -0.00004  -0.00003   3.14157
    D6        0.00001  -0.00000   0.00000  -0.00001  -0.00001  -0.00000
    D7        1.03849  -0.00013  -0.00062  -0.00199  -0.00261   1.03588
    D8       -3.14151   0.00000  -0.00003  -0.00002  -0.00005  -3.14155
    D9       -1.03831   0.00013   0.00058   0.00196   0.00254  -1.03576
   D10       -2.10307  -0.00013  -0.00061  -0.00206  -0.00266  -2.10574
   D11        0.00012  -0.00000  -0.00002  -0.00008  -0.00010   0.00002
   D12        2.10332   0.00013   0.00060   0.00189   0.00249   2.10581
   D13        0.00003  -0.00000   0.00002  -0.00007  -0.00005  -0.00002
   D14       -3.14159  -0.00000   0.00000  -0.00001  -0.00000   3.14159
   D15        3.14157   0.00000  -0.00000   0.00008   0.00008  -3.14153
   D16       -0.00004   0.00000  -0.00002   0.00010   0.00008   0.00004
[...]
     18  H    Isotropic =    27.9312   Anisotropy =     7.9694
   XX=    25.9099   YX=    -2.4271   ZX=    -0.7608
   XY=    -0.6494   YY=    30.2800   ZY=     3.6501
   XZ=    -0.4432   YZ=     3.7833   ZZ=    27.6038
   Eigenvalues:    24.7981    25.7515    33.2441
     19  H    Isotropic =    21.8363   Anisotropy =     9.1217
   XX=    24.7576   YX=    -4.0617   ZX=     0.0000
   XY=    -3.9242   YY=    22.8717   ZY=    -0.0000
   XZ=    -0.0000   YZ=     0.0000   ZZ=    17.8797
   Eigenvalues:    17.8797    19.7118    27.9175
 End of Minotr F.D. properties file   721 does not exist.
 End of Minotr F.D. properties file   722 does not exist.
 End of Minotr F.D. properties file   788 does not exist.

 **********************************************************************

            Population analysis using the SCF Density.

 **********************************************************************

 Orbital symmetries:
       Occupied  (A') (A') (A') (A') (A') (A') (A') (A') (A') (A')
                 (A') (A') (A') (A') (A") (A') (A') (A') (A') (A')
                 (A') (A') (A') (A') (A') (A') (A') (A') (A') (A')
                 (A") (A') (A") (A') (A') (A") (A') (A") (A') (A')
                 (A") (A') (A") (A') (A") (A') (A') (A")
       Virtual   (A") (A") (A') (A") (A') (A') (A') (A') (A') (A')
                 (A") (A') (A") (A') (A') (A") (A') (A") (A') (A')
                 (A") (A") (A') (A') (A') (A") (A') (A') (A") (A')
                 (A') (A') (A") (A') (A') (A') (A') (A') (A") (A')
                 (A") (A') (A') (A') (A') (A") (A') (A') (A") (A')
                 (A") (A') (A') (A") (A") (A') (A') (A') (A') (A')
                 (A") (A') (A") (A') (A') (A") (A') (A') (A') (A')
                 (A") (A') (A") (A') (A") (A') (A') (A') (A") (A')
                 (A') (A') (A") (A') (A') (A') (A") (A') (A') (A")
                 (A') (A") (A') (A') (A') (A") (A') (A') (A") (A")
                 (A') (A") (A') (A') (A') (A') (A') (A') (A") (A')
                 (A') (A") (A') (A') (A") (A') (A') (A") (A') (A")
                 (A") (A') (A') (A") (A') (A") (A") (A') (A") (A')
                 (A") (A') (A") (A') (A") (A') (A') (A') (A") (A')
                 (A') (A") (A') (A") (A') (A') (A") (A') (A") (A')
                 (A") (A') (A') (A') (A') (A") (A') (A') (A") (A')
                 (A') (A') (A") (A") (A') (A') (A') (A") (A') (A")
                 (A') (A") (A') (A') (A') (A') (A") (A") (A') (A")
                 (A') (A') (A') (A") (A') (A') (A") (A') (A") (A')
                 (A') (A") (A') (A') (A") (A') (A") (A') (A") (A')
                 (A') (A') (A") (A") (A') (A') (A') (A") (A') (A')
                 (A') (A') (A") (A") (A') (A") (A') (A') (A") (A')
                 (A") (A') (A") (A") (A') (A") (A') (A") (A") (A')
                 (A') (A') (A') (A') (A") (A") (A") (A') (A') (A')
                 (A") (A') (A") (A') (A") (A') (A") (A') (A') (A')
                 (A") (A") (A") (A') (A") (A') (A") (A') (A') (A')
                 (A") (A') (A') (A') (A') (A") (A") (A') (A") (A')
                 (A') (A') (A") (A") (A') (A') (A') (A') (A') (A")
                 (A') (A') (A") (A') (A') (A') (A') (A') (A") (A')
                 (A") (A") (A') (A') (A') (A") (A') (A') (A") (A')
                 (A') (A') (A') (A') (A') (A") (A') (A') (A") (A")
                 (A') (A') (A') (A") (A') (A") (A") (A') (A") (A')
                 (A") (A') (A') (A") (A") (A') (A") (A') (A') (A')
                 (A') (A") (A') (A') (A') (A") (A') (A') (A') (A')
                 (A") (A') (A') (A") (A') (A") (A') (A') (A") (A')
                 (A") (A") (A') (A') (A') (A') (A') (A") (A') (A')
                 (A') (A') (A') (A') (A') (A') (A') (A') (A') (A')
                 (A') (A')
 The electronic state is 1-A'.
 Alpha  occ. eigenvalues -- -102.66309 -19.68532 -19.63064 -14.79260 -14.79068
 Alpha  occ. eigenvalues --  -10.69042 -10.66261 -10.62260 -10.61346 -10.60895
 Alpha  occ. eigenvalues --  -10.60016 -10.55249  -9.82565  -7.54755  -7.54259
 Alpha  occ. eigenvalues --   -7.54217  -1.24712  -1.15283  -1.12710  -1.04905
 Alpha  occ. eigenvalues --   -0.97622  -0.90573  -0.84300  -0.82817  -0.76182
 Alpha  occ. eigenvalues --   -0.74118  -0.67035  -0.64244  -0.61744  -0.58395
 Alpha  occ. eigenvalues --   -0.58228  -0.56563  -0.54781  -0.52062  -0.50651
 Alpha  occ. eigenvalues --   -0.49345  -0.48355  -0.47933  -0.47317  -0.44539
 Alpha  occ. eigenvalues --   -0.43556  -0.41771  -0.39708  -0.39022  -0.38852
 Alpha  occ. eigenvalues --   -0.38258  -0.33771  -0.32790
 Alpha virt. eigenvalues --   -0.05124  -0.02658   0.06548   0.06616   0.06809
 Alpha virt. eigenvalues --    0.08034   0.10303   0.11752   0.12612   0.13697
 Alpha virt. eigenvalues --    0.13924   0.14587   0.15295   0.16436   0.17925
 Alpha virt. eigenvalues --    0.18036   0.19013   0.21301   0.21961   0.23411
 Alpha virt. eigenvalues --    0.23490   0.24583   0.25560   0.26297   0.27485
 Alpha virt. eigenvalues --    0.27722   0.28282   0.29733   0.30394   0.30858
 Alpha virt. eigenvalues --    0.32929   0.33010   0.34098   0.34189   0.35082
 Alpha virt. eigenvalues --    0.35600   0.38028   0.39148   0.39656   0.39840
 Alpha virt. eigenvalues --    0.40106   0.41015   0.41792   0.42346   0.44252
 Alpha virt. eigenvalues --    0.45709   0.46021   0.46443   0.47211   0.48774
 Alpha virt. eigenvalues --    0.49193   0.49516   0.50277   0.50901   0.51248
 Alpha virt. eigenvalues --    0.51839   0.52223   0.54308   0.54587   0.56286
 Alpha virt. eigenvalues --    0.57942   0.58653   0.59459   0.60651   0.61859
 Alpha virt. eigenvalues --    0.62089   0.63117   0.63891   0.65005   0.67322
 Alpha virt. eigenvalues --    0.67462   0.68763   0.69078   0.70205   0.72195
 Alpha virt. eigenvalues --    0.72560   0.73116   0.75658   0.76336   0.76483
 Alpha virt. eigenvalues --    0.78428   0.80458   0.82256   0.82757   0.84669
 Alpha virt. eigenvalues --    0.86852   0.87501   0.87642   0.91550   0.92949
 Alpha virt. eigenvalues --    0.93302   0.96120   0.96209   0.97475   1.00888
 Alpha virt. eigenvalues --    1.02435   1.03063   1.04253   1.05280   1.09903
 Alpha virt. eigenvalues --    1.10206   1.10737   1.11596   1.13014   1.15534
 Alpha virt. eigenvalues --    1.21408   1.22520   1.26059   1.27654   1.29525
 Alpha virt. eigenvalues --    1.30781   1.31725   1.35337   1.37521   1.38802
 Alpha virt. eigenvalues --    1.38827   1.42757   1.46082   1.47894   1.48626
 Alpha virt. eigenvalues --    1.49740   1.50379   1.50924   1.51244   1.54934
 Alpha virt. eigenvalues --    1.55167   1.55869   1.56767   1.56978   1.57559
 Alpha virt. eigenvalues --    1.58668   1.58748   1.60005   1.61134   1.62111
 Alpha virt. eigenvalues --    1.65034   1.66758   1.69074   1.70771   1.73301
 Alpha virt. eigenvalues --    1.74181   1.74253   1.78553   1.79367   1.81580
 Alpha virt. eigenvalues --    1.81872   1.82117   1.83072   1.83125   1.86100
 Alpha virt. eigenvalues --    1.86466   1.87118   1.87642   1.89336   1.91741
 Alpha virt. eigenvalues --    1.94390   1.96186   1.96550   1.99958   2.00165
 Alpha virt. eigenvalues --    2.01263   2.03922   2.04111   2.06591   2.06882
 Alpha virt. eigenvalues --    2.09280   2.11079   2.11122   2.12328   2.12452
 Alpha virt. eigenvalues --    2.14007   2.15034   2.15045   2.17701   2.19136
 Alpha virt. eigenvalues --    2.21144   2.22667   2.24508   2.25693   2.26093
 Alpha virt. eigenvalues --    2.27378   2.29217   2.30303   2.31678   2.31971
 Alpha virt. eigenvalues --    2.32418   2.34024   2.34759   2.37929   2.39207
 Alpha virt. eigenvalues --    2.40018   2.40417   2.42581   2.46942   2.50866
 Alpha virt. eigenvalues --    2.51611   2.52240   2.52927   2.54401   2.55387
 Alpha virt. eigenvalues --    2.57632   2.59489   2.61180   2.64145   2.65056
 Alpha virt. eigenvalues --    2.66657   2.68602   2.70689   2.71770   2.72786
 Alpha virt. eigenvalues --    2.76542   2.79110   2.80091   2.81337   2.81357
 Alpha virt. eigenvalues --    2.87190   2.88645   2.91045   2.91116   2.92352
 Alpha virt. eigenvalues --    2.94383   2.97835   2.98107   3.00081   3.00848
 Alpha virt. eigenvalues --    3.01172   3.03985   3.04549   3.05821   3.07660
 Alpha virt. eigenvalues --    3.08022   3.11122   3.12639   3.13021   3.13360
 Alpha virt. eigenvalues --    3.14906   3.16658   3.16782   3.18368   3.20097
 Alpha virt. eigenvalues --    3.21507   3.22550   3.22847   3.25419   3.26926
 Alpha virt. eigenvalues --    3.27069   3.28508   3.29308   3.30097   3.31563
 Alpha virt. eigenvalues --    3.31613   3.32268   3.36606   3.36901   3.36942
 Alpha virt. eigenvalues --    3.37422   3.39283   3.40363   3.41413   3.44347
 Alpha virt. eigenvalues --    3.45619   3.46571   3.50214   3.52196   3.53077
 Alpha virt. eigenvalues --    3.53276   3.55727   3.57364   3.61741   3.63099
 Alpha virt. eigenvalues --    3.64709   3.69128   3.71790   3.73203   3.73810
 Alpha virt. eigenvalues --    3.74226   3.79236   3.80015   3.83122   3.83466
 Alpha virt. eigenvalues --    3.91271   3.95009   4.00638   4.00779   4.03181
 Alpha virt. eigenvalues --    4.07917   4.09356   4.12085   4.13484   4.13874
 Alpha virt. eigenvalues --    4.15490   4.17791   4.19888   4.21791   4.28394
 Alpha virt. eigenvalues --    4.29004   4.29433   4.33622   4.34834   4.37784
 Alpha virt. eigenvalues --    4.43334   4.45567   4.51587   4.54988   4.60323
 Alpha virt. eigenvalues --    4.63051   4.68357   4.72121   4.72452   4.75514
 Alpha virt. eigenvalues --    4.77624   4.81922   4.88068   4.91281   4.91912
 Alpha virt. eigenvalues --    4.99564   5.02428   5.04238   5.10419   5.16613
 Alpha virt. eigenvalues --    5.17649   5.20278   5.23478   5.25235   5.29910
 Alpha virt. eigenvalues --    5.35525   5.36441   5.37641   5.42295   5.45724
 Alpha virt. eigenvalues --    5.48151   5.48216   5.58699   5.59794   5.62099
 Alpha virt. eigenvalues --    5.65524   5.72457   5.79268   5.81479   5.88512
 Alpha virt. eigenvalues --    5.95719   6.05320   6.09586   6.14258   6.29483
 Alpha virt. eigenvalues --    6.34446   6.38398   6.54160   6.63301   6.67769
 Alpha virt. eigenvalues --    6.74013   6.85960   6.90876   7.02515   7.11114
 Alpha virt. eigenvalues --    7.27544   7.40686  10.80150  10.87327  11.39682
 Alpha virt. eigenvalues --   22.41575  22.50761  22.64605  22.84020  23.04916
 Alpha virt. eigenvalues --   23.25244  23.45499  25.87996  32.47033  32.78756
 Alpha virt. eigenvalues --   44.03299  44.26740
          Condensed to atoms (all electrons):
               1          2          3          4          5          6
     1  Cl  16.821025   0.377108  -0.091316   0.017934   0.005971   0.001220
     2  C    0.377108   4.825588   0.429375  -0.094006  -0.046765  -0.038360
     3  C   -0.091316   0.429375   5.102422   0.228903   0.513970  -0.095594
     4  C    0.017934  -0.094006   0.228903   5.161623  -0.072195   0.003371
     5  N    0.005971  -0.046765   0.513970  -0.072195   6.456557   0.426208
     6  C    0.001220  -0.038360  -0.095594   0.003371   0.426208   5.192037
     7  C    0.000004   0.001536  -0.004768  -0.001815  -0.030839   0.277831
     8  O   -0.000000   0.000125  -0.000818  -0.000264  -0.012066  -0.112444
     9  C   -0.000000  -0.000013   0.000070   0.000006  -0.000291   0.009306
    10  O   -0.000001   0.000676  -0.001032  -0.000028   0.003925  -0.138017
    11  C    0.001754  -0.073231  -0.028035  -0.001432  -0.055230   0.499386
    12  N   -0.085988   0.504195  -0.050447   0.007449  -0.007078  -0.062080
    13  H    0.000208  -0.001760  -0.036643   0.405577   0.000957  -0.000263
    14  H    0.000823   0.005426  -0.067161   0.430062   0.010701  -0.000749
    15  H    0.000208  -0.001760  -0.036643   0.405577   0.000957  -0.000263
    16  H   -0.000000  -0.000002  -0.000001   0.000005  -0.000095   0.003156
    17  H    0.000000  -0.000001   0.000001  -0.000000  -0.000094  -0.002565
    18  H    0.000000  -0.000001   0.000001  -0.000000  -0.000094  -0.002565
    19  H   -0.000170   0.003111   0.001060   0.000274   0.004072  -0.030981
               7          8          9         10         11         12
     1  Cl   0.000004  -0.000000  -0.000000  -0.000001   0.001754  -0.085988
     2  C    0.001536   0.000125  -0.000013   0.000676  -0.073231   0.504195
     3  C   -0.004768  -0.000818   0.000070  -0.001032  -0.028035  -0.050447
     4  C   -0.001815  -0.000264   0.000006  -0.000028  -0.001432   0.007449
     5  N   -0.030839  -0.012066  -0.000291   0.003925  -0.055230  -0.007078
     6  C    0.277831  -0.112444   0.009306  -0.138017   0.499386  -0.062080
     7  C    4.481646   0.415365  -0.056221   0.658220  -0.072914   0.007165
     8  O    0.415365   7.901970   0.211645  -0.076805   0.007935  -0.000138
     9  C   -0.056221   0.211645   4.860452   0.001667  -0.000569   0.000015
    10  O    0.658220  -0.076805   0.001667   7.857887   0.024637   0.000396
    11  C   -0.072914   0.007935  -0.000569   0.024637   4.871021   0.471052
    12  N    0.007165  -0.000138   0.000015   0.000396   0.471052   6.417844
    13  H    0.000011  -0.000000   0.000000  -0.000000   0.000191  -0.000075
    14  H   -0.000395   0.000109   0.000001   0.000003   0.000846  -0.000419
    15  H    0.000011  -0.000000   0.000000  -0.000000   0.000191  -0.000075
    16  H    0.004219  -0.030798   0.395798   0.001563  -0.000006  -0.000000
    17  H   -0.008583  -0.032838   0.420030   0.004112  -0.000025   0.000001
    18  H   -0.008583  -0.032838   0.420030   0.004112  -0.000025   0.000001
    19  H   -0.010823   0.000313  -0.000148   0.008425   0.408532  -0.032167
              13         14         15         16         17         18
     1  Cl   0.000208   0.000823   0.000208  -0.000000   0.000000   0.000000
     2  C   -0.001760   0.005426  -0.001760  -0.000002  -0.000001  -0.000001
     3  C   -0.036643  -0.067161  -0.036643  -0.000001   0.000001   0.000001
     4  C    0.405577   0.430062   0.405577   0.000005  -0.000000  -0.000000
     5  N    0.000957   0.010701   0.000957  -0.000095  -0.000094  -0.000094
     6  C   -0.000263  -0.000749  -0.000263   0.003156  -0.002565  -0.002565
     7  C    0.000011  -0.000395   0.000011   0.004219  -0.008583  -0.008583
     8  O   -0.000000   0.000109  -0.000000  -0.030798  -0.032838  -0.032838
     9  C    0.000000   0.000001   0.000000   0.395798   0.420030   0.420030
    10  O   -0.000000   0.000003  -0.000000   0.001563   0.004112   0.004112
    11  C    0.000191   0.000846   0.000191  -0.000006  -0.000025  -0.000025
    12  N   -0.000075  -0.000419  -0.000075  -0.000000   0.000001   0.000001
    13  H    0.516443  -0.018130  -0.034641   0.000000   0.000000   0.000000
    14  H   -0.018130   0.491966  -0.018130  -0.000001  -0.000000  -0.000000
    15  H   -0.034641  -0.018130   0.516443   0.000000   0.000000   0.000000
    16  H    0.000000  -0.000001   0.000000   0.523872  -0.024211  -0.024211
    17  H    0.000000  -0.000000   0.000000  -0.024211   0.529679  -0.040840
    18  H    0.000000  -0.000000   0.000000  -0.024211  -0.040840   0.529679
    19  H   -0.000004  -0.000010  -0.000004   0.000003  -0.000011  -0.000011
              19
     1  Cl  -0.000170
     2  C    0.003111
     3  C    0.001060
     4  C    0.000274
     5  N    0.004072
     6  C   -0.030981
     7  C   -0.010823
     8  O    0.000313
     9  C   -0.000148
    10  O    0.008425
    11  C    0.408532
    12  N   -0.032167
    13  H   -0.000004
    14  H   -0.000010
    15  H   -0.000004
    16  H    0.000003
    17  H   -0.000011
    18  H   -0.000011
    19  H    0.464886
 Mulliken charges:
               1
     1  Cl  -0.048779
     2  C    0.108757
     3  C    0.136658
     4  C   -0.491039
     5  N   -0.198571
     6  C    0.071367
     7  C    0.348932
     8  O   -0.238452
     9  C   -0.261779
    10  O   -0.349740
    11  C   -0.054078
    12  N   -0.169650
    13  H    0.168129
    14  H    0.165058
    15  H    0.168129
    16  H    0.150711
    17  H    0.155346
    18  H    0.155346
    19  H    0.183654
 Sum of Mulliken charges =  -0.00000
 Mulliken charges with hydrogens summed into heavy atoms:
               1
     1  Cl  -0.048779
     2  C    0.108757
     3  C    0.136658
     4  C    0.010276
     5  N   -0.198571
     6  C    0.071367
     7  C    0.348932
     8  O   -0.238452
     9  C    0.199625
    10  O   -0.349740
    11  C    0.129576
    12  N   -0.169650
 Electronic spatial extent (au):  <R**2>=           2923.2513
 Charge=              0.0000 electrons
 Dipole moment (field-independent basis, Debye):
    X=              2.5708    Y=              0.3223    Z=             -0.0000  Tot=              2.5909
 Quadrupole moment (field-independent basis, Debye-Ang):
   XX=            -76.4445   YY=            -72.2376   ZZ=            -74.8367
   XY=             -3.3905   XZ=             -0.0000   YZ=             -0.0000
 Traceless Quadrupole moment (field-independent basis, Debye-Ang):
   XX=             -1.9382   YY=              2.2687   ZZ=             -0.3304
   XY=             -3.3905   XZ=             -0.0000   YZ=             -0.0000
 Octapole moment (field-independent basis, Debye-Ang**2):
  XXX=             24.2448  YYY=             -1.2954  ZZZ=             -0.0000  XYY=             44.0696
  XXY=            -26.9635  XXZ=             -0.0000  XZZ=              1.6294  YZZ=             -4.2060
  YYZ=             -0.0000  XYZ=              0.0000
 Hexadecapole moment (field-independent basis, Debye-Ang**3):
 XXXX=          -1015.9824 YYYY=          -2578.5496 ZZZZ=            -88.6787 XXXY=            381.8349
 XXXZ=             -0.0000 YYYX=            269.5755 YYYZ=              0.0000 ZZZX=             -0.0000
 ZZZY=              0.0000 XXYY=           -521.2210 XXZZ=           -190.6336 YYZZ=           -440.8222
 XXYZ=              0.0000 YYXZ=             -0.0000 ZZXY=            136.2202
 N-N= 7.572084728537D+02 E-N=-3.847995944225D+03  KE= 9.879921303707D+02
 Symmetry A'   KE= 9.221508424602D+02
 Symmetry A"   KE= 6.584128791052D+01
 Unable to Open any file for archive entry.
 1\1\GINC-COMPUTE-0-1\SP\RM062X\def2TZVP\C7H7Cl1N2O2\ZTAN64\14-Aug-2024
 \0\\# M062X/def2tzvp int=(grid=ultrafine) nmr=giao guess=read geom=che
 ck\\pyrz1.xyz\\0,1\Cl,0,3.5530453325,-1.9364603996,1.0790258669\C,0,2.
 0568344317,-1.1864386068,0.5508460632\C,0,2.1058673001,0.0574583818,-0
 .1213271904\C,0,3.3862841179,0.7813184145,-0.4116583396\N,0,0.95987771
 74,0.6137050972,-0.5159735466\C,0,-0.1841262151,-0.0350281994,-0.25549
 10293\C,0,-1.4909916766,0.5576149513,-0.6828776034\O,0,-1.3499544614,1
 .7325467068,-1.3101546964\C,0,-2.5809722146,2.3389424406,-1.7389077692
 \O,0,-2.5580868119,0.0138477466,-0.4732553842\C,0,-0.1963622955,-1.261
 0680047,0.409939519\N,0,0.9421365134,-1.836643377,0.8144886961\H,0,4.0
 519086993,0.1695050386,-1.028798767\H,0,3.1572083006,1.7097537645,-0.9
 347606312\H,0,3.9277773413,1.0072524665,0.5124481968\H,0,-2.2928706901
 ,3.2711393372,-2.2224014186\H,0,-3.10539897,1.6850596833,-2.4395302646
 \H,0,-3.2308297566,2.5315767967,-0.8821492601\H,0,-1.128941434,-1.7752
 340951,0.6143058615\\Version=ES64L-G16RevC.01\State=1-A'\HF=-991.10614
 82\RMSD=2.950e-09\Dipole=0.2768832,0.8711083,-0.4511924\Quadrupole=0.8
 603294,-0.7036282,-0.1567012,-2.4795763,1.4368548,0.0492191\PG=CS [SG(
 C7H3Cl1N2O2),X(H4)]\\@
 The archive entry for this job was punched.


 BETTER TO HUNT IN FIELDS, FOR HEALTH UNBOUGHT
 THAN FEE THE DOCTOR FOR A NAUSEOUS DRAUGHT.
 THE WISE, FOR CURE, ON EXERCISE DEPEND;
 GOD NEVER MADE HIS WORK FOR MAN TO MEND.
     -- JOHN DRYDEN (1631-1700)
 Job cpu time:       0 days  0 hours 24 minutes 44.0 seconds.
 Elapsed time:       0 days  0 hours  1 minutes 39.1 seconds.
 File lengths (MBytes):  RWF=    104 Int=      0 D2E=      0 Chk=     17 Scr=      1
 Normal termination of Gaussian 16 at Wed Aug 14 20:36:43 2024.
 
 
-----Kestrel cluster job statistics-----
Time info:

real	7m4.191s
user	110m0.136s
sys	0m15.702s
 
Disk space usage:
17M	/scratch/362998.kestrel.chem.wisc.edu
