 Entering Gaussian System, Link 0=/share/apps/gaussian/g16/g16
 Initial command:
 /share/apps/gaussian/g16/l1.exe "/scratch/363003.kestrel.chem.wisc.edu/Gau-25107.inp" -scrdir="/scratch/363003.kestrel.chem.wisc.edu/"
 Entering Link 1 = /share/apps/gaussian/g16/l1.exe PID=     25108.
  
 Copyright (c) 1988-2019, Gaussian, Inc.  All Rights Reserved.
  
 This is part of the Gaussian(R) 16 program.  It is based on
 the Gaussian(R) 09 system (copyright 2009, Gaussian, Inc.),
 the Gaussian(R) 03 system (copyright 2003, Gaussian, Inc.),
 the Gaussian(R) 98 system (copyright 1998, Gaussian, Inc.),
 the Gaussian(R) 94 system (copyright 1995, Gaussian, Inc.),
 the Gaussian 92(TM) system (copyright 1992, Gaussian, Inc.),
 the Gaussian 90(TM) system (copyright 1990, Gaussian, Inc.),
 the Gaussian 88(TM) system (copyright 1988, Gaussian, Inc.),
 the Gaussian 86(TM) system (copyright 1986, Carnegie Mellon
 University), and the Gaussian 82(TM) system (copyright 1983,
 Carnegie Mellon University). Gaussian is a federally registered
 trademark of Gaussian, Inc.
  
 This software contains proprietary and confidential information,
 including trade secrets, belonging to Gaussian, Inc.
  
 This software is provided under written license and may be
 used, copied, transmitted, or stored only in accord with that
 written license.
  
 The following legend is applicable only to US Government
 contracts under FAR:
  
                    RESTRICTED RIGHTS LEGEND
  
 Use, reproduction and disclosure by the US Government is
 subject to restrictions as set forth in subparagraphs (a)
 and (c) of the Commercial Computer Software - Restricted
 Rights clause in FAR 52.227-19.
  
 Gaussian, Inc.
 340 Quinnipiac St., Bldg. 40, Wallingford CT 06492
  
  
 ---------------------------------------------------------------
 Warning -- This program may not be used in any manner that
 competes with the business of Gaussian, Inc. or will provide
 assistance to any competitor of Gaussian, Inc.  The licensee
 of this program is prohibited from giving any competitor of
 Gaussian, Inc. access to this program.  By using this program,
 the user acknowledges that Gaussian, Inc. is engaged in the
 business of creating and licensing software in the field of
 computational chemistry and represents and warrants to the
 licensee that it is not a competitor of Gaussian, Inc. and that
 it will not use this program in any manner prohibited above.
 ---------------------------------------------------------------
  

 Cite this work as:
 Gaussian 16, Revision C.01,
 M. J. Frisch, G. W. Trucks, H. B. Schlegel, G. E. Scuseria, 
 M. A. Robb, J. R. Cheeseman, G. Scalmani, V. Barone, 
 G. A. Petersson, H. Nakatsuji, X. Li, M. Caricato, A. V. Marenich, 
 J. Bloino, B. G. Janesko, R. Gomperts, B. Mennucci, H. P. Hratchian, 
 J. V. Ortiz, A. F. Izmaylov, J. L. Sonnenberg, D. Williams-Young, 
 F. Ding, F. Lipparini, F. Egidi, J. Goings, B. Peng, A. Petrone, 
 T. Henderson, D. Ranasinghe, V. G. Zakrzewski, J. Gao, N. Rega, 
 G. Zheng, W. Liang, M. Hada, M. Ehara, K. Toyota, R. Fukuda, 
 J. Hasegawa, M. Ishida, T. Nakajima, Y. Honda, O. Kitao, H. Nakai, 
 T. Vreven, K. Throssell, J. A. Montgomery, Jr., J. E. Peralta, 
 F. Ogliaro, M. J. Bearpark, J. J. Heyd, E. N. Brothers, K. N. Kudin, 
 V. N. Staroverov, T. A. Keith, R. Kobayashi, J. Normand, 
 K. Raghavachari, A. P. Rendell, J. C. Burant, S. S. Iyengar, 
 J. Tomasi, M. Cossi, J. M. Millam, M. Klene, C. Adamo, R. Cammi, 
 J. W. Ochterski, R. L. Martin, K. Morokuma, O. Farkas, 
 J. B. Foresman, and D. J. Fox, Gaussian, Inc., Wallingford CT, 2019.
 
 ******************************************
 Gaussian 16:  ES64L-G16RevC.01  3-Jul-2019
                14-Aug-2024 
 ******************************************
 %nprocs=16
 Will use up to   16 processors via shared memory.
 %mem=16GB
 %chk=pyrz3_conf-2.chk
 ----------------------------------------------------------------------
 # B3LYP/6-31G(d,p) symmetry=loose empiricaldispersion=GD3BJ int=(grid=
 ultrafine) opt freq=noraman
 ----------------------------------------------------------------------
 1/18=20,19=15,26=4,38=1/1,3;
 2/9=110,12=2,17=4,18=3,40=1/2;
 3/5=1,6=6,7=101,11=2,25=1,30=1,71=1,74=-5,75=-5,124=41/1,2,3;
 4//1;
 5/5=2,38=5/2;
 6/7=2,8=2,9=2,10=2,28=1/1;
 7//1,2,3,16;
 1/18=20,19=15,26=4/3(2);
 2/9=110/2;
 99//99;
 2/9=110/2;
 3/5=1,6=6,7=101,11=2,25=1,30=1,71=1,74=-5,75=-5,124=41/1,2,3;
 4/5=5,16=3,69=1/1;
 5/5=2,38=5/2;
 7//1,2,3,16;
 1/18=20,19=15,26=4/3(-5);
 2/9=110/2;
 6/7=2,8=2,9=2,10=2,19=2,28=1/1;
 99/9=1/99;
 ---------
 pyrz3.xyz
 ---------
 Symbolic Z-matrix:
 Charge =  0 Multiplicity = 1
 C                    -3.6466   -0.5636    0.8308 
 C                    -2.2519   -0.2371    0.3382 
 N                    -1.2471   -0.359     1.244 
 C                     0.0113   -0.07      0.8192 
 C                     0.2746    0.3393   -0.5008 
 C                     1.6496    0.6631   -0.9931 
 O                     2.6007    0.5198   -0.0373 
 C                     3.9641    0.7873   -0.3365 
 O                     1.8985    1.0233   -2.1467 
 N                    -0.7452    0.4568   -1.3982 
 C                    -2.0038    0.1683   -0.9754 
 H                    -3.918     0.0912    1.6594 
 H                    -4.3916   -0.4405    0.0444 
 H                    -3.692    -1.5952    1.1814 
 H                     0.7973   -0.1727    1.5539 
 H                     4.3257    0.1343   -1.1325 
 H                     4.5802    0.6197    0.5469 
 H                     4.0993    1.8225   -0.6544 
 H                    -2.7936    0.2688   -1.704 
 

 GradGradGradGradGradGradGradGradGradGradGradGradGradGradGradGradGradGrad
 Berny optimization.
 Initialization pass.
                           ----------------------------
                           !    Initial Parameters    !
                           ! (Angstroms and Degrees)  !
 --------------------------                            --------------------------
 ! Name  Definition              Value          Derivative Info.                !
 --------------------------------------------------------------------------------
 ! R1    R(1,2)                  1.5147         estimate D2E/DX2                !
 ! R2    R(1,12)                 1.0904         estimate D2E/DX2                !
 ! R3    R(1,13)                 1.0902         estimate D2E/DX2                !
 ! R4    R(1,14)                 1.0905         estimate D2E/DX2                !
 ! R5    R(2,3)                  1.3583         estimate D2E/DX2                !
 ! R6    R(2,11)                 1.3969         estimate D2E/DX2                !
 ! R7    R(3,4)                  1.3592         estimate D2E/DX2                !
 ! R8    R(4,5)                  1.4069         estimate D2E/DX2                !
 ! R9    R(4,15)                 1.0808         estimate D2E/DX2                !
 ! R10   R(5,6)                  1.4959         estimate D2E/DX2                !
 ! R11   R(5,10)                 1.3635         estimate D2E/DX2                !
 ! R12   R(6,7)                  1.356          estimate D2E/DX2                !
 ! R13   R(6,9)                  1.2339         estimate D2E/DX2                !
 ! R14   R(7,8)                  1.4212         estimate D2E/DX2                !
 ! R15   R(8,16)                 1.0912         estimate D2E/DX2                !
 ! R16   R(8,17)                 1.09           estimate D2E/DX2                !
 ! R17   R(8,18)                 1.0913         estimate D2E/DX2                !
 ! R18   R(10,11)                1.3587         estimate D2E/DX2                !
 ! R19   R(11,19)                1.0792         estimate D2E/DX2                !
 ! A1    A(2,1,12)             110.2951         estimate D2E/DX2                !
 ! A2    A(2,1,13)             111.7326         estimate D2E/DX2                !
 ! A3    A(2,1,14)             110.2914         estimate D2E/DX2                !
 ! A4    A(12,1,13)            108.0736         estimate D2E/DX2                !
 ! A5    A(12,1,14)            108.2644         estimate D2E/DX2                !
 ! A6    A(13,1,14)            108.0756         estimate D2E/DX2                !
 ! A7    A(1,2,3)              116.4179         estimate D2E/DX2                !
 ! A8    A(1,2,11)             122.1327         estimate D2E/DX2                !
 ! A9    A(3,2,11)             121.4493         estimate D2E/DX2                !
 ! A10   A(2,3,4)              117.2178         estimate D2E/DX2                !
 ! A11   A(3,4,5)              121.8945         estimate D2E/DX2                !
 ! A12   A(3,4,15)             116.1443         estimate D2E/DX2                !
 ! A13   A(5,4,15)             121.9612         estimate D2E/DX2                !
 ! A14   A(4,5,6)              122.9407         estimate D2E/DX2                !
 ! A15   A(4,5,10)             120.1734         estimate D2E/DX2                !
 ! A16   A(6,5,10)             116.886          estimate D2E/DX2                !
 ! A17   A(5,6,7)              112.946          estimate D2E/DX2                !
 ! A18   A(5,6,9)              123.7986         estimate D2E/DX2                !
 ! A19   A(7,6,9)              123.2554         estimate D2E/DX2                !
 ! A20   A(6,7,8)              120.3037         estimate D2E/DX2                !
 ! A21   A(7,8,16)             111.0276         estimate D2E/DX2                !
 ! A22   A(7,8,17)             110.0397         estimate D2E/DX2                !
 ! A23   A(7,8,18)             111.0207         estimate D2E/DX2                !
 ! A24   A(16,8,17)            108.1728         estimate D2E/DX2                !
 ! A25   A(16,8,18)            108.3062         estimate D2E/DX2                !
 ! A26   A(17,8,18)            108.175          estimate D2E/DX2                !
 ! A27   A(5,10,11)            118.0163         estimate D2E/DX2                !
 ! A28   A(2,11,10)            121.2486         estimate D2E/DX2                !
 ! A29   A(2,11,19)            122.1329         estimate D2E/DX2                !
 ! A30   A(10,11,19)           116.6185         estimate D2E/DX2                !
 ! D1    D(12,1,2,3)            59.758          estimate D2E/DX2                !
 ! D2    D(12,1,2,11)         -120.2406         estimate D2E/DX2                !
 ! D3    D(13,1,2,3)           179.9893         estimate D2E/DX2                !
 ! D4    D(13,1,2,11)           -0.0093         estimate D2E/DX2                !
 ! D5    D(14,1,2,3)           -59.7793         estimate D2E/DX2                !
 ! D6    D(14,1,2,11)          120.2221         estimate D2E/DX2                !
 ! D7    D(1,2,3,4)            179.999          estimate D2E/DX2                !
 ! D8    D(11,2,3,4)            -0.0024         estimate D2E/DX2                !
 ! D9    D(1,2,11,10)          179.9992         estimate D2E/DX2                !
 ! D10   D(1,2,11,19)           -0.0029         estimate D2E/DX2                !
 ! D11   D(3,2,11,10)            0.0006         estimate D2E/DX2                !
 ! D12   D(3,2,11,19)          179.9986         estimate D2E/DX2                !
 ! D13   D(2,3,4,5)              0.0047         estimate D2E/DX2                !
 ! D14   D(2,3,4,15)           179.9966         estimate D2E/DX2                !
 ! D15   D(3,4,5,6)            179.9979         estimate D2E/DX2                !
 ! D16   D(3,4,5,10)            -0.0053         estimate D2E/DX2                !
 ! D17   D(15,4,5,6)             0.0065         estimate D2E/DX2                !
 ! D18   D(15,4,5,10)         -179.9967         estimate D2E/DX2                !
 ! D19   D(4,5,6,7)             -0.001          estimate D2E/DX2                !
 ! D20   D(4,5,6,9)            179.9988         estimate D2E/DX2                !
 ! D21   D(10,5,6,7)          -179.998          estimate D2E/DX2                !
 ! D22   D(10,5,6,9)             0.0018         estimate D2E/DX2                !
 ! D23   D(4,5,10,11)            0.0032         estimate D2E/DX2                !
 ! D24   D(6,5,10,11)         -179.9997         estimate D2E/DX2                !
 ! D25   D(5,6,7,8)            179.9984         estimate D2E/DX2                !
 ! D26   D(9,6,7,8)             -0.0014         estimate D2E/DX2                !
 ! D27   D(6,7,8,16)           -60.2765         estimate D2E/DX2                !
 ! D28   D(6,7,8,17)           179.9952         estimate D2E/DX2                !
 ! D29   D(6,7,8,18)            60.2686         estimate D2E/DX2                !
 ! D30   D(5,10,11,2)           -0.001          estimate D2E/DX2                !
 ! D31   D(5,10,11,19)        -179.9991         estimate D2E/DX2                !
 --------------------------------------------------------------------------------
 Trust Radius=3.00D-01 FncErr=1.00D-07 GrdErr=1.00D-06 EigMax=2.50D+02 EigMin=1.00D-04
 Number of steps in this run=     90 maximum allowed number of steps=    114.
 GradGradGradGradGradGradGradGradGradGradGradGradGradGradGradGradGradGrad

                          Input orientation:                          
 ---------------------------------------------------------------------
 Center     Atomic      Atomic             Coordinates (Angstroms)
 Number     Number       Type             X           Y           Z
 ---------------------------------------------------------------------
      1          6           0       -3.646600   -0.563600    0.830800
      2          6           0       -2.251900   -0.237100    0.338200
      3          7           0       -1.247100   -0.359000    1.244000
      4          6           0        0.011300   -0.070000    0.819200
      5          6           0        0.274600    0.339300   -0.500800
      6          6           0        1.649600    0.663100   -0.993100
      7          8           0        2.600700    0.519800   -0.037300
      8          6           0        3.964100    0.787300   -0.336500
      9          8           0        1.898500    1.023300   -2.146700
     10          7           0       -0.745200    0.456800   -1.398200
     11          6           0       -2.003800    0.168300   -0.975400
     12          1           0       -3.918000    0.091200    1.659400
     13          1           0       -4.391600   -0.440500    0.044400
     14          1           0       -3.692000   -1.595200    1.181400
     15          1           0        0.797300   -0.172700    1.553900
     16          1           0        4.325700    0.134300   -1.132500
     17          1           0        4.580200    0.619700    0.546900
     18          1           0        4.099300    1.822500   -0.654400
     19          1           0       -2.793600    0.268800   -1.704000
 ---------------------------------------------------------------------
                    Distance matrix (angstroms):
                    1          2          3          4          5
     1  C    0.000000
     2  C    1.514743   0.000000
     3  N    2.443398   1.358292   0.000000
     4  C    3.691071   2.319775   1.359245   0.000000
     5  C    4.238419   2.723850   2.418165   1.406859   0.000000
     6  C    5.734208   4.219529   3.800023   2.550665   1.495938
     7  O    6.399696   4.925609   4.149649   2.790421   2.378687
     8  C    7.817306   6.335872   5.564943   4.206570   3.720230
     9  O    6.490908   4.998916   4.827256   3.681493   2.411202
    10  N    3.798392   2.401401   2.810454   2.401390   1.363497
    11  C    2.548888   1.396942   2.403409   2.708875   2.333579
    12  H    1.090412   2.151567   2.740245   4.021358   4.722914
    13  H    1.090231   2.169333   3.366536   4.485879   4.762221
    14  H    1.090495   2.151583   2.740373   4.021424   4.722923
    15  H    4.519284   3.283245   2.076130   1.080799   2.181089
    16  H    8.240096   6.750238   6.078421   4.739717   4.105177
    17  H    8.316311   6.888777   5.949893   4.628680   4.440100
    18  H    8.240040   6.750181   6.078393   4.739704   4.105095
    19  H    2.801019   2.172546   3.387698   3.787979   3.296439
                    6          7          8          9         10
     6  C    0.000000
     7  O    1.355979   0.000000
     8  C    2.409037   1.421245   0.000000
     9  O    1.233891   2.279510   2.756669   0.000000
    10  N    2.437567   3.612626   4.838796   2.805410   0.000000
    11  C    3.686797   4.712219   6.033837   4.163041   1.358700
    12  H    6.193625   6.749514   8.160617   7.013336   4.421452
    13  H    6.228197   7.058407   8.454011   6.819750   4.022745
    14  H    6.193631   6.749558   8.160649   7.013308   4.421388
    15  H    2.812861   2.502744   3.811015   4.041967   3.389760
    16  H    2.731405   2.079350   1.091228   2.776729   5.088087
    17  H    3.310876   2.066323   1.089984   3.822288   5.671846
    18  H    2.731292   2.079337   1.091320   2.776545   5.087981
    19  H    4.516954   5.651492   6.914145   4.772950   2.079615
                   11         12         13         14         15
    11  C    0.000000
    12  H    3.257649   0.000000
    13  H    2.666874   1.765001   0.000000
    14  H    3.257566   1.767344   1.765090   0.000000
    15  H    3.789433   4.723857   5.410637   4.723990   0.000000
    16  H    6.331541   8.703744   8.815147   8.522254   4.445290
    17  H    6.772755   8.586989   9.048189   8.587064   3.994030
    18  H    6.331449   8.522216   8.815037   8.703746   4.445291
    19  H    1.079232   3.550814   2.472572   3.550655   4.868614
                   16         17         18         19
    16  H    0.000000
    17  H    1.766569   0.000000
    18  H    1.769140   1.766668   0.000000
    19  H    7.143468   7.717682   7.143369   0.000000
 Stoichiometry    C7H8N2O2
 Framework group  C1[X(C7H8N2O2)]
 Deg. of freedom    51
 Full point group                 C1      NOp   1
 Largest Abelian subgroup         C1      NOp   1
 Largest concise Abelian subgroup C1      NOp   1
                         Standard orientation:                         
 ---------------------------------------------------------------------
 Center     Atomic      Atomic             Coordinates (Angstroms)
 Number     Number       Type             X           Y           Z
 ---------------------------------------------------------------------
      1          6           0        3.988336   -0.342139   -0.000017
      2          6           0        2.488253   -0.131905    0.000005
      3          7           0        1.720944   -1.252704   -0.000019
      4          6           0        0.372352   -1.082861    0.000022
      5          6           0       -0.215895    0.195114   -0.000012
      6          6           0       -1.696449    0.409104   -0.000014
      7          8           0       -2.398279   -0.751118   -0.000004
      8          6           0       -3.819361   -0.729625    0.000029
      9          8           0       -2.229098    1.522105   -0.000022
     10          7           0        0.568321    1.310519    0.000021
     11          6           0        1.916621    1.142726    0.000018
     12          1           0        4.291389   -0.904718   -0.883568
     13          1           0        4.528674    0.604771   -0.000184
     14          1           0        4.291410   -0.904488    0.883776
     15          1           0       -0.221385   -1.985969   -0.000056
     16          1           0       -4.203210   -0.218748    0.884588
     17          1           0       -4.208311   -1.747850   -0.000052
     18          1           0       -4.203159   -0.218554   -0.884552
     19          1           0        2.515620    2.040469    0.000060
 ---------------------------------------------------------------------
 Rotational constants (GHZ):           3.4003145           0.5880288           0.5044856
 Standard basis: 6-31G(d,p) (6D, 7F)
 There are   205 symmetry adapted cartesian basis functions of A   symmetry.
 There are   205 symmetry adapted basis functions of A   symmetry.
   205 basis functions,   364 primitive gaussians,   205 cartesian basis functions
    40 alpha electrons       40 beta electrons
       nuclear repulsion energy       576.1181029144 Hartrees.
 NAtoms=   19 NActive=   19 NUniq=   19 SFac= 1.00D+00 NAtFMM=   60 NAOKFM=F Big=F
 Integral buffers will be    131072 words long.
 Raffenetti 2 integral format.
 Two-electron integral symmetry is turned on.
 Nuclear repulsion after empirical dispersion term =      576.0868471945 Hartrees.
 One-electron integrals computed using PRISM.
 NBasis=   205 RedAO= T EigKep=  1.23D-03  NBF=   205
 NBsUse=   205 1.00D-06 EigRej= -1.00D+00 NBFU=   205
 ExpMin= 1.61D-01 ExpMax= 5.48D+03 ExpMxC= 8.25D+02 IAcc=3 IRadAn=         5 AccDes= 0.00D+00
 Harris functional with IExCor=  402 and IRadAn=       5 diagonalized for initial guess.
 HarFok:  IExCor=  402 AccDes= 0.00D+00 IRadAn=         5 IDoV= 1 UseB2=F ITyADJ=14
 ICtDFT=  3500011 ScaDFX=  1.000000  1.000000  1.000000  1.000000
 FoFCou: FMM=F IPFlag=           0 FMFlag=      100000 FMFlg1=           0
         NFxFlg=           0 DoJE=T BraDBF=F KetDBF=T FulRan=T
         wScrn=  0.000000 ICntrl=       500 IOpCl=  0 I1Cent=   200000004 NGrid=           0
         NMat0=    1 NMatS0=      1 NMatT0=    0 NMatD0=    1 NMtDS0=    0 NMtDT0=    0
 Petite list used in FoFCou.
 Requested convergence on RMS density matrix=1.00D-08 within 128 cycles.
 Requested convergence on MAX density matrix=1.00D-06.
 Requested convergence on             energy=1.00D-06.
 No special actions if energy rises.
 Integral accuracy reduced to 1.0D-05 until final iterations.
 Initial convergence to 1.0D-05 achieved.  Increase integral accuracy.
 SCF Done:  E(RB3LYP) =  -531.548730025     A.U. after   15 cycles
            NFock= 15  Conv=0.62D-08     -V/T= 2.0099

 **********************************************************************

            Population analysis using the SCF Density.

 **********************************************************************

 Orbital symmetries:
       Occupied  (A) (A) (A) (A) (A) (A) (A) (A) (A) (A) (A) (A)
                 (A) (A) (A) (A) (A) (A) (A) (A) (A) (A) (A) (A)
                 (A) (A) (A) (A) (A) (A) (A) (A) (A) (A) (A) (A)
                 (A) (A) (A) (A)
       Virtual   (A) (A) (A) (A) (A) (A) (A) (A) (A) (A) (A) (A)
                 (A) (A) (A) (A) (A) (A) (A) (A) (A) (A) (A) (A)
                 (A) (A) (A) (A) (A) (A) (A) (A) (A) (A) (A) (A)
                 (A) (A) (A) (A) (A) (A) (A) (A) (A) (A) (A) (A)
                 (A) (A) (A) (A) (A) (A) (A) (A) (A) (A) (A) (A)
                 (A) (A) (A) (A) (A) (A) (A) (A) (A) (A) (A) (A)
                 (A) (A) (A) (A) (A) (A) (A) (A) (A) (A) (A) (A)
                 (A) (A) (A) (A) (A) (A) (A) (A) (A) (A) (A) (A)
                 (A) (A) (A) (A) (A) (A) (A) (A) (A) (A) (A) (A)
                 (A) (A) (A) (A) (A) (A) (A) (A) (A) (A) (A) (A)
                 (A) (A) (A) (A) (A) (A) (A) (A) (A) (A) (A) (A)
                 (A) (A) (A) (A) (A) (A) (A) (A) (A) (A) (A) (A)
                 (A) (A) (A) (A) (A) (A) (A) (A) (A) (A) (A) (A)
                 (A) (A) (A) (A) (A) (A) (A) (A) (A)
 The electronic state is 1-A.
 Alpha  occ. eigenvalues --  -19.20148 -19.13700 -14.36162 -14.35707 -10.32540
 Alpha  occ. eigenvalues --  -10.25417 -10.25237 -10.24809 -10.24711 -10.24184
 Alpha  occ. eigenvalues --  -10.19810  -1.10327  -1.00885  -0.97821  -0.90509
 Alpha  occ. eigenvalues --   -0.81000  -0.75719  -0.71706  -0.66699  -0.64458
 Alpha  occ. eigenvalues --   -0.58421  -0.54137  -0.52508  -0.48721  -0.48609
 Alpha  occ. eigenvalues --   -0.47395  -0.45812  -0.44946  -0.42448  -0.41625
 Alpha  occ. eigenvalues --   -0.40628  -0.39226  -0.38405  -0.35770  -0.32508
 Alpha  occ. eigenvalues --   -0.30938  -0.30218  -0.27621  -0.27419  -0.25501
 Alpha virt. eigenvalues --   -0.07363  -0.04727   0.03677   0.10330   0.10983
 Alpha virt. eigenvalues --    0.11496   0.12836   0.13054   0.14353   0.15538
 Alpha virt. eigenvalues --    0.16662   0.17069   0.18167   0.19721   0.21766
 Alpha virt. eigenvalues --    0.23961   0.28347   0.29616   0.32616   0.36643
 Alpha virt. eigenvalues --    0.38968   0.41894   0.44503   0.49235   0.50285
 Alpha virt. eigenvalues --    0.50682   0.50924   0.52891   0.53791   0.54386
 Alpha virt. eigenvalues --    0.57701   0.58791   0.59159   0.60924   0.62198
 Alpha virt. eigenvalues --    0.62611   0.65295   0.66312   0.66537   0.71111
 Alpha virt. eigenvalues --    0.71426   0.74049   0.75736   0.79734   0.80011
 Alpha virt. eigenvalues --    0.81320   0.82645   0.82762   0.83890   0.85560
 Alpha virt. eigenvalues --    0.86209   0.89104   0.89226   0.90174   0.90475
 Alpha virt. eigenvalues --    0.93221   0.94158   0.95436   0.97549   0.99879
 Alpha virt. eigenvalues --    1.04479   1.07431   1.07744   1.10250   1.13281
 Alpha virt. eigenvalues --    1.20419   1.22126   1.25984   1.26041   1.27837
 Alpha virt. eigenvalues --    1.30559   1.31412   1.34483   1.39671   1.42023
 Alpha virt. eigenvalues --    1.44916   1.45197   1.46430   1.47877   1.48364
 Alpha virt. eigenvalues --    1.56620   1.61650   1.64914   1.67360   1.70973
 Alpha virt. eigenvalues --    1.74891   1.75082   1.77085   1.80499   1.80955
 Alpha virt. eigenvalues --    1.83557   1.85992   1.86132   1.87459   1.91311
 Alpha virt. eigenvalues --    1.92373   1.95194   1.98107   1.98766   2.02136
 Alpha virt. eigenvalues --    2.02391   2.02956   2.04931   2.04942   2.05839
 Alpha virt. eigenvalues --    2.07672   2.08128   2.12535   2.13170   2.17191
 Alpha virt. eigenvalues --    2.17948   2.19053   2.29480   2.29729   2.30718
 Alpha virt. eigenvalues --    2.31642   2.34666   2.38396   2.41703   2.44656
 Alpha virt. eigenvalues --    2.47451   2.49364   2.52678   2.53350   2.56910
 Alpha virt. eigenvalues --    2.59799   2.60001   2.61076   2.64023   2.65169
 Alpha virt. eigenvalues --    2.66060   2.69279   2.71113   2.76372   2.78849
 Alpha virt. eigenvalues --    2.80703   2.84912   2.86223   2.90265   2.91817
 Alpha virt. eigenvalues --    2.93035   2.96188   3.06255   3.15433   3.17515
 Alpha virt. eigenvalues --    3.19442   3.21399   3.24912   3.40829   3.41746
 Alpha virt. eigenvalues --    3.42185   3.44664   3.44936   3.64107   3.90812
 Alpha virt. eigenvalues --    4.02895   4.07769   4.15621   4.28785   4.32641
 Alpha virt. eigenvalues --    4.38999   4.44189   4.47190   4.60933   4.67631
          Condensed to atoms (all electrons):
               1          2          3          4          5          6
     1  C    5.014012   0.358987  -0.081320   0.005284   0.000774   0.000015
     2  C    0.358987   4.751427   0.407575  -0.054286  -0.029699   0.000185
     3  N   -0.081320   0.407575   6.843102   0.422518  -0.024656   0.003398
     4  C    0.005284  -0.054286   0.422518   4.897365   0.398483  -0.056037
     5  C    0.000774  -0.029699  -0.024656   0.398483   5.020816   0.292380
     6  C    0.000015   0.000185   0.003398  -0.056037   0.292380   4.425763
     7  O   -0.000000  -0.000010   0.000211   0.007491  -0.095901   0.265583
     8  C    0.000000   0.000000  -0.000001  -0.000599   0.007200  -0.020183
     9  O   -0.000000  -0.000025  -0.000027   0.003531  -0.070959   0.542076
    10  N    0.004651  -0.026266  -0.034450  -0.064050   0.422317  -0.068449
    11  C   -0.060357   0.455973  -0.042317  -0.037490  -0.055627   0.006582
    12  H    0.374198  -0.023256  -0.000661   0.000095   0.000019  -0.000000
    13  H    0.372282  -0.030288   0.003975  -0.000205   0.000014  -0.000000
    14  H    0.374188  -0.023259  -0.000663   0.000095   0.000019  -0.000000
    15  H   -0.000152   0.005260  -0.046887   0.380653  -0.054285   0.000574
    16  H    0.000000  -0.000000   0.000000   0.000049  -0.000134  -0.003983
    17  H   -0.000000   0.000000  -0.000000  -0.000058   0.000056   0.003351
    18  H    0.000000  -0.000000   0.000000   0.000049  -0.000134  -0.003985
    19  H   -0.000295  -0.060303   0.003847   0.000080   0.005855  -0.000033
               7          8          9         10         11         12
     1  C   -0.000000   0.000000  -0.000000   0.004651  -0.060357   0.374198
     2  C   -0.000010   0.000000  -0.000025  -0.026266   0.455973  -0.023256
     3  N    0.000211  -0.000001  -0.000027  -0.034450  -0.042317  -0.000661
     4  C    0.007491  -0.000599   0.003531  -0.064050  -0.037490   0.000095
     5  C   -0.095901   0.007200  -0.070959   0.422317  -0.055627   0.000019
     6  C    0.265583  -0.020183   0.542076  -0.068449   0.006582  -0.000000
     7  O    8.246987   0.221165  -0.084836   0.001551  -0.000027   0.000000
     8  C    0.221165   4.710606   0.005458  -0.000066   0.000002  -0.000000
     9  O   -0.084836   0.005458   8.062305   0.000977   0.000336   0.000000
    10  N    0.001551  -0.000066   0.000977   6.807482   0.433586  -0.000129
    11  C   -0.000027   0.000002   0.000336   0.433586   4.834479   0.001382
    12  H    0.000000  -0.000000   0.000000  -0.000129   0.001382   0.557963
    13  H    0.000000  -0.000000   0.000000   0.000129   0.000007  -0.028283
    14  H    0.000000  -0.000000   0.000000  -0.000129   0.001381  -0.024314
    15  H    0.007320  -0.000155   0.000070   0.003576   0.000310  -0.000006
    16  H   -0.031969   0.384460   0.005144   0.000000  -0.000000  -0.000000
    17  H   -0.029460   0.389932   0.000355   0.000001  -0.000000   0.000000
    18  H   -0.031977   0.384454   0.005148   0.000000  -0.000000   0.000000
    19  H    0.000000  -0.000000   0.000006  -0.050425   0.385116  -0.000073
              13         14         15         16         17         18
     1  C    0.372282   0.374188  -0.000152   0.000000  -0.000000   0.000000
     2  C   -0.030288  -0.023259   0.005260  -0.000000   0.000000  -0.000000
     3  N    0.003975  -0.000663  -0.046887   0.000000  -0.000000   0.000000
     4  C   -0.000205   0.000095   0.380653   0.000049  -0.000058   0.000049
     5  C    0.000014   0.000019  -0.054285  -0.000134   0.000056  -0.000134
     6  C   -0.000000  -0.000000   0.000574  -0.003983   0.003351  -0.003985
     7  O    0.000000   0.000000   0.007320  -0.031969  -0.029460  -0.031977
     8  C   -0.000000  -0.000000  -0.000155   0.384460   0.389932   0.384454
     9  O    0.000000   0.000000   0.000070   0.005144   0.000355   0.005148
    10  N    0.000129  -0.000129   0.003576   0.000000   0.000001   0.000000
    11  C    0.000007   0.001381   0.000310  -0.000000  -0.000000  -0.000000
    12  H   -0.028283  -0.024314  -0.000006  -0.000000   0.000000   0.000000
    13  H    0.593277  -0.028277   0.000002  -0.000000   0.000000  -0.000000
    14  H   -0.028277   0.557986  -0.000006   0.000000   0.000000  -0.000000
    15  H    0.000002  -0.000006   0.572114   0.000024  -0.000031   0.000024
    16  H   -0.000000   0.000000   0.000024   0.587162  -0.036271  -0.037074
    17  H    0.000000   0.000000  -0.000031  -0.036271   0.583830  -0.036260
    18  H   -0.000000  -0.000000   0.000024  -0.037074  -0.036260   0.587176
    19  H    0.002906  -0.000073   0.000033  -0.000000   0.000000  -0.000000
              19
     1  C   -0.000295
     2  C   -0.060303
     3  N    0.003847
     4  C    0.000080
     5  C    0.005855
     6  C   -0.000033
     7  O    0.000000
     8  C   -0.000000
     9  O    0.000006
    10  N   -0.050425
    11  C    0.385116
    12  H   -0.000073
    13  H    0.002906
    14  H   -0.000073
    15  H    0.000033
    16  H   -0.000000
    17  H    0.000000
    18  H   -0.000000
    19  H    0.598946
 Mulliken charges:
               1
     1  C   -0.362268
     2  C    0.267986
     3  N   -0.453645
     4  C    0.097031
     5  C    0.183464
     6  C    0.612761
     7  O   -0.476129
     8  C   -0.082274
     9  O   -0.469559
    10  N   -0.430307
    11  C    0.076663
    12  H    0.143064
    13  H    0.114462
    14  H    0.143052
    15  H    0.131561
    16  H    0.132591
    17  H    0.124555
    18  H    0.132578
    19  H    0.114414
 Sum of Mulliken charges =  -0.00000
 Mulliken charges with hydrogens summed into heavy atoms:
               1
     1  C    0.038310
     2  C    0.267986
     3  N   -0.453645
     4  C    0.228592
     5  C    0.183464
     6  C    0.612761
     7  O   -0.476129
     8  C    0.307450
     9  O   -0.469559
    10  N   -0.430307
    11  C    0.191077
 Electronic spatial extent (au):  <R**2>=           2163.2134
 Charge=             -0.0000 electrons
 Dipole moment (field-independent basis, Debye):
    X=              0.9608    Y=             -2.0803    Z=              0.0001  Tot=              2.2915
 Quadrupole moment (field-independent basis, Debye-Ang):
   XX=            -46.5587   YY=            -69.8787   ZZ=            -62.0583
   XY=             10.8541   XZ=             -0.0004   YZ=             -0.0000
 Traceless Quadrupole moment (field-independent basis, Debye-Ang):
   XX=             12.9399   YY=            -10.3801   ZZ=             -2.5598
   XY=             10.8541   XZ=             -0.0004   YZ=             -0.0000
 Octapole moment (field-independent basis, Debye-Ang**2):
  XXX=            -26.4899  YYY=             -6.2802  ZZZ=              0.0003  XYY=             -0.0186
  XXY=            -11.4217  XXZ=              0.0015  XZZ=             -7.5727  YZZ=              0.4287
  YYZ=             -0.0001  XYZ=              0.0002
 Hexadecapole moment (field-independent basis, Debye-Ang**3):
 XXXX=          -1971.4898 YYYY=           -435.6094 ZZZZ=            -69.9267 XXXY=             81.8830
 XXXZ=             -0.0134 YYYX=             44.6128 YYYZ=              0.0012 ZZZX=             -0.0001
 ZZZY=             -0.0004 XXYY=           -461.2586 XXZZ=           -386.2812 YYZZ=            -82.7423
 XXYZ=             -0.0022 YYXZ=             -0.0007 ZZXY=             -7.2136
 N-N= 5.760868471945D+02 E-N=-2.390737236030D+03  KE= 5.263405252861D+02
 Calling FoFJK, ICntrl=      2127 FMM=F ISym2X=0 I1Cent= 0 IOpClX= 0 NMat=1 NMatS=1 NMatT=0.
 ***** Axes restored to original set *****
 -------------------------------------------------------------------
 Center     Atomic                   Forces (Hartrees/Bohr)
 Number     Number              X              Y              Z
 -------------------------------------------------------------------
      1        6           0.005546770    0.002221477   -0.005370933
      2        6           0.001012876   -0.004429664    0.016137888
      3        7           0.009979622    0.005969490   -0.016370976
      4        6          -0.022849797   -0.002673633   -0.001320903
      5        6          -0.022946210   -0.002849632   -0.000827552
      6        6           0.018507095    0.014086132   -0.040964333
      7        8          -0.013943749   -0.006081085    0.014841247
      8        6           0.006701718    0.004738346   -0.013350387
      9        8          -0.005888575   -0.010587239    0.034582813
     10        7          -0.003095050   -0.003830094    0.012067776
     11        6           0.037948332    0.005082654   -0.000000609
     12        1           0.000406428    0.000345840    0.002799206
     13        1          -0.000310826    0.000589531   -0.002240286
     14        1           0.000666662   -0.001580057    0.002220039
     15        1           0.002997923    0.000195825    0.000711854
     16        1          -0.001542191   -0.000761341   -0.002765029
     17        1          -0.007886439   -0.002472454    0.005006902
     18        1          -0.001863221    0.001617591   -0.002056238
     19        1          -0.003441369    0.000418313   -0.003100477
 -------------------------------------------------------------------
 Cartesian Forces:  Max     0.040964333 RMS     0.011755492

 GradGradGradGradGradGradGradGradGradGradGradGradGradGradGradGradGradGrad
 Berny optimization.
 FormGI is forming the generalized inverse of G from B-inverse, IUseBI=4.
 Internal  Forces:  Max     0.036610714 RMS     0.008180581
 Search for a local minimum.
 Step number   1 out of a maximum of   90
 All quantities printed in internal units (Hartrees-Bohrs-Radians)
 Mixed Optimization -- RFO/linear search
 Second derivative matrix not updated -- first step.
 ITU=  0
     Eigenvalues ---    0.00571   0.00820   0.01300   0.01411   0.01425
     Eigenvalues ---    0.01616   0.02058   0.02084   0.02160   0.02176
     Eigenvalues ---    0.02225   0.02274   0.07085   0.07252   0.10105
     Eigenvalues ---    0.10225   0.16000   0.16000   0.16000   0.16000
     Eigenvalues ---    0.16000   0.16000   0.16000   0.16000   0.22857
     Eigenvalues ---    0.23849   0.25000   0.25000   0.25000   0.25000
     Eigenvalues ---    0.25000   0.25000   0.30879   0.32807   0.34661
     Eigenvalues ---    0.34671   0.34755   0.34765   0.34786   0.34815
     Eigenvalues ---    0.35898   0.36087   0.41843   0.42273   0.45460
     Eigenvalues ---    0.49100   0.51521   0.52888   0.53157   0.53769
     Eigenvalues ---    0.89484
 RFO step:  Lambda=-1.23395891D-02 EMin= 5.70931384D-03
 Linear search not attempted -- first point.
 Iteration  1 RMS(Cart)=  0.05796492 RMS(Int)=  0.00056353
 Iteration  2 RMS(Cart)=  0.00098962 RMS(Int)=  0.00009998
 Iteration  3 RMS(Cart)=  0.00000024 RMS(Int)=  0.00009998
 Variable       Old X    -DE/DX   Delta X   Delta X   Delta X     New X
                                 (Linear)    (Quad)   (Total)
    R1        2.86245  -0.00699   0.00000  -0.02177  -0.02177   2.84068
    R2        2.06058   0.00223   0.00000   0.00621   0.00621   2.06679
    R3        2.06024   0.00189   0.00000   0.00526   0.00526   2.06550
    R4        2.06074   0.00218   0.00000   0.00606   0.00606   2.06680
    R5        2.56680  -0.01773   0.00000  -0.03180  -0.03182   2.53498
    R6        2.63984   0.00343   0.00000   0.00779   0.00776   2.64759
    R7        2.56860  -0.02416   0.00000  -0.04425  -0.04423   2.52437
    R8        2.65858  -0.00641   0.00000  -0.01458  -0.01455   2.64403
    R9        2.04241   0.00265   0.00000   0.00712   0.00712   2.04954
   R10        2.82691  -0.00377   0.00000  -0.01108  -0.01108   2.81583
   R11        2.57664  -0.02616   0.00000  -0.04964  -0.04962   2.52702
   R12        2.56243  -0.01151   0.00000  -0.02092  -0.02092   2.54151
   R13        2.33172  -0.03661   0.00000  -0.04036  -0.04036   2.29136
   R14        2.68576  -0.00104   0.00000  -0.00240  -0.00240   2.68336
   R15        2.06212   0.00196   0.00000   0.00546   0.00546   2.06759
   R16        2.05977  -0.00002   0.00000  -0.00006  -0.00006   2.05971
   R17        2.06230   0.00190   0.00000   0.00530   0.00530   2.06760
   R18        2.56757  -0.02750   0.00000  -0.05072  -0.05074   2.51683
   R19        2.03945   0.00465   0.00000   0.01246   0.01246   2.05191
    A1        1.92501  -0.00035   0.00000  -0.00346  -0.00348   1.92153
    A2        1.95010  -0.00129   0.00000  -0.00457  -0.00457   1.94553
    A3        1.92495  -0.00034   0.00000  -0.00342  -0.00344   1.92151
    A4        1.88624   0.00146   0.00000   0.01129   0.01129   1.89753
    A5        1.88957  -0.00086   0.00000  -0.01079  -0.01084   1.87873
    A6        1.88627   0.00145   0.00000   0.01124   0.01124   1.89751
    A7        2.03188   0.00180   0.00000   0.00596   0.00598   2.03786
    A8        2.13162   0.00081   0.00000   0.00221   0.00224   2.13386
    A9        2.11969  -0.00261   0.00000  -0.00817  -0.00822   2.11147
   A10        2.04584  -0.00564   0.00000  -0.01950  -0.01950   2.02634
   A11        2.12746   0.00234   0.00000   0.00881   0.00886   2.13633
   A12        2.02710   0.00045   0.00000   0.00503   0.00500   2.03210
   A13        2.12862  -0.00280   0.00000  -0.01384  -0.01387   2.11476
   A14        2.14572  -0.00344   0.00000  -0.01154  -0.01157   2.13415
   A15        2.09742   0.00815   0.00000   0.02791   0.02796   2.12538
   A16        2.04004  -0.00471   0.00000  -0.01636  -0.01639   2.02365
   A17        1.97128  -0.01035   0.00000  -0.03946  -0.03946   1.93182
   A18        2.16069   0.00697   0.00000   0.02658   0.02658   2.18727
   A19        2.15121   0.00338   0.00000   0.01288   0.01288   2.16409
   A20        2.09970  -0.02450   0.00000  -0.09340  -0.09340   2.00629
   A21        1.93780   0.00000   0.00000   0.00072   0.00046   1.93826
   A22        1.92056  -0.01328   0.00000  -0.07849  -0.07891   1.84165
   A23        1.93768   0.00002   0.00000   0.00085   0.00059   1.93827
   A24        1.88797   0.00635   0.00000   0.03548   0.03506   1.92303
   A25        1.89030   0.00113   0.00000   0.00921   0.00907   1.89937
   A26        1.88801   0.00634   0.00000   0.03543   0.03502   1.92303
   A27        2.05977  -0.00984   0.00000  -0.04153  -0.04153   2.01825
   A28        2.11619   0.00760   0.00000   0.03247   0.03242   2.14861
   A29        2.13162  -0.00386   0.00000  -0.01657  -0.01655   2.11507
   A30        2.03538  -0.00374   0.00000  -0.01590  -0.01587   2.01950
    D1        1.04297  -0.00075   0.00000  -0.00887  -0.00885   1.03412
    D2       -2.09859  -0.00075   0.00000  -0.00889  -0.00887  -2.10747
    D3        3.14141   0.00000   0.00000   0.00002   0.00002   3.14143
    D4       -0.00016   0.00000   0.00000  -0.00000  -0.00000  -0.00016
    D5       -1.04335   0.00075   0.00000   0.00888   0.00886  -1.03448
    D6        2.09827   0.00075   0.00000   0.00886   0.00884   2.10711
    D7        3.14157   0.00000   0.00000   0.00002   0.00002   3.14159
    D8       -0.00004   0.00000   0.00000   0.00004   0.00004  -0.00000
    D9        3.14158   0.00000   0.00000   0.00001   0.00001   3.14159
   D10       -0.00005   0.00000   0.00000   0.00004   0.00004  -0.00001
   D11        0.00001  -0.00000   0.00000  -0.00001  -0.00001   0.00000
   D12        3.14157   0.00000   0.00000   0.00002   0.00002   3.14159
   D13        0.00008  -0.00000   0.00000  -0.00008  -0.00008   0.00000
   D14        3.14153   0.00000   0.00000   0.00007   0.00007  -3.14158
   D15        3.14156   0.00000   0.00000   0.00005   0.00005  -3.14158
   D16       -0.00009   0.00000   0.00000   0.00009   0.00009  -0.00000
   D17        0.00011  -0.00000   0.00000  -0.00010  -0.00010   0.00001
   D18       -3.14153  -0.00000   0.00000  -0.00007  -0.00007   3.14158
   D19       -0.00002   0.00000   0.00000   0.00000   0.00000  -0.00002
   D20        3.14157   0.00000   0.00000   0.00003   0.00003  -3.14159
   D21       -3.14156  -0.00000   0.00000  -0.00003  -0.00003  -3.14159
   D22        0.00003  -0.00000   0.00000  -0.00001  -0.00001   0.00002
   D23        0.00006  -0.00000   0.00000  -0.00006  -0.00006   0.00000
   D24       -3.14159  -0.00000   0.00000  -0.00002  -0.00002   3.14158
   D25        3.14156   0.00000   0.00000   0.00004   0.00004  -3.14158
   D26       -0.00002   0.00000   0.00000   0.00001   0.00001  -0.00001
   D27       -1.05202  -0.00072   0.00000  -0.00635  -0.00611  -1.05813
   D28        3.14151   0.00000   0.00000   0.00002   0.00002   3.14153
   D29        1.05189   0.00072   0.00000   0.00635   0.00611   1.05800
   D30       -0.00002   0.00000   0.00000   0.00002   0.00002  -0.00000
   D31       -3.14158  -0.00000   0.00000  -0.00001  -0.00001  -3.14159
         Item               Value     Threshold  Converged?
 Maximum Force            0.036611     0.000450     NO 
 RMS     Force            0.008181     0.000300     NO 
 Maximum Displacement     0.208628     0.001800     NO 
 RMS     Displacement     0.058750     0.001200     NO 
 Predicted change in Energy=-6.399506D-03
 GradGradGradGradGradGradGradGradGradGradGradGradGradGradGradGradGradGrad

                          Input orientation:                          
 ---------------------------------------------------------------------
 Center     Atomic      Atomic             Coordinates (Angstroms)
 Number     Number       Type             X           Y           Z
 ---------------------------------------------------------------------
      1          6           0       -3.597362   -0.553399    0.818022
      2          6           0       -2.206310   -0.233366    0.346612
      3          7           0       -1.220004   -0.356356    1.247487
      4          6           0        0.010581   -0.068745    0.814587
      5          6           0        0.267203    0.337895   -0.499353
      6          6           0        1.641062    0.658023   -0.979306
      7          8           0        2.538868    0.498331    0.009238
      8          6           0        3.883073    0.780583   -0.351006
      9          8           0        1.925887    1.014474   -2.102720
     10          7           0       -0.711672    0.462346   -1.401865
     11          6           0       -1.936992    0.174699   -0.966355
     12          1           0       -3.870649    0.098613    1.652507
     13          1           0       -4.330522   -0.424768    0.017641
     14          1           0       -3.644876   -1.586141    1.174914
     15          1           0        0.812162   -0.166408    1.538618
     16          1           0        4.220827    0.121538   -1.156413
     17          1           0        4.469799    0.603945    0.550410
     18          1           0        3.993163    1.819676   -0.675467
     19          1           0       -2.732739    0.275359   -1.698251
 ---------------------------------------------------------------------
                    Distance matrix (angstroms):
                    1          2          3          4          5
     1  C    0.000000
     2  C    1.503221   0.000000
     3  N    2.423859   1.341455   0.000000
     4  C    3.640350   2.271718   1.335838   0.000000
     5  C    4.179084   2.675867   2.396919   1.399160   0.000000
     6  C    5.669128   4.165922   3.764741   2.530753   1.490076
     7  O    6.278023   4.813098   4.048811   2.713374   2.333424
     8  C    7.687850   6.212515   5.467102   4.132331   3.645887
     9  O    6.441680   4.963002   4.795800   3.654100   2.404117
    10  N    3.779794   2.403150   2.819174   2.390892   1.337240
    11  C    2.543807   1.401046   2.386878   2.650293   2.259026
    12  H    1.093696   2.141400   2.719734   3.974174   4.670072
    13  H    1.093014   2.158039   3.345523   4.427985   4.689138
    14  H    1.093702   2.141391   2.719860   3.974253   4.670059
    15  H    4.484743   3.246002   2.061683   1.084570   2.169016
    16  H    8.091848   6.610078   5.967392   4.652657   4.013687
    17  H    8.154149   6.731497   5.812224   4.517403   4.339884
    18  H    8.091852   6.610075   5.967410   4.652672   4.013660
    19  H    2.786763   2.171956   3.371173   3.736116   3.231241
                    6          7          8          9         10
     6  C    0.000000
     7  O    1.344908   0.000000
     8  C    2.331607   1.419975   0.000000
     9  O    1.212536   2.258876   2.637003   0.000000
    10  N    2.398375   3.543799   4.724114   2.784378   0.000000
    11  C    3.610573   4.592367   5.883783   4.113196   1.331848
    12  H    6.133379   6.628877   8.037372   6.967091   4.409152
    13  H    6.150297   6.931140   8.309748   6.760918   3.987235
    14  H    6.133358   6.628915   8.037401   6.967029   4.409056
    15  H    2.776095   2.400499   3.727998   3.986755   3.371029
    16  H    2.640903   2.080794   1.094120   2.638101   4.950347
    17  H    3.216319   2.008113   1.089954   3.698530   5.538868
    18  H    2.640859   2.080805   1.094125   2.637997   4.950300
    19  H    4.448983   5.545725   6.770471   4.734203   2.051224
                   11         12         13         14         15
    11  C    0.000000
    12  H    3.256264   0.000000
    13  H    2.656425   1.777132   0.000000
    14  H    3.256142   1.765634   1.777127   0.000000
    15  H    3.734848   4.691686   5.369107   4.691812   0.000000
    16  H    6.160980   8.565193   8.648839   8.379769   4.354895
    17  H    6.597863   8.428110   8.876246   8.428192   3.866304
    18  H    6.160949   8.379800   8.648795   8.565228   4.354937
    19  H    1.085826   3.543114   2.446912   3.542917   4.820664
                   16         17         18         19
    16  H    0.000000
    17  H    1.791075   0.000000
    18  H    1.779554   1.791078   0.000000
    19  H    6.976340   7.552549   6.976299   0.000000
 Stoichiometry    C7H8N2O2
 Framework group  C1[X(C7H8N2O2)]
 Deg. of freedom    51
 Full point group                 C1      NOp   1
 Largest Abelian subgroup         C1      NOp   1
 Largest concise Abelian subgroup C1      NOp   1
                         Standard orientation:                         
 ---------------------------------------------------------------------
 Center     Atomic      Atomic             Coordinates (Angstroms)
 Number     Number       Type             X           Y           Z
 ---------------------------------------------------------------------
      1          6           0        3.941357   -0.313736    0.000005
      2          6           0        2.449362   -0.130365    0.000001
      3          7           0        1.703752   -1.245518   -0.000005
      4          6           0        0.379856   -1.067301   -0.000009
      5          6           0       -0.205597    0.203484   -0.000010
      6          6           0       -1.682780    0.399070    0.000006
      7          8           0       -2.318886   -0.785897    0.000002
      8          6           0       -3.736541   -0.704769    0.000005
      9          8           0       -2.247898    1.471863   -0.000001
     10          7           0        0.532266    1.318728   -0.000005
     11          6           0        1.851626    1.136775   -0.000000
     12          1           0        4.250271   -0.880793   -0.882713
     13          1           0        4.462517    0.647031   -0.000158
     14          1           0        4.250286   -0.880487    0.882921
     15          1           0       -0.228160   -1.965414   -0.000005
     16          1           0       -4.100344   -0.182296    0.889819
     17          1           0       -4.087688   -1.736610   -0.000068
     18          1           0       -4.100353   -0.182166   -0.889734
     19          1           0        2.451899    2.041590    0.000010
 ---------------------------------------------------------------------
 Rotational constants (GHZ):           3.4686969           0.6079267           0.5206447
 Standard basis: 6-31G(d,p) (6D, 7F)
 There are   205 symmetry adapted cartesian basis functions of A   symmetry.
 There are   205 symmetry adapted basis functions of A   symmetry.
   205 basis functions,   364 primitive gaussians,   205 cartesian basis functions
    40 alpha electrons       40 beta electrons
       nuclear repulsion energy       583.4985903653 Hartrees.
 NAtoms=   19 NActive=   19 NUniq=   19 SFac= 1.00D+00 NAtFMM=   60 NAOKFM=F Big=F
 Integral buffers will be    131072 words long.
 Raffenetti 2 integral format.
 Two-electron integral symmetry is turned on.
 Nuclear repulsion after empirical dispersion term =      583.4669529036 Hartrees.
 One-electron integrals computed using PRISM.
 NBasis=   205 RedAO= T EigKep=  1.21D-03  NBF=   205
 NBsUse=   205 1.00D-06 EigRej= -1.00D+00 NBFU=   205
 Initial guess from the checkpoint file:  "pyrz3_conf-2.chk"
 B after Tr=    -0.000000   -0.000000    0.000000
         Rot=    0.999994    0.000002   -0.000000   -0.003435 Ang=   0.39 deg.
 ExpMin= 1.61D-01 ExpMax= 5.48D+03 ExpMxC= 8.25D+02 IAcc=3 IRadAn=         5 AccDes= 0.00D+00
 Harris functional with IExCor=  402 and IRadAn=       5 diagonalized for initial guess.
 HarFok:  IExCor=  402 AccDes= 0.00D+00 IRadAn=         5 IDoV= 1 UseB2=F ITyADJ=14
 ICtDFT=  3500011 ScaDFX=  1.000000  1.000000  1.000000  1.000000
 FoFCou: FMM=F IPFlag=           0 FMFlag=      100000 FMFlg1=           0
         NFxFlg=           0 DoJE=T BraDBF=F KetDBF=T FulRan=T
         wScrn=  0.000000 ICntrl=       500 IOpCl=  0 I1Cent=   200000004 NGrid=           0
         NMat0=    1 NMatS0=      1 NMatT0=    0 NMatD0=    1 NMtDS0=    0 NMtDT0=    0
 Petite list used in FoFCou.
 Requested convergence on RMS density matrix=1.00D-08 within 128 cycles.
 Requested convergence on MAX density matrix=1.00D-06.
 Requested convergence on             energy=1.00D-06.
 No special actions if energy rises.
 Integral accuracy reduced to 1.0D-05 until final iterations.
 Initial convergence to 1.0D-05 achieved.  Increase integral accuracy.
 SCF Done:  E(RB3LYP) =  -531.554384605     A.U. after   12 cycles
            NFock= 12  Conv=0.91D-08     -V/T= 2.0091
 Calling FoFJK, ICntrl=      2127 FMM=F ISym2X=0 I1Cent= 0 IOpClX= 0 NMat=1 NMatS=1 NMatT=0.
 ***** Axes restored to original set *****
 -------------------------------------------------------------------
 Center     Atomic                   Forces (Hartrees/Bohr)
 Number     Number              X              Y              Z
 -------------------------------------------------------------------
      1        6          -0.000245543    0.000870188   -0.003200741
      2        6          -0.005163624   -0.001825800    0.004009647
      3        7           0.002216336    0.001376252   -0.003808796
      4        6          -0.000335674   -0.001303242    0.004439144
      5        6           0.000126904    0.000131986   -0.000413092
      6        6          -0.000068041    0.002582607   -0.009134508
      7        8          -0.001849072   -0.001586862    0.004725380
      8        6           0.010674201    0.001432092    0.000005211
      9        8          -0.000831773   -0.001451188    0.004723742
     10        7          -0.003228042   -0.001247875    0.002876407
     11        6           0.001196200    0.001576991   -0.005001472
     12        1          -0.000040850   -0.000347301    0.000590110
     13        1          -0.000039181   -0.000102915    0.000344354
     14        1          -0.000084805   -0.000027226    0.000679955
     15        1           0.001223960    0.000482124   -0.001121437
     16        1          -0.000867437    0.000721612    0.000113796
     17        1           0.000623997    0.000151271   -0.000239959
     18        1          -0.000656367   -0.000866371   -0.000333855
     19        1          -0.002651189   -0.000566343    0.000746112
 -------------------------------------------------------------------
 Cartesian Forces:  Max     0.010674201 RMS     0.002726897

 GradGradGradGradGradGradGradGradGradGradGradGradGradGradGradGradGradGrad
 Berny optimization.
 Using GEDIIS/GDIIS optimizer.
 FormGI is forming the generalized inverse of G from B-inverse, IUseBI=4.
 Internal  Forces:  Max     0.009654540 RMS     0.002233176
 Search for a local minimum.
 Step number   2 out of a maximum of   90
 All quantities printed in internal units (Hartrees-Bohrs-Radians)
 Mixed Optimization -- RFO/linear search
 Update second derivatives using D2CorX and points    1    2
 DE= -5.65D-03 DEPred=-6.40D-03 R= 8.84D-01
 TightC=F SS=  1.41D+00  RLast= 1.93D-01 DXNew= 5.0454D-01 5.7945D-01
 Trust test= 8.84D-01 RLast= 1.93D-01 DXMaxT set to 5.05D-01
 ITU=  1  0
 Use linear search instead of GDIIS.
     Eigenvalues ---    0.00571   0.00820   0.01294   0.01411   0.01421
     Eigenvalues ---    0.01627   0.02057   0.02084   0.02160   0.02174
     Eigenvalues ---    0.02225   0.02274   0.07098   0.07302   0.10174
     Eigenvalues ---    0.10681   0.15462   0.16000   0.16000   0.16000
     Eigenvalues ---    0.16000   0.16000   0.16000   0.16412   0.23012
     Eigenvalues ---    0.23602   0.24349   0.25000   0.25000   0.25000
     Eigenvalues ---    0.25000   0.27799   0.30782   0.33503   0.34665
     Eigenvalues ---    0.34709   0.34756   0.34763   0.34811   0.34821
     Eigenvalues ---    0.35875   0.35992   0.41250   0.42541   0.45435
     Eigenvalues ---    0.49272   0.51470   0.52082   0.53038   0.60657
     Eigenvalues ---    0.86162
 RFO step:  Lambda=-8.25646612D-04 EMin= 5.70931384D-03
 Quartic linear search produced a step of -0.09629.
 Iteration  1 RMS(Cart)=  0.01672103 RMS(Int)=  0.00004282
 Iteration  2 RMS(Cart)=  0.00004649 RMS(Int)=  0.00001350
 Iteration  3 RMS(Cart)=  0.00000000 RMS(Int)=  0.00001350
 Variable       Old X    -DE/DX   Delta X   Delta X   Delta X     New X
                                 (Linear)    (Quad)   (Total)
    R1        2.84068  -0.00020   0.00210  -0.00441  -0.00232   2.83836
    R2        2.06679   0.00025  -0.00060   0.00174   0.00114   2.06793
    R3        2.06550  -0.00024  -0.00051   0.00030  -0.00021   2.06529
    R4        2.06680   0.00025  -0.00058   0.00171   0.00113   2.06792
    R5        2.53498   0.00248   0.00306  -0.00128   0.00178   2.53676
    R6        2.64759   0.00151  -0.00075   0.00426   0.00351   2.65111
    R7        2.52437   0.00122   0.00426  -0.00551  -0.00126   2.52311
    R8        2.64403   0.00102   0.00140  -0.00040   0.00099   2.64502
    R9        2.04954   0.00011  -0.00069   0.00152   0.00084   2.05038
   R10        2.81583   0.00673   0.00107   0.01656   0.01763   2.83346
   R11        2.52702   0.00419   0.00478  -0.00118   0.00360   2.53061
   R12        2.54151   0.00845   0.00201   0.01061   0.01262   2.55413
   R13        2.29136  -0.00500   0.00389  -0.01180  -0.00792   2.28344
   R14        2.68336   0.00965   0.00023   0.02018   0.02041   2.70378
   R15        2.06759  -0.00079  -0.00053  -0.00109  -0.00162   2.06597
   R16        2.05971   0.00011   0.00001   0.00028   0.00029   2.06000
   R17        2.06760  -0.00079  -0.00051  -0.00113  -0.00164   2.06596
   R18        2.51683   0.00117   0.00489  -0.00663  -0.00174   2.51509
   R19        2.05191   0.00139  -0.00120   0.00563   0.00443   2.05635
    A1        1.92153   0.00011   0.00034  -0.00085  -0.00052   1.92101
    A2        1.94553   0.00051   0.00044   0.00358   0.00401   1.94954
    A3        1.92151   0.00011   0.00033  -0.00082  -0.00050   1.92101
    A4        1.89753  -0.00005  -0.00109   0.00334   0.00224   1.89977
    A5        1.87873  -0.00065   0.00104  -0.00892  -0.00788   1.87085
    A6        1.89751  -0.00006  -0.00108   0.00333   0.00224   1.89975
    A7        2.03786   0.00328  -0.00058   0.01288   0.01230   2.05016
    A8        2.13386  -0.00065  -0.00022  -0.00194  -0.00216   2.13170
    A9        2.11147  -0.00264   0.00079  -0.01094  -0.01014   2.10133
   A10        2.02634   0.00452   0.00188   0.01278   0.01466   2.04099
   A11        2.13633  -0.00143  -0.00085  -0.00406  -0.00492   2.13141
   A12        2.03210   0.00248  -0.00048   0.01373   0.01325   2.04535
   A13        2.11476  -0.00106   0.00134  -0.00967  -0.00834   2.10642
   A14        2.13415   0.00070   0.00111   0.00025   0.00137   2.13552
   A15        2.12538  -0.00313  -0.00269  -0.00590  -0.00859   2.11678
   A16        2.02365   0.00243   0.00158   0.00565   0.00723   2.03088
   A17        1.93182   0.00330   0.00380   0.00485   0.00865   1.94047
   A18        2.18727  -0.00125  -0.00256   0.00026  -0.00230   2.18497
   A19        2.16409  -0.00206  -0.00124  -0.00511  -0.00636   2.15774
   A20        2.00629   0.00256   0.00899  -0.00747   0.00153   2.00782
   A21        1.93826  -0.00096  -0.00004  -0.00630  -0.00635   1.93191
   A22        1.84165   0.00169   0.00760  -0.00364   0.00399   1.84564
   A23        1.93827  -0.00097  -0.00006  -0.00629  -0.00634   1.93192
   A24        1.92303   0.00029  -0.00338   0.00989   0.00655   1.92959
   A25        1.89937  -0.00029  -0.00087  -0.00313  -0.00404   1.89533
   A26        1.92303   0.00029  -0.00337   0.00988   0.00655   1.92958
   A27        2.01825   0.00436   0.00400   0.00892   0.01292   2.03116
   A28        2.14861  -0.00170  -0.00312  -0.00080  -0.00392   2.14469
   A29        2.11507  -0.00166   0.00159  -0.01376  -0.01217   2.10290
   A30        2.01950   0.00336   0.00153   0.01456   0.01609   2.03559
    D1        1.03412  -0.00034   0.00085  -0.00597  -0.00512   1.02900
    D2       -2.10747  -0.00034   0.00085  -0.00600  -0.00515  -2.11262
    D3        3.14143  -0.00000  -0.00000   0.00002   0.00002   3.14145
    D4       -0.00016  -0.00000   0.00000  -0.00001  -0.00001  -0.00017
    D5       -1.03448   0.00034  -0.00085   0.00602   0.00517  -1.02932
    D6        2.10711   0.00034  -0.00085   0.00599   0.00514   2.11225
    D7        3.14159  -0.00000  -0.00000  -0.00001  -0.00001   3.14158
    D8       -0.00000  -0.00000  -0.00000   0.00002   0.00001   0.00001
    D9        3.14159   0.00000  -0.00000   0.00002   0.00002  -3.14157
   D10       -0.00001   0.00000  -0.00000   0.00004   0.00003   0.00003
   D11        0.00000   0.00000   0.00000  -0.00001  -0.00001  -0.00000
   D12        3.14159   0.00000  -0.00000   0.00001   0.00001  -3.14159
   D13        0.00000   0.00000   0.00001  -0.00003  -0.00002  -0.00002
   D14       -3.14158  -0.00000  -0.00001   0.00001  -0.00000  -3.14158
   D15       -3.14158  -0.00000  -0.00001  -0.00001  -0.00002  -3.14159
   D16       -0.00000  -0.00000  -0.00001   0.00003   0.00002   0.00002
   D17        0.00001  -0.00000   0.00001  -0.00005  -0.00004  -0.00003
   D18        3.14158   0.00000   0.00001  -0.00001   0.00000   3.14159
   D19       -0.00002   0.00000  -0.00000   0.00006   0.00006   0.00005
   D20       -3.14159  -0.00000  -0.00000  -0.00003  -0.00003   3.14157
   D21       -3.14159   0.00000   0.00000   0.00002   0.00003  -3.14156
   D22        0.00002  -0.00000   0.00000  -0.00007  -0.00007  -0.00005
   D23        0.00000   0.00000   0.00001  -0.00002  -0.00001  -0.00001
   D24        3.14158   0.00000   0.00000   0.00002   0.00002  -3.14159
   D25       -3.14158  -0.00000  -0.00000  -0.00003  -0.00004   3.14156
   D26       -0.00001   0.00000  -0.00000   0.00006   0.00006   0.00004
   D27       -1.05813   0.00084   0.00059   0.00631   0.00683  -1.05130
   D28        3.14153   0.00000  -0.00000   0.00001   0.00001   3.14154
   D29        1.05800  -0.00084  -0.00059  -0.00628  -0.00680   1.05119
   D30       -0.00000  -0.00000  -0.00000   0.00001   0.00001   0.00000
   D31       -3.14159  -0.00000   0.00000  -0.00001  -0.00001   3.14159
         Item               Value     Threshold  Converged?
 Maximum Force            0.009655     0.000450     NO 
 RMS     Force            0.002233     0.000300     NO 
 Maximum Displacement     0.069342     0.001800     NO 
 RMS     Displacement     0.016709     0.001200     NO 
 Predicted change in Energy=-4.822708D-04
 GradGradGradGradGradGradGradGradGradGradGradGradGradGradGradGradGradGrad

                          Input orientation:                          
 ---------------------------------------------------------------------
 Center     Atomic      Atomic             Coordinates (Angstroms)
 Number     Number       Type             X           Y           Z
 ---------------------------------------------------------------------
      1          6           0       -3.614026   -0.554057    0.812393
      2          6           0       -2.221177   -0.236002    0.348927
      3          7           0       -1.228141   -0.356477    1.244135
      4          6           0        0.005656   -0.071191    0.820998
      5          6           0        0.266414    0.335873   -0.492556
      6          6           0        1.649742    0.657537   -0.973338
      7          8           0        2.558986    0.499647    0.014149
      8          6           0        3.911057    0.785791   -0.356190
      9          8           0        1.932769    1.012663   -2.093106
     10          7           0       -0.718885    0.458347   -1.391159
     11          6           0       -1.946916    0.172912   -0.964737
     12          1           0       -3.888457    0.094840    1.649719
     13          1           0       -4.345909   -0.425008    0.011060
     14          1           0       -3.663189   -1.585970    1.173261
     15          1           0        0.811409   -0.167224    1.541270
     16          1           0        4.236775    0.128755   -1.167016
     17          1           0        4.506493    0.611711    0.540182
     18          1           0        4.009660    1.823090   -0.687096
     19          1           0       -2.750758    0.271061   -1.691597
 ---------------------------------------------------------------------
                    Distance matrix (angstroms):
                    1          2          3          4          5
     1  C    0.000000
     2  C    1.501995   0.000000
     3  N    2.432670   1.342398   0.000000
     4  C    3.651757   2.282279   1.335173   0.000000
     5  C    4.189592   2.687609   2.393562   1.399686   0.000000
     6  C    5.688941   4.186981   3.771952   2.540415   1.499405
     7  O    6.312967   4.848011   4.072854   2.737947   2.353605
     8  C    7.732247   6.256640   5.502469   4.168015   3.674839
     9  O    6.454724   4.977746   4.796152   3.657938   2.407601
    10  N    3.776565   2.401437   2.805005   2.387260   1.339142
    11  C    2.542820   1.402905   2.382437   2.657249   2.268996
    12  H    1.094301   2.140406   2.728638   3.984778   4.680854
    13  H    1.092904   2.159713   3.353453   4.440416   4.701711
    14  H    1.094298   2.140406   2.728760   3.984854   4.680834
    15  H    4.501708   3.259293   2.069751   1.085013   2.164850
    16  H    8.125231   6.643514   5.992863   4.679162   4.032563
    17  H    8.208285   6.783564   5.858239   4.561003   4.372746
    18  H    8.125262   6.643533   5.992889   4.679177   4.032561
    19  H    2.774169   2.168249   3.366108   3.745409   3.247342
                    6          7          8          9         10
     6  C    0.000000
     7  O    1.351586   0.000000
     8  C    2.347523   1.430778   0.000000
     9  O    1.208345   2.257400   2.642342   0.000000
    10  N    2.413430   3.566656   4.755496   2.798440   0.000000
    11  C    3.629171   4.622567   5.921300   4.126785   1.330927
    12  H    6.153755   6.663968   8.082914   6.981247   4.407409
    13  H    6.171610   6.966531   8.353346   6.776150   3.987710
    14  H    6.153734   6.663992   8.082924   6.981174   4.407313
    15  H    2.776020   2.414714   3.757181   3.982245   3.366345
    16  H    2.647615   2.085111   1.093264   2.635789   4.971664
    17  H    3.233245   2.020410   1.090106   3.703920   5.572986
    18  H    2.647577   2.085114   1.093257   2.635742   4.971656
    19  H    4.475450   5.581684   6.813812   4.758845   2.062485
                   11         12         13         14         15
    11  C    0.000000
    12  H    3.257462   0.000000
    13  H    2.657979   1.778962   0.000000
    14  H    3.257345   1.761500   1.778946   0.000000
    15  H    3.742208   4.708416   5.385714   4.708534   0.000000
    16  H    6.187156   8.599683   8.680840   8.415855   4.376706
    17  H    6.641071   8.483715   8.928593   8.483767   3.906733
    18  H    6.187162   8.415925   8.680835   8.599722   4.376731
    19  H    1.088173   3.534091   2.434761   3.533908   4.830378
                   16         17         18         19
    16  H    0.000000
    17  H    1.794581   0.000000
    18  H    1.775578   1.794573   0.000000
    19  H    7.008642   7.600301   7.008642   0.000000
 Stoichiometry    C7H8N2O2
 Framework group  C1[X(C7H8N2O2)]
 Deg. of freedom    51
 Full point group                 C1      NOp   1
 Largest Abelian subgroup         C1      NOp   1
 Largest concise Abelian subgroup C1      NOp   1
                         Standard orientation:                         
 ---------------------------------------------------------------------
 Center     Atomic      Atomic             Coordinates (Angstroms)
 Number     Number       Type             X           Y           Z
 ---------------------------------------------------------------------
      1          6           0        3.955493   -0.311947    0.000028
      2          6           0        2.464179   -0.133144   -0.000006
      3          7           0        1.707657   -1.242066   -0.000013
      4          6           0        0.383491   -1.070980   -0.000027
      5          6           0       -0.202698    0.200045   -0.000014
      6          6           0       -1.688940    0.398285   -0.000030
      7          8           0       -2.339623   -0.786365    0.000001
      8          6           0       -3.767356   -0.693068    0.000026
      9          8           0       -2.248617    1.469200    0.000008
     10          7           0        0.545335    1.310787   -0.000008
     11          6           0        1.864629    1.135194   -0.000001
     12          1           0        4.265196   -0.882931   -0.880628
     13          1           0        4.477609    0.648175   -0.000116
     14          1           0        4.265193   -0.882639    0.880871
     15          1           0       -0.231879   -1.964609   -0.000025
     16          1           0       -4.119681   -0.161213    0.887846
     17          1           0       -4.130994   -1.720735   -0.000006
     18          1           0       -4.119718   -0.161149   -0.887732
     19          1           0        2.476464    2.035070    0.000003
 ---------------------------------------------------------------------
 Rotational constants (GHZ):           3.4877890           0.6014212           0.5162708
 Standard basis: 6-31G(d,p) (6D, 7F)
 There are   205 symmetry adapted cartesian basis functions of A   symmetry.
 There are   205 symmetry adapted basis functions of A   symmetry.
   205 basis functions,   364 primitive gaussians,   205 cartesian basis functions
    40 alpha electrons       40 beta electrons
       nuclear repulsion energy       582.0309100559 Hartrees.
 NAtoms=   19 NActive=   19 NUniq=   19 SFac= 1.00D+00 NAtFMM=   60 NAOKFM=F Big=F
 Integral buffers will be    131072 words long.
 Raffenetti 2 integral format.
 Two-electron integral symmetry is turned on.
 Nuclear repulsion after empirical dispersion term =      581.9993459805 Hartrees.
 One-electron integrals computed using PRISM.
 NBasis=   205 RedAO= T EigKep=  1.18D-03  NBF=   205
 NBsUse=   205 1.00D-06 EigRej= -1.00D+00 NBFU=   205
 Initial guess from the checkpoint file:  "pyrz3_conf-2.chk"
 B after Tr=     0.000000    0.000000   -0.000000
         Rot=    1.000000    0.000001   -0.000000    0.000865 Ang=   0.10 deg.
 ExpMin= 1.61D-01 ExpMax= 5.48D+03 ExpMxC= 8.25D+02 IAcc=3 IRadAn=         5 AccDes= 0.00D+00
 Harris functional with IExCor=  402 and IRadAn=       5 diagonalized for initial guess.
 HarFok:  IExCor=  402 AccDes= 0.00D+00 IRadAn=         5 IDoV= 1 UseB2=F ITyADJ=14
 ICtDFT=  3500011 ScaDFX=  1.000000  1.000000  1.000000  1.000000
 FoFCou: FMM=F IPFlag=           0 FMFlag=      100000 FMFlg1=           0
         NFxFlg=           0 DoJE=T BraDBF=F KetDBF=T FulRan=T
         wScrn=  0.000000 ICntrl=       500 IOpCl=  0 I1Cent=   200000004 NGrid=           0
         NMat0=    1 NMatS0=      1 NMatT0=    0 NMatD0=    1 NMtDS0=    0 NMtDT0=    0
 Petite list used in FoFCou.
 Requested convergence on RMS density matrix=1.00D-08 within 128 cycles.
 Requested convergence on MAX density matrix=1.00D-06.
 Requested convergence on             energy=1.00D-06.
 No special actions if energy rises.
 Integral accuracy reduced to 1.0D-05 until final iterations.
 Initial convergence to 1.0D-05 achieved.  Increase integral accuracy.
 SCF Done:  E(RB3LYP) =  -531.554905742     A.U. after   11 cycles
            NFock= 11  Conv=0.47D-08     -V/T= 2.0092
 Calling FoFJK, ICntrl=      2127 FMM=F ISym2X=0 I1Cent= 0 IOpClX= 0 NMat=1 NMatS=1 NMatT=0.
 ***** Axes restored to original set *****
 -------------------------------------------------------------------
 Center     Atomic                   Forces (Hartrees/Bohr)
 Number     Number              X              Y              Z
 -------------------------------------------------------------------
      1        6           0.000253718    0.000169568   -0.000468931
      2        6          -0.000285133   -0.000444806    0.001428381
      3        7          -0.000102883    0.000058347   -0.000249961
      4        6          -0.000174181   -0.000337975    0.001101055
      5        6           0.000589099    0.000121033   -0.000131012
      6        6          -0.000437299    0.000381217   -0.001589577
      7        8          -0.001747504   -0.001047968    0.002886410
      8        6           0.003403779    0.000625615   -0.000612253
      9        8          -0.000402907    0.000285051   -0.001183070
     10        7          -0.000460687   -0.000143737    0.000288203
     11        6           0.000339268    0.000665057   -0.002184660
     12        1          -0.000149623   -0.000134637    0.000079830
     13        1           0.000314118   -0.000029305    0.000253559
     14        1          -0.000171540    0.000030014    0.000128664
     15        1           0.000088429    0.000047723   -0.000123778
     16        1          -0.000364011    0.000115711    0.000261982
     17        1          -0.000273442    0.000055894   -0.000328056
     18        1          -0.000306285   -0.000314988    0.000137541
     19        1          -0.000112917   -0.000101813    0.000305672
 -------------------------------------------------------------------
 Cartesian Forces:  Max     0.003403779 RMS     0.000842346

 GradGradGradGradGradGradGradGradGradGradGradGradGradGradGradGradGradGrad
 Berny optimization.
 Using GEDIIS/GDIIS optimizer.
 FormGI is forming the generalized inverse of G from B-inverse, IUseBI=4.
 Internal  Forces:  Max     0.002561600 RMS     0.000517303
 Search for a local minimum.
 Step number   3 out of a maximum of   90
 All quantities printed in internal units (Hartrees-Bohrs-Radians)
 Mixed Optimization -- En-DIIS/RFO-DIIS
 Update second derivatives using D2CorX and points    1    2    3
 DE= -5.21D-04 DEPred=-4.82D-04 R= 1.08D+00
 TightC=F SS=  1.41D+00  RLast= 5.56D-02 DXNew= 8.4853D-01 1.6667D-01
 Trust test= 1.08D+00 RLast= 5.56D-02 DXMaxT set to 5.05D-01
 ITU=  1  1  0
 Use linear search instead of GDIIS.
     Eigenvalues ---    0.00571   0.00820   0.01293   0.01411   0.01414
     Eigenvalues ---    0.01623   0.02058   0.02085   0.02161   0.02175
     Eigenvalues ---    0.02225   0.02274   0.07054   0.07296   0.10182
     Eigenvalues ---    0.10668   0.14369   0.16000   0.16000   0.16000
     Eigenvalues ---    0.16000   0.16000   0.16062   0.16401   0.22688
     Eigenvalues ---    0.23358   0.23995   0.25000   0.25000   0.25000
     Eigenvalues ---    0.25335   0.28973   0.30646   0.34425   0.34653
     Eigenvalues ---    0.34668   0.34757   0.34765   0.34797   0.35542
     Eigenvalues ---    0.35862   0.36245   0.38420   0.41870   0.45605
     Eigenvalues ---    0.49226   0.51250   0.51737   0.53085   0.58834
     Eigenvalues ---    0.89006
 RFO step:  Lambda=-5.93826000D-05 EMin= 5.70931383D-03
 Quartic linear search produced a step of  0.10580.
 Iteration  1 RMS(Cart)=  0.00289953 RMS(Int)=  0.00000453
 Iteration  2 RMS(Cart)=  0.00000956 RMS(Int)=  0.00000217
 Iteration  3 RMS(Cart)=  0.00000000 RMS(Int)=  0.00000217
 Variable       Old X    -DE/DX   Delta X   Delta X   Delta X     New X
                                 (Linear)    (Quad)   (Total)
    R1        2.83836  -0.00024  -0.00025  -0.00107  -0.00131   2.83705
    R2        2.06793   0.00002   0.00012   0.00010   0.00022   2.06815
    R3        2.06529  -0.00040  -0.00002  -0.00120  -0.00123   2.06406
    R4        2.06792   0.00002   0.00012   0.00011   0.00023   2.06815
    R5        2.53676  -0.00007   0.00019  -0.00062  -0.00043   2.53633
    R6        2.65111   0.00141   0.00037   0.00340   0.00377   2.65488
    R7        2.52311  -0.00001  -0.00013  -0.00057  -0.00070   2.52241
    R8        2.64502   0.00083   0.00011   0.00183   0.00194   2.64696
    R9        2.05038  -0.00002   0.00009  -0.00000   0.00009   2.05046
   R10        2.83346   0.00004   0.00187  -0.00067   0.00119   2.83466
   R11        2.53061   0.00038   0.00038   0.00003   0.00041   2.53102
   R12        2.55413   0.00226   0.00134   0.00392   0.00526   2.55939
   R13        2.28344   0.00109  -0.00084   0.00115   0.00031   2.28375
   R14        2.70378   0.00256   0.00216   0.00594   0.00810   2.71188
   R15        2.06597  -0.00037  -0.00017  -0.00106  -0.00123   2.06474
   R16        2.06000  -0.00043   0.00003  -0.00138  -0.00135   2.05865
   R17        2.06596  -0.00037  -0.00017  -0.00105  -0.00122   2.06473
   R18        2.51509  -0.00034  -0.00018  -0.00127  -0.00146   2.51363
   R19        2.05635  -0.00013   0.00047  -0.00040   0.00007   2.05641
    A1        1.92101   0.00026  -0.00005   0.00174   0.00169   1.92270
    A2        1.94954  -0.00018   0.00042  -0.00143  -0.00100   1.94854
    A3        1.92101   0.00026  -0.00005   0.00174   0.00169   1.92270
    A4        1.89977  -0.00005   0.00024  -0.00021   0.00003   1.89980
    A5        1.87085  -0.00025  -0.00083  -0.00169  -0.00253   1.86833
    A6        1.89975  -0.00005   0.00024  -0.00020   0.00003   1.89978
    A7        2.05016   0.00005   0.00130  -0.00021   0.00109   2.05125
    A8        2.13170  -0.00018  -0.00023  -0.00075  -0.00098   2.13072
    A9        2.10133   0.00014  -0.00107   0.00096  -0.00012   2.10121
   A10        2.04099   0.00013   0.00155  -0.00023   0.00132   2.04231
   A11        2.13141  -0.00016  -0.00052  -0.00054  -0.00106   2.13035
   A12        2.04535   0.00024   0.00140   0.00115   0.00255   2.04790
   A13        2.10642  -0.00008  -0.00088  -0.00061  -0.00149   2.10493
   A14        2.13552   0.00008   0.00014   0.00014   0.00028   2.13580
   A15        2.11678   0.00002  -0.00091   0.00079  -0.00012   2.11666
   A16        2.03088  -0.00010   0.00076  -0.00093  -0.00016   2.03072
   A17        1.94047  -0.00127   0.00092  -0.00651  -0.00560   1.93487
   A18        2.18497  -0.00014  -0.00024  -0.00019  -0.00044   2.18454
   A19        2.15774   0.00141  -0.00067   0.00671   0.00604   2.16377
   A20        2.00782  -0.00014   0.00016  -0.00197  -0.00181   2.00601
   A21        1.93191  -0.00036  -0.00067  -0.00236  -0.00304   1.92888
   A22        1.84564   0.00009   0.00042  -0.00047  -0.00005   1.84559
   A23        1.93192  -0.00036  -0.00067  -0.00237  -0.00305   1.92888
   A24        1.92959   0.00018   0.00069   0.00177   0.00247   1.93205
   A25        1.89533   0.00025  -0.00043   0.00159   0.00115   1.89648
   A26        1.92958   0.00019   0.00069   0.00178   0.00247   1.93205
   A27        2.03116   0.00024   0.00137   0.00014   0.00151   2.03267
   A28        2.14469  -0.00036  -0.00041  -0.00112  -0.00153   2.14316
   A29        2.10290  -0.00014  -0.00129  -0.00120  -0.00249   2.10041
   A30        2.03559   0.00051   0.00170   0.00232   0.00402   2.03962
    D1        1.02900   0.00000  -0.00054   0.00001  -0.00053   1.02847
    D2       -2.11262   0.00000  -0.00054   0.00004  -0.00050  -2.11312
    D3        3.14145  -0.00000   0.00000  -0.00001  -0.00001   3.14144
    D4       -0.00017   0.00000  -0.00000   0.00002   0.00002  -0.00015
    D5       -1.02932  -0.00000   0.00055  -0.00003   0.00052  -1.02880
    D6        2.11225  -0.00000   0.00054   0.00000   0.00054   2.11280
    D7        3.14158  -0.00000  -0.00000   0.00001   0.00000   3.14158
    D8        0.00001  -0.00000   0.00000  -0.00002  -0.00002  -0.00001
    D9       -3.14157  -0.00000   0.00000  -0.00002  -0.00002  -3.14159
   D10        0.00003  -0.00000   0.00000  -0.00002  -0.00002   0.00001
   D11       -0.00000   0.00000  -0.00000   0.00001   0.00001   0.00000
   D12       -3.14159   0.00000   0.00000   0.00001   0.00001  -3.14158
   D13       -0.00002   0.00000  -0.00000   0.00003   0.00003   0.00001
   D14       -3.14158  -0.00000  -0.00000  -0.00001  -0.00001   3.14159
   D15       -3.14159  -0.00000  -0.00000   0.00001   0.00000  -3.14159
   D16        0.00002  -0.00000   0.00000  -0.00003  -0.00002  -0.00000
   D17       -0.00003   0.00000  -0.00000   0.00004   0.00004   0.00001
   D18        3.14159   0.00000   0.00000   0.00001   0.00001  -3.14159
   D19        0.00005  -0.00000   0.00001  -0.00022  -0.00021  -0.00017
   D20        3.14157   0.00000  -0.00000   0.00018   0.00018  -3.14144
   D21       -3.14156  -0.00000   0.00000  -0.00019  -0.00019   3.14144
[...]
   XZ=    -3.8256   YZ=     3.4527   ZZ=    29.2173
   Eigenvalues:    25.4310    27.9340    34.0199
     13  H    Isotropic =    29.3898   Anisotropy =     7.1109
   XX=    30.4960   YX=     3.6074   ZX=    -0.0007
   XY=     0.9528   YY=    32.7000   ZY=    -0.0008
   XZ=    -0.0009   YZ=    -0.0010   ZZ=    24.9735
   Eigenvalues:    24.9735    29.0656    34.1304
     14  H    Isotropic =    29.1284   Anisotropy =     7.3372
   XX=    29.0674   YX=    -1.5984   ZX=     2.1116
   XY=    -0.7008   YY=    29.0989   ZY=    -2.6693
   XZ=     3.8265   YZ=    -3.4517   ZZ=    29.2188
   Eigenvalues:    25.4316    27.9336    34.0199
     15  H    Isotropic =    21.6618   Anisotropy =    10.6832
   XX=    25.6398   YX=    -4.7321   ZX=     0.0001
   XY=    -4.6635   YY=    21.7646   ZY=     0.0000
   XZ=     0.0002   YZ=     0.0004   ZZ=    17.5810
   Eigenvalues:    17.5810    18.6205    28.7839
     16  H    Isotropic =    27.9276   Anisotropy =     7.8333
   XX=    30.4900   YX=    -1.6632   ZX=    -3.5851
   XY=    -0.0238   YY=    25.5821   ZY=     0.9711
   XZ=    -3.5185   YZ=     1.2849   ZZ=    27.7106
   Eigenvalues:    24.8662    25.7668    33.1498
     17  H    Isotropic =    28.1265   Anisotropy =     7.1815
   XX=    30.7408   YX=     3.6242   ZX=     0.0006
   XY=     1.9682   YY=    29.3165   ZY=     0.0003
   XZ=     0.0008   YZ=     0.0007   ZZ=    24.3221
   Eigenvalues:    24.3221    27.1432    32.9142
     18  H    Isotropic =    27.9274   Anisotropy =     7.8329
   XX=    30.4888   YX=    -1.6633   ZX=     3.5850
   XY=    -0.0237   YY=    25.5825   ZY=    -0.9714
   XZ=     3.5189   YZ=    -1.2855   ZZ=    27.7108
   Eigenvalues:    24.8659    25.7670    33.1493
     19  H    Isotropic =    22.3704   Anisotropy =     9.0501
   XX=    24.7740   YX=    -3.9149   ZX=    -0.0001
   XY=    -4.8439   YY=    23.1202   ZY=     0.0001
   XZ=    -0.0002   YZ=    -0.0003   ZZ=    19.2172
   Eigenvalues:    19.2172    19.4903    28.4038
 End of Minotr F.D. properties file   721 does not exist.
 End of Minotr F.D. properties file   722 does not exist.
 End of Minotr F.D. properties file   788 does not exist.

 **********************************************************************

            Population analysis using the SCF Density.

 **********************************************************************

 Orbital symmetries:
       Occupied  (A) (A) (A) (A) (A) (A) (A) (A) (A) (A) (A) (A)
                 (A) (A) (A) (A) (A) (A) (A) (A) (A) (A) (A) (A)
                 (A) (A) (A) (A) (A) (A) (A) (A) (A) (A) (A) (A)
                 (A) (A) (A) (A)
       Virtual   (A) (A) (A) (A) (A) (A) (A) (A) (A) (A) (A) (A)
                 (A) (A) (A) (A) (A) (A) (A) (A) (A) (A) (A) (A)
                 (A) (A) (A) (A) (A) (A) (A) (A) (A) (A) (A) (A)
                 (A) (A) (A) (A) (A) (A) (A) (A) (A) (A) (A) (A)
                 (A) (A) (A) (A) (A) (A) (A) (A) (A) (A) (A) (A)
                 (A) (A) (A) (A) (A) (A) (A) (A) (A) (A) (A) (A)
                 (A) (A) (A) (A) (A) (A) (A) (A) (A) (A) (A) (A)
                 (A) (A) (A) (A) (A) (A) (A) (A) (A) (A) (A) (A)
                 (A) (A) (A) (A) (A) (A) (A) (A) (A) (A) (A) (A)
                 (A) (A) (A) (A) (A) (A) (A) (A) (A) (A) (A) (A)
                 (A) (A) (A) (A) (A) (A) (A) (A) (A) (A) (A) (A)
                 (A) (A) (A) (A) (A) (A) (A) (A) (A) (A) (A) (A)
                 (A) (A) (A) (A) (A) (A) (A) (A) (A) (A) (A) (A)
                 (A) (A) (A) (A) (A) (A) (A) (A) (A) (A) (A) (A)
                 (A) (A) (A) (A) (A) (A) (A) (A) (A) (A) (A) (A)
                 (A) (A) (A) (A) (A) (A) (A) (A) (A) (A) (A) (A)
                 (A) (A) (A) (A) (A) (A) (A) (A) (A) (A) (A) (A)
                 (A) (A) (A) (A) (A) (A) (A) (A) (A) (A) (A) (A)
                 (A) (A) (A) (A) (A) (A) (A) (A) (A) (A) (A) (A)
                 (A) (A) (A) (A) (A) (A) (A) (A) (A) (A) (A) (A)
                 (A) (A) (A) (A) (A) (A) (A) (A) (A) (A) (A) (A)
                 (A) (A) (A) (A) (A) (A) (A) (A) (A) (A) (A) (A)
                 (A) (A) (A) (A) (A) (A) (A) (A) (A) (A) (A) (A)
                 (A) (A) (A) (A) (A) (A) (A) (A) (A) (A) (A) (A)
                 (A) (A) (A) (A) (A) (A) (A) (A) (A) (A) (A) (A)
                 (A) (A) (A) (A) (A) (A) (A) (A) (A) (A) (A) (A)
                 (A) (A) (A) (A) (A) (A) (A) (A) (A) (A) (A) (A)
                 (A) (A) (A) (A) (A) (A) (A) (A) (A) (A) (A) (A)
                 (A) (A) (A) (A) (A) (A) (A) (A) (A) (A) (A) (A)
                 (A)
 The electronic state is 1-A.
 Alpha  occ. eigenvalues --  -19.68133 -19.62321 -14.78089 -14.77634 -10.68204
 Alpha  occ. eigenvalues --  -10.60897 -10.60416 -10.60000 -10.59778 -10.59485
 Alpha  occ. eigenvalues --  -10.55043  -1.23999  -1.14687  -1.10632  -1.02878
 Alpha  occ. eigenvalues --   -0.91463  -0.85512  -0.80936  -0.75903  -0.73369
 Alpha  occ. eigenvalues --   -0.66978  -0.63080  -0.61094  -0.57641  -0.56474
 Alpha  occ. eigenvalues --   -0.55694  -0.53952  -0.53085  -0.49319  -0.49058
 Alpha  occ. eigenvalues --   -0.47602  -0.46256  -0.46084  -0.44342  -0.39907
 Alpha  occ. eigenvalues --   -0.39885  -0.38430  -0.36773  -0.33085  -0.32533
 Alpha virt. eigenvalues --   -0.04275  -0.01707   0.07076   0.07670   0.07896
 Alpha virt. eigenvalues --    0.10383   0.10507   0.11874   0.12411   0.14464
 Alpha virt. eigenvalues --    0.14724   0.15543   0.15549   0.16788   0.18530
 Alpha virt. eigenvalues --    0.19944   0.20736   0.20738   0.21992   0.22759
 Alpha virt. eigenvalues --    0.24183   0.25653   0.26658   0.28119   0.28736
 Alpha virt. eigenvalues --    0.29440   0.29708   0.30288   0.31942   0.32790
 Alpha virt. eigenvalues --    0.34227   0.34912   0.35663   0.36570   0.37440
 Alpha virt. eigenvalues --    0.38905   0.38978   0.39745   0.40378   0.42692
 Alpha virt. eigenvalues --    0.43400   0.44119   0.44810   0.46126   0.46620
 Alpha virt. eigenvalues --    0.47566   0.48880   0.49372   0.50809   0.50913
 Alpha virt. eigenvalues --    0.51096   0.53399   0.54196   0.54381   0.54541
 Alpha virt. eigenvalues --    0.56805   0.57007   0.58636   0.60371   0.61220
 Alpha virt. eigenvalues --    0.62285   0.63407   0.64090   0.65368   0.66771
 Alpha virt. eigenvalues --    0.68565   0.69216   0.69624   0.70725   0.73191
 Alpha virt. eigenvalues --    0.74490   0.75032   0.76628   0.78272   0.79111
 Alpha virt. eigenvalues --    0.80520   0.80886   0.82939   0.83005   0.85499
 Alpha virt. eigenvalues --    0.86375   0.87763   0.91400   0.93022   0.94487
 Alpha virt. eigenvalues --    0.95602   0.99404   1.00681   1.01493   1.02883
 Alpha virt. eigenvalues --    1.03164   1.06489   1.08478   1.10851   1.10862
 Alpha virt. eigenvalues --    1.13590   1.13793   1.18400   1.19805   1.25136
 Alpha virt. eigenvalues --    1.25724   1.28881   1.31592   1.31834   1.33820
 Alpha virt. eigenvalues --    1.35011   1.36678   1.38611   1.41159   1.43834
 Alpha virt. eigenvalues --    1.47528   1.49069   1.49538   1.50552   1.50765
 Alpha virt. eigenvalues --    1.51117   1.52665   1.53554   1.54188   1.56402
 Alpha virt. eigenvalues --    1.56607   1.56932   1.57165   1.58042   1.60316
 Alpha virt. eigenvalues --    1.62147   1.63256   1.63440   1.64819   1.67118
 Alpha virt. eigenvalues --    1.69874   1.69991   1.74343   1.75316   1.76457
 Alpha virt. eigenvalues --    1.76767   1.79549   1.80752   1.83177   1.84555
 Alpha virt. eigenvalues --    1.85700   1.89877   1.92218   1.93469   1.95354
 Alpha virt. eigenvalues --    1.97459   1.99423   2.01420   2.02383   2.02880
 Alpha virt. eigenvalues --    2.06299   2.06598   2.07633   2.09301   2.10552
 Alpha virt. eigenvalues --    2.13316   2.13692   2.15221   2.17431   2.19241
 Alpha virt. eigenvalues --    2.20367   2.23285   2.24970   2.26173   2.27922
 Alpha virt. eigenvalues --    2.30760   2.31902   2.34531   2.35275   2.36844
 Alpha virt. eigenvalues --    2.38232   2.38606   2.41540   2.42325   2.44370
 Alpha virt. eigenvalues --    2.44838   2.48864   2.51429   2.52223   2.53975
 Alpha virt. eigenvalues --    2.54505   2.56413   2.56555   2.59271   2.61600
 Alpha virt. eigenvalues --    2.61800   2.64093   2.64992   2.66832   2.71801
 Alpha virt. eigenvalues --    2.72433   2.74828   2.78870   2.80027   2.81285
 Alpha virt. eigenvalues --    2.82122   2.84386   2.86479   2.87398   2.88341
 Alpha virt. eigenvalues --    2.89759   2.91970   2.92435   2.96065   2.97959
 Alpha virt. eigenvalues --    2.98589   3.00264   3.00547   3.01008   3.03748
 Alpha virt. eigenvalues --    3.03761   3.04196   3.08041   3.10037   3.11310
 Alpha virt. eigenvalues --    3.11579   3.13333   3.14265   3.17979   3.18710
 Alpha virt. eigenvalues --    3.19886   3.21188   3.21517   3.21972   3.22943
 Alpha virt. eigenvalues --    3.23629   3.24733   3.28321   3.29055   3.29645
 Alpha virt. eigenvalues --    3.30741   3.31156   3.32175   3.34248   3.35642
 Alpha virt. eigenvalues --    3.35836   3.36688   3.37095   3.39944   3.40706
 Alpha virt. eigenvalues --    3.41675   3.45219   3.45757   3.48837   3.49602
 Alpha virt. eigenvalues --    3.51646   3.54524   3.58220   3.58464   3.59848
 Alpha virt. eigenvalues --    3.60841   3.62983   3.68902   3.70176   3.70857
 Alpha virt. eigenvalues --    3.73913   3.77352   3.77659   3.80160   3.82628
 Alpha virt. eigenvalues --    3.84386   3.92342   3.94259   3.96421   3.98956
 Alpha virt. eigenvalues --    4.00107   4.07722   4.12092   4.13372   4.13944
 Alpha virt. eigenvalues --    4.16937   4.19344   4.19361   4.22516   4.26796
 Alpha virt. eigenvalues --    4.31630   4.32603   4.33167   4.36212   4.36464
 Alpha virt. eigenvalues --    4.38438   4.47062   4.47974   4.52060   4.56337
 Alpha virt. eigenvalues --    4.60468   4.61563   4.66064   4.72119   4.73027
 Alpha virt. eigenvalues --    4.74671   4.75892   4.79928   4.90326   4.90559
 Alpha virt. eigenvalues --    4.94268   5.00236   5.03167   5.06791   5.11349
 Alpha virt. eigenvalues --    5.16469   5.18420   5.18817   5.25154   5.26354
 Alpha virt. eigenvalues --    5.29276   5.33063   5.35489   5.36978   5.40720
 Alpha virt. eigenvalues --    5.46371   5.49036   5.49860   5.60521   5.62417
 Alpha virt. eigenvalues --    5.65517   5.66419   5.69110   5.74455   5.80930
 Alpha virt. eigenvalues --    5.88519   5.94114   6.05801   6.10666   6.16688
 Alpha virt. eigenvalues --    6.31008   6.35182   6.38928   6.54662   6.63345
 Alpha virt. eigenvalues --    6.69265   6.74558   6.85957   6.88734   7.02218
 Alpha virt. eigenvalues --    7.10765   7.28010   7.39567  22.42295  22.46808
 Alpha virt. eigenvalues --   22.67425  22.88149  23.10572  23.11877  23.44654
 Alpha virt. eigenvalues --   32.47211  32.71709  44.06518  44.26282
          Condensed to atoms (all electrons):
               1          2          3          4          5          6
     1  C    5.043414   0.241538  -0.052193   0.000283  -0.000428  -0.000040
     2  C    0.241538   5.023825   0.431455  -0.087906  -0.045002  -0.005282
     3  N   -0.052193   0.431455   6.469640   0.512376  -0.070839   0.007073
     4  C    0.000283  -0.087906   0.512376   4.872240   0.474066  -0.039834
     5  C   -0.000428  -0.045002  -0.070839   0.474066   5.241879   0.254441
     6  C   -0.000040  -0.005282   0.007073  -0.039834   0.254441   4.484984
     7  O   -0.000012  -0.000046  -0.000150   0.021388  -0.171773   0.390086
     8  C    0.000000  -0.000006  -0.000002  -0.000929   0.010665  -0.054042
     9  O   -0.000006  -0.000010  -0.000192   0.004871  -0.096794   0.699004
    10  N    0.007455  -0.056101  -0.009278  -0.055823   0.469141  -0.058713
    11  C   -0.044163   0.508406  -0.052297  -0.040809  -0.092692  -0.000817
    12  H    0.402945  -0.030939   0.000248   0.000067   0.000316  -0.000009
    13  H    0.438315  -0.071991   0.005110   0.000198  -0.000116  -0.000032
    14  H    0.402927  -0.030925   0.000246   0.000066   0.000317  -0.000009
    15  H    0.000179   0.007453  -0.034616   0.408437  -0.042248  -0.005461
    16  H   -0.000000  -0.000002   0.000004   0.000347  -0.002001  -0.008352
    17  H    0.000000  -0.000001  -0.000003  -0.000978   0.003760   0.004210
    18  H   -0.000000  -0.000002   0.000004   0.000348  -0.002007  -0.008349
    19  H    0.001277  -0.069191   0.005584  -0.003488   0.011117   0.000515
               7          8          9         10         11         12
     1  C   -0.000012   0.000000  -0.000006   0.007455  -0.044163   0.402945
     2  C   -0.000046  -0.000006  -0.000010  -0.056101   0.508406  -0.030939
     3  N   -0.000150  -0.000002  -0.000192  -0.009278  -0.052297   0.000248
     4  C    0.021388  -0.000929   0.004871  -0.055823  -0.040809   0.000067
     5  C   -0.171773   0.010665  -0.096794   0.469141  -0.092692   0.000316
     6  C    0.390086  -0.054042   0.699004  -0.058713  -0.000817  -0.000009
     7  O    8.002568   0.209324  -0.083214   0.001815  -0.000617   0.000000
     8  C    0.209324   4.848185   0.004849  -0.000309   0.000060  -0.000000
     9  O   -0.083214   0.004849   7.778021  -0.008084  -0.001424   0.000000
    10  N    0.001815  -0.000309  -0.008084   6.393760   0.524794  -0.000391
    11  C   -0.000617   0.000060  -0.001424   0.524794   4.869658   0.000462
    12  H    0.000000  -0.000000   0.000000  -0.000391   0.000462   0.512757
    13  H    0.000000  -0.000000   0.000000   0.000570   0.001290  -0.023460
    14  H    0.000000  -0.000000   0.000000  -0.000391   0.000458  -0.024791
    15  H    0.009040  -0.000150   0.000201   0.004385  -0.001069  -0.000064
    16  H   -0.033528   0.421076   0.003420  -0.000037  -0.000005  -0.000000
    17  H   -0.031091   0.395156   0.001741   0.000025   0.000005  -0.000000
    18  H   -0.033530   0.421075   0.003423  -0.000037  -0.000005   0.000000
    19  H   -0.000003  -0.000001  -0.000036  -0.040530   0.424305  -0.000253
              13         14         15         16         17         18
     1  C    0.438315   0.402927   0.000179  -0.000000   0.000000  -0.000000
     2  C   -0.071991  -0.030925   0.007453  -0.000002  -0.000001  -0.000002
     3  N    0.005110   0.000246  -0.034616   0.000004  -0.000003   0.000004
     4  C    0.000198   0.000066   0.408437   0.000347  -0.000978   0.000348
     5  C   -0.000116   0.000317  -0.042248  -0.002001   0.003760  -0.002007
     6  C   -0.000032  -0.000009  -0.005461  -0.008352   0.004210  -0.008349
     7  O    0.000000   0.000000   0.009040  -0.033528  -0.031091  -0.033530
     8  C   -0.000000  -0.000000  -0.000150   0.421076   0.395156   0.421075
     9  O    0.000000   0.000000   0.000201   0.003420   0.001741   0.003423
    10  N    0.000570  -0.000391   0.004385  -0.000037   0.000025  -0.000037
    11  C    0.001290   0.000458  -0.001069  -0.000005   0.000005  -0.000005
    12  H   -0.023460  -0.024791  -0.000064  -0.000000  -0.000000   0.000000
    13  H    0.537263  -0.023460  -0.000005  -0.000000  -0.000000  -0.000000
    14  H   -0.023460   0.512766  -0.000064   0.000000  -0.000000  -0.000000
    15  H   -0.000005  -0.000064   0.486366   0.000111  -0.000201   0.000111
    16  H   -0.000000   0.000000   0.000111   0.528009  -0.025429  -0.039764
    17  H   -0.000000  -0.000000  -0.000201  -0.025429   0.532267  -0.025427
    18  H   -0.000000  -0.000000   0.000111  -0.039764  -0.025427   0.528007
    19  H   -0.002671  -0.000253   0.000170   0.000000   0.000000   0.000000
              19
     1  C    0.001277
     2  C   -0.069191
     3  N    0.005584
     4  C   -0.003488
     5  C    0.011117
     6  C    0.000515
     7  O   -0.000003
     8  C   -0.000001
     9  O   -0.000036
    10  N   -0.040530
    11  C    0.424305
    12  H   -0.000253
    13  H   -0.002671
    14  H   -0.000253
    15  H    0.000170
    16  H    0.000000
    17  H    0.000000
    18  H    0.000000
    19  H    0.520563
 Mulliken charges:
               1
     1  C   -0.441491
     2  C    0.184727
     3  N   -0.212170
     4  C   -0.064921
     5  C    0.058199
     6  C    0.340628
     7  O   -0.280256
     8  C   -0.254952
     9  O   -0.305770
    10  N   -0.172252
    11  C   -0.095541
    12  H    0.163112
    13  H    0.138988
    14  H    0.163111
    15  H    0.167425
    16  H    0.156151
    17  H    0.145964
    18  H    0.156153
    19  H    0.152896
 Sum of Mulliken charges =  -0.00000
 Mulliken charges with hydrogens summed into heavy atoms:
               1
     1  C    0.023720
     2  C    0.184727
     3  N   -0.212170
     4  C    0.102504
     5  C    0.058199
     6  C    0.340628
     7  O   -0.280256
     8  C    0.203316
     9  O   -0.305770
    10  N   -0.172252
    11  C    0.057354
 Electronic spatial extent (au):  <R**2>=           2119.9996
 Charge=              0.0000 electrons
 Dipole moment (field-independent basis, Debye):
    X=              1.1567    Y=             -1.9290    Z=              0.0000  Tot=              2.2492
 Quadrupole moment (field-independent basis, Debye-Ang):
   XX=            -48.0566   YY=            -70.8793   ZZ=            -63.3837
   XY=             10.6026   XZ=             -0.0000   YZ=              0.0001
 Traceless Quadrupole moment (field-independent basis, Debye-Ang):
   XX=             12.7166   YY=            -10.1061   ZZ=             -2.6106
   XY=             10.6026   XZ=             -0.0000   YZ=              0.0001
 Octapole moment (field-independent basis, Debye-Ang**2):
  XXX=            -19.6380  YYY=             -6.5993  ZZZ=              0.0002  XYY=              0.3182
  XXY=             -9.5885  XXZ=             -0.0018  XZZ=             -7.7848  YZZ=              0.2283
  YYZ=             -0.0009  XYZ=             -0.0006
 Hexadecapole moment (field-independent basis, Debye-Ang**3):
 XXXX=          -1986.1274 YYYY=           -439.6173 ZZZZ=            -76.3715 XXXY=             75.3532
 XXXZ=              0.0041 YYYX=             49.0801 YYYZ=              0.0000 ZZZX=              0.0016
 ZZZY=             -0.0001 XXYY=           -460.9546 XXZZ=           -386.2011 YYZZ=            -85.3473
 XXYZ=              0.0014 YYXZ=             -0.0007 ZZXY=             -7.7756
 N-N= 5.817856282419D+02 E-N=-2.403976001188D+03  KE= 5.287950311202D+02
 Unable to Open any file for archive entry.
 1\1\GINC-COMPUTE-0-28\SP\RM062X\def2TZVP\C7H8N2O2\ZTAN64\14-Aug-2024\0
 \\# M062X/def2tzvp int=(grid=ultrafine) nmr=giao guess=read geom=check
 \\pyrz3.xyz\\0,1\C,0,-3.6135370248,-0.5538615586,0.812152288\C,0,-2.22
 08290853,-0.2362634544,0.3499798457\N,0,-1.2277933663,-0.3565808658,1.
 244436975\C,0,0.0062684178,-0.0714562646,0.8217979767\C,0,0.2668349835
 ,0.3358707268,-0.4927170666\C,0,1.6495670168,0.6579920894,-0.975659759
 7\O,0,2.5576094371,0.4986815192,0.0167320097\C,0,3.9146594303,0.786259
 4226,-0.3558671123\O,0,1.9318335689,1.013259702,-2.0957700072\N,0,-0.7
 194571655,0.4581850588,-1.3910120144\C,0,-1.9471549331,0.1732329475,-0
 .9659751821\H,0,-3.8904978586,0.0939707528,1.6495855419\H,0,-4.3436148
 287,-0.4243228683,0.0100491774\H,0,-3.6654763089,-1.585566666,1.173511
 0472\H,0,0.8128081735,-0.1671327436,1.5410466549\H,0,4.2359133763,0.12
 81527899,-1.1664933685\H,0,4.5087364517,0.6121101201,0.5403393575\H,0,
 4.0085233744,1.8232647111,-0.6863718363\H,0,-2.7528936591,0.2705045811
 ,-1.6904645269\\Version=ES64L-G16RevC.01\State=1-A\HF=-531.4990178\RMS
 D=2.367e-09\Dipole=-0.256858,-0.2625116,0.8050868\Quadrupole=11.924178
 7,-2.5436004,-9.3805783,0.9083732,3.3544109,2.5573279\PG=C01 [X(C7H8N2
 O2)]\\@
 The archive entry for this job was punched.


 THE NUMBERS ARE MEANINGLESS, BUT THE TRENDS ARE IMPORTANT.
     -- LARRY BURGGRAF
 Job cpu time:       0 days  0 hours 17 minutes 24.5 seconds.
 Elapsed time:       0 days  0 hours  1 minutes 10.3 seconds.
 File lengths (MBytes):  RWF=     89 Int=      0 D2E=      0 Chk=     15 Scr=      1
 Normal termination of Gaussian 16 at Wed Aug 14 20:41:53 2024.
 
 
-----Kestrel cluster job statistics-----
Time info:

real	6m11.348s
user	96m15.671s
sys	0m14.569s
 
Disk space usage:
15M	/scratch/363003.kestrel.chem.wisc.edu
