 Entering Gaussian System, Link 0=/share/apps/gaussian/g16/g16
 Initial command:
 /share/apps/gaussian/g16/l1.exe "/scratch/362948.kestrel.chem.wisc.edu/Gau-150495.inp" -scrdir="/scratch/362948.kestrel.chem.wisc.edu/"
 Entering Link 1 = /share/apps/gaussian/g16/l1.exe PID=    150497.
  
 Copyright (c) 1988-2019, Gaussian, Inc.  All Rights Reserved.
  
 This is part of the Gaussian(R) 16 program.  It is based on
 the Gaussian(R) 09 system (copyright 2009, Gaussian, Inc.),
 the Gaussian(R) 03 system (copyright 2003, Gaussian, Inc.),
 the Gaussian(R) 98 system (copyright 1998, Gaussian, Inc.),
 the Gaussian(R) 94 system (copyright 1995, Gaussian, Inc.),
 the Gaussian 92(TM) system (copyright 1992, Gaussian, Inc.),
 the Gaussian 90(TM) system (copyright 1990, Gaussian, Inc.),
 the Gaussian 88(TM) system (copyright 1988, Gaussian, Inc.),
 the Gaussian 86(TM) system (copyright 1986, Carnegie Mellon
 University), and the Gaussian 82(TM) system (copyright 1983,
 Carnegie Mellon University). Gaussian is a federally registered
 trademark of Gaussian, Inc.
  
 This software contains proprietary and confidential information,
 including trade secrets, belonging to Gaussian, Inc.
  
 This software is provided under written license and may be
 used, copied, transmitted, or stored only in accord with that
 written license.
  
 The following legend is applicable only to US Government
 contracts under FAR:
  
                    RESTRICTED RIGHTS LEGEND
  
 Use, reproduction and disclosure by the US Government is
 subject to restrictions as set forth in subparagraphs (a)
 and (c) of the Commercial Computer Software - Restricted
 Rights clause in FAR 52.227-19.
  
 Gaussian, Inc.
 340 Quinnipiac St., Bldg. 40, Wallingford CT 06492
  
  
 ---------------------------------------------------------------
 Warning -- This program may not be used in any manner that
 competes with the business of Gaussian, Inc. or will provide
 assistance to any competitor of Gaussian, Inc.  The licensee
 of this program is prohibited from giving any competitor of
 Gaussian, Inc. access to this program.  By using this program,
 the user acknowledges that Gaussian, Inc. is engaged in the
 business of creating and licensing software in the field of
 computational chemistry and represents and warrants to the
 licensee that it is not a competitor of Gaussian, Inc. and that
 it will not use this program in any manner prohibited above.
 ---------------------------------------------------------------
  

 Cite this work as:
 Gaussian 16, Revision C.01,
 M. J. Frisch, G. W. Trucks, H. B. Schlegel, G. E. Scuseria, 
 M. A. Robb, J. R. Cheeseman, G. Scalmani, V. Barone, 
 G. A. Petersson, H. Nakatsuji, X. Li, M. Caricato, A. V. Marenich, 
 J. Bloino, B. G. Janesko, R. Gomperts, B. Mennucci, H. P. Hratchian, 
 J. V. Ortiz, A. F. Izmaylov, J. L. Sonnenberg, D. Williams-Young, 
 F. Ding, F. Lipparini, F. Egidi, J. Goings, B. Peng, A. Petrone, 
 T. Henderson, D. Ranasinghe, V. G. Zakrzewski, J. Gao, N. Rega, 
 G. Zheng, W. Liang, M. Hada, M. Ehara, K. Toyota, R. Fukuda, 
 J. Hasegawa, M. Ishida, T. Nakajima, Y. Honda, O. Kitao, H. Nakai, 
 T. Vreven, K. Throssell, J. A. Montgomery, Jr., J. E. Peralta, 
 F. Ogliaro, M. J. Bearpark, J. J. Heyd, E. N. Brothers, K. N. Kudin, 
 V. N. Staroverov, T. A. Keith, R. Kobayashi, J. Normand, 
 K. Raghavachari, A. P. Rendell, J. C. Burant, S. S. Iyengar, 
 J. Tomasi, M. Cossi, J. M. Millam, M. Klene, C. Adamo, R. Cammi, 
 J. W. Ochterski, R. L. Martin, K. Morokuma, O. Farkas, 
 J. B. Foresman, and D. J. Fox, Gaussian, Inc., Wallingford CT, 2019.
 
 ******************************************
 Gaussian 16:  ES64L-G16RevC.01  3-Jul-2019
                14-Aug-2024 
 ******************************************
 %nprocs=16
 Will use up to   16 processors via shared memory.
 %mem=16GB
 %chk=pyrd10_conf-1.chk
 ----------------------------------------------------------------------
 # B3LYP/6-31G(d,p) symmetry=loose empiricaldispersion=GD3BJ int=(grid=
 ultrafine) opt freq=noraman
 ----------------------------------------------------------------------
 1/18=20,19=15,26=4,38=1/1,3;
 2/9=110,12=2,17=4,18=3,40=1/2;
 3/5=1,6=6,7=101,11=2,25=1,30=1,71=1,74=-5,75=-5,124=41/1,2,3;
 4//1;
 5/5=2,38=5/2;
 6/7=2,8=2,9=2,10=2,28=1/1;
 7//1,2,3,16;
 1/18=20,19=15,26=4/3(2);
 2/9=110/2;
 99//99;
 2/9=110/2;
 3/5=1,6=6,7=101,11=2,25=1,30=1,71=1,74=-5,75=-5,124=41/1,2,3;
 4/5=5,16=3,69=1/1;
 5/5=2,38=5/2;
 7//1,2,3,16;
 1/18=20,19=15,26=4/3(-5);
 2/9=110/2;
 6/7=2,8=2,9=2,10=2,19=2,28=1/1;
 99/9=1/99;
 ----------
 pyrd10.xyz
 ----------
 Symbolic Z-matrix:
 Charge =  0 Multiplicity = 1
 Br                    4.6342   -1.0884    1.8751 
 C                     3.6762   -2.4054    0.7277 
 C                     2.8941   -1.6814   -0.3848 
 C                     1.7836   -0.7336    0.1165 
 C                     0.6941   -1.4435    0.9063 
 C                     0.7077   -1.4455    2.3057 
 N                    -0.237    -2.0718    3.0529 
 C                    -1.2365   -2.7177    2.4007 
 C                    -1.3265   -2.7632    1.0079 
 C                    -0.3452   -2.1158    0.254 
 H                     4.4247   -3.0796    0.3097 
 H                     3.0217   -2.9998    1.3674 
 H                     2.453    -2.4256   -1.0495 
 H                     3.5974   -1.1162   -0.9983 
 H                     2.2107    0.0682    0.7218 
 H                     1.3205   -0.2241   -0.7303 
 H                     1.4936   -0.9448    2.854 
 H                    -1.975    -3.2044    3.0218 
 H                    -2.1378   -3.2866    0.5236 
 H                    -0.3931   -2.1372   -0.8252 
 

 GradGradGradGradGradGradGradGradGradGradGradGradGradGradGradGradGradGrad
 Berny optimization.
 Initialization pass.
                           ----------------------------
                           !    Initial Parameters    !
                           ! (Angstroms and Degrees)  !
 --------------------------                            --------------------------
 ! Name  Definition              Value          Derivative Info.                !
 --------------------------------------------------------------------------------
 ! R1    R(1,2)                  1.9922         estimate D2E/DX2                !
 ! R2    R(2,3)                  1.5406         estimate D2E/DX2                !
 ! R3    R(2,11)                 1.0907         estimate D2E/DX2                !
 ! R4    R(2,12)                 1.0913         estimate D2E/DX2                !
 ! R5    R(3,4)                  1.5436         estimate D2E/DX2                !
 ! R6    R(3,13)                 1.091          estimate D2E/DX2                !
 ! R7    R(3,14)                 1.0911         estimate D2E/DX2                !
 ! R8    R(4,5)                  1.5214         estimate D2E/DX2                !
 ! R9    R(4,15)                 1.0916         estimate D2E/DX2                !
 ! R10   R(4,16)                 1.0914         estimate D2E/DX2                !
 ! R11   R(5,6)                  1.3995         estimate D2E/DX2                !
 ! R12   R(5,10)                 1.3992         estimate D2E/DX2                !
 ! R13   R(6,7)                  1.3576         estimate D2E/DX2                !
 ! R14   R(6,17)                 1.0812         estimate D2E/DX2                !
 ! R15   R(7,8)                  1.357          estimate D2E/DX2                !
 ! R16   R(8,9)                  1.3964         estimate D2E/DX2                !
 ! R17   R(8,18)                 1.0808         estimate D2E/DX2                !
 ! R18   R(9,10)                 1.3966         estimate D2E/DX2                !
 ! R19   R(9,19)                 1.0801         estimate D2E/DX2                !
 ! R20   R(10,20)                1.0805         estimate D2E/DX2                !
 ! A1    A(1,2,3)              110.4476         estimate D2E/DX2                !
 ! A2    A(1,2,11)             107.42           estimate D2E/DX2                !
 ! A3    A(1,2,12)             108.1118         estimate D2E/DX2                !
 ! A4    A(3,2,11)             111.2317         estimate D2E/DX2                !
 ! A5    A(3,2,12)             112.0117         estimate D2E/DX2                !
 ! A6    A(11,2,12)            107.4314         estimate D2E/DX2                !
 ! A7    A(2,3,4)              114.7869         estimate D2E/DX2                !
 ! A8    A(2,3,13)             108.9443         estimate D2E/DX2                !
 ! A9    A(2,3,14)             108.7986         estimate D2E/DX2                !
 ! A10   A(4,3,13)             109.0159         estimate D2E/DX2                !
 ! A11   A(4,3,14)             109.163          estimate D2E/DX2                !
 ! A12   A(13,3,14)            105.7473         estimate D2E/DX2                !
 ! A13   A(3,4,5)              113.4067         estimate D2E/DX2                !
 ! A14   A(3,4,15)             110.4619         estimate D2E/DX2                !
 ! A15   A(3,4,16)             109.8723         estimate D2E/DX2                !
 ! A16   A(5,4,15)             109.5751         estimate D2E/DX2                !
 ! A17   A(5,4,16)             108.4664         estimate D2E/DX2                !
 ! A18   A(15,4,16)            104.6758         estimate D2E/DX2                !
 ! A19   A(4,5,6)              120.8505         estimate D2E/DX2                !
 ! A20   A(4,5,10)             120.9381         estimate D2E/DX2                !
 ! A21   A(6,5,10)             118.211          estimate D2E/DX2                !
 ! A22   A(5,6,7)              122.9743         estimate D2E/DX2                !
 ! A23   A(5,6,17)             120.8975         estimate D2E/DX2                !
 ! A24   A(7,6,17)             116.1259         estimate D2E/DX2                !
 ! A25   A(6,7,8)              117.8779         estimate D2E/DX2                !
 ! A26   A(7,8,9)              122.8422         estimate D2E/DX2                !
 ! A27   A(7,8,18)             116.1951         estimate D2E/DX2                !
 ! A28   A(9,8,18)             120.9627         estimate D2E/DX2                !
 ! A29   A(8,9,10)             118.5561         estimate D2E/DX2                !
 ! A30   A(8,9,19)             120.7567         estimate D2E/DX2                !
 ! A31   A(10,9,19)            120.6871         estimate D2E/DX2                !
 ! A32   A(5,10,9)             119.5382         estimate D2E/DX2                !
 ! A33   A(5,10,20)            120.5379         estimate D2E/DX2                !
 ! A34   A(9,10,20)            119.9239         estimate D2E/DX2                !
 ! D1    D(1,2,3,4)            -62.4491         estimate D2E/DX2                !
 ! D2    D(1,2,3,13)           175.0066         estimate D2E/DX2                !
 ! D3    D(1,2,3,14)            60.1755         estimate D2E/DX2                !
 ! D4    D(11,2,3,4)           178.3663         estimate D2E/DX2                !
 ! D5    D(11,2,3,13)           55.822          estimate D2E/DX2                !
 ! D6    D(11,2,3,14)          -59.0091         estimate D2E/DX2                !
 ! D7    D(12,2,3,4)            58.1207         estimate D2E/DX2                !
 ! D8    D(12,2,3,13)          -64.4235         estimate D2E/DX2                !
 ! D9    D(12,2,3,14)         -179.2546         estimate D2E/DX2                !
 ! D10   D(2,3,4,5)            -61.5314         estimate D2E/DX2                !
 ! D11   D(2,3,4,15)            61.9173         estimate D2E/DX2                !
 ! D12   D(2,3,4,16)           176.9035         estimate D2E/DX2                !
 ! D13   D(13,3,4,5)            60.9742         estimate D2E/DX2                !
 ! D14   D(13,3,4,15)         -175.5771         estimate D2E/DX2                !
 ! D15   D(13,3,4,16)          -60.5909         estimate D2E/DX2                !
 ! D16   D(14,3,4,5)           176.0405         estimate D2E/DX2                !
 ! D17   D(14,3,4,15)          -60.5108         estimate D2E/DX2                !
 ! D18   D(14,3,4,16)           54.4754         estimate D2E/DX2                !
 ! D19   D(3,4,5,6)             98.2575         estimate D2E/DX2                !
 ! D20   D(3,4,5,10)           -81.5041         estimate D2E/DX2                !
 ! D21   D(15,4,5,6)           -25.6758         estimate D2E/DX2                !
 ! D22   D(15,4,5,10)          154.5625         estimate D2E/DX2                !
 ! D23   D(16,4,5,6)          -139.3938         estimate D2E/DX2                !
 ! D24   D(16,4,5,10)           40.8446         estimate D2E/DX2                !
 ! D25   D(4,5,6,7)           -179.5661         estimate D2E/DX2                !
 ! D26   D(4,5,6,17)            -0.1433         estimate D2E/DX2                !
 ! D27   D(10,5,6,7)             0.2019         estimate D2E/DX2                !
 ! D28   D(10,5,6,17)          179.6247         estimate D2E/DX2                !
 ! D29   D(4,5,10,9)           179.6894         estimate D2E/DX2                !
 ! D30   D(4,5,10,20)           -0.3065         estimate D2E/DX2                !
 ! D31   D(6,5,10,9)            -0.0784         estimate D2E/DX2                !
 ! D32   D(6,5,10,20)          179.9257         estimate D2E/DX2                !
 ! D33   D(5,6,7,8)             -0.218          estimate D2E/DX2                !
 ! D34   D(17,6,7,8)          -179.6663         estimate D2E/DX2                !
 ! D35   D(6,7,8,9)              0.1149         estimate D2E/DX2                !
 ! D36   D(6,7,8,18)          -179.8355         estimate D2E/DX2                !
 ! D37   D(7,8,9,10)            -0.0012         estimate D2E/DX2                !
 ! D38   D(7,8,9,19)          -179.9323         estimate D2E/DX2                !
 ! D39   D(18,8,9,10)          179.9469         estimate D2E/DX2                !
 ! D40   D(18,8,9,19)            0.0157         estimate D2E/DX2                !
 ! D41   D(8,9,10,5)            -0.016          estimate D2E/DX2                !
 ! D42   D(8,9,10,20)          179.9799         estimate D2E/DX2                !
 ! D43   D(19,9,10,5)          179.9152         estimate D2E/DX2                !
 ! D44   D(19,9,10,20)          -0.0888         estimate D2E/DX2                !
 --------------------------------------------------------------------------------
 Trust Radius=3.00D-01 FncErr=1.00D-07 GrdErr=1.00D-06 EigMax=2.50D+02 EigMin=1.00D-04
 Number of steps in this run=    108 maximum allowed number of steps=    120.
 GradGradGradGradGradGradGradGradGradGradGradGradGradGradGradGradGradGrad

                          Input orientation:                          
 ---------------------------------------------------------------------
 Center     Atomic      Atomic             Coordinates (Angstroms)
 Number     Number       Type             X           Y           Z
 ---------------------------------------------------------------------
      1         35           0        4.634200   -1.088400    1.875100
      2          6           0        3.676200   -2.405400    0.727700
      3          6           0        2.894100   -1.681400   -0.384800
      4          6           0        1.783600   -0.733600    0.116500
      5          6           0        0.694100   -1.443500    0.906300
      6          6           0        0.707700   -1.445500    2.305700
      7          7           0       -0.237000   -2.071800    3.052900
      8          6           0       -1.236500   -2.717700    2.400700
      9          6           0       -1.326500   -2.763200    1.007900
     10          6           0       -0.345200   -2.115800    0.254000
     11          1           0        4.424700   -3.079600    0.309700
     12          1           0        3.021700   -2.999800    1.367400
     13          1           0        2.453000   -2.425600   -1.049500
     14          1           0        3.597400   -1.116200   -0.998300
     15          1           0        2.210700    0.068200    0.721800
     16          1           0        1.320500   -0.224100   -0.730300
     17          1           0        1.493600   -0.944800    2.854000
     18          1           0       -1.975000   -3.204400    3.021800
     19          1           0       -2.137800   -3.286600    0.523600
     20          1           0       -0.393100   -2.137200   -0.825200
 ---------------------------------------------------------------------
                    Distance matrix (angstroms):
                    1          2          3          4          5
     1  Br   0.000000
     2  C    1.992180   0.000000
     3  C    2.913202   1.540621   0.000000
     4  C    3.368156   2.598156   1.543644   0.000000
     5  C    4.072967   3.138482   2.561940   1.521431   0.000000
     6  C    3.966149   3.496210   3.474879   2.541055   1.399468
     7  N    5.107140   4.564097   4.666260   3.807368   2.422726
     8  C    6.115226   5.199142   5.088692   4.274953   2.753912
     9  C    6.251955   5.023300   4.574207   3.819240   2.415524
    10  C    5.336473   4.059547   3.330140   2.541884   1.399152
    11  H    2.541504   1.090652   2.186328   3.537860   4.117054
    12  H    2.551738   1.091283   2.196512   2.869374   2.837676
    13  H    3.885746   2.157560   1.090976   2.161138   2.807740
    14  H    3.054858   2.155765   1.091084   2.163107   3.487661
    15  H    2.922529   2.875139   2.180069   1.091644   2.149268
    16  H    4.302991   3.526068   2.172397   1.091385   2.134894
    17  H    3.292755   3.379090   3.604692   2.760908   2.163663
    18  H    7.033769   6.151208   6.134541   5.354689   3.834084
    19  H    7.246973   5.883941   5.359279   4.696905   3.400461
    20  H    5.802185   4.363786   3.347744   2.755887   2.159008
                    6          7          8          9         10
     6  C    0.000000
     7  N    1.357578   0.000000
     8  C    2.325388   1.357038   0.000000
     9  C    2.749289   2.418071   1.396446   0.000000
    10  C    2.401536   2.801336   2.401046   1.396582   0.000000
    11  H    4.524421   5.502023   6.045861   5.802059   4.866617
    12  H    2.941233   3.784339   4.390849   4.369447   3.654741
    13  H    3.906921   4.918431   5.059804   4.316421   3.102420
    14  H    4.401729   5.659330   6.122466   5.566169   4.255767
    15  H    2.656885   4.000608   4.739529   4.539875   3.394307
    16  H    3.329360   4.489143   4.749679   4.058938   2.705907
    17  H    1.081190   2.074769   3.286655   3.829834   3.392997
    18  H    3.286854   2.074703   1.080752   2.161250   3.391462
    19  H    3.829151   3.389121   2.158586   1.080140   2.157979
    20  H    3.390095   3.881791   3.384484   2.150202   1.080474
                   11         12         13         14         15
    11  H    0.000000
    12  H    1.758837   0.000000
    13  H    2.482487   2.548437   0.000000
    14  H    2.500046   3.078298   1.739770   0.000000
    15  H    3.870435   3.238386   3.068428   2.506887   0.000000
    16  H    4.344138   3.872846   2.496207   2.460069   1.728146
    17  H    4.429693   2.961097   4.283752   4.392672   2.467119
    18  H    6.951778   5.267439   6.065410   7.181464   5.789646
    19  H    6.569247   5.235904   4.928632   6.318175   5.495764
    20  H    5.038582   4.148787   2.869455   4.122681   3.746568
                   16         17         18         19         20
    16  H    0.000000
    17  H    3.660134   0.000000
    18  H    5.815562   4.143083   0.000000
    19  H    4.786545   4.909364   2.504848   0.000000
    20  H    2.570094   4.303251   4.294267   2.486837   0.000000
 Stoichiometry    C8H10BrN
 Framework group  C1[X(C8H10BrN)]
 Deg. of freedom    54
 Full point group                 C1      NOp   1
 Largest Abelian subgroup         C1      NOp   1
 Largest concise Abelian subgroup C1      NOp   1
                         Standard orientation:                         
 ---------------------------------------------------------------------
 Center     Atomic      Atomic             Coordinates (Angstroms)
 Number     Number       Type             X           Y           Z
 ---------------------------------------------------------------------
      1         35           0       -2.538521   -0.509503   -0.032327
      2          6           0       -1.329410    0.631331    1.065547
      3          6           0       -0.710737    1.746867    0.201641
      4          6           0        0.181296    1.249528   -0.955842
      5          6           0        1.392060    0.455962   -0.487809
      6          6           0        1.377241   -0.943427   -0.489338
      7          7           0        2.429205   -1.693942   -0.073267
      8          6           0        3.540742   -1.045187    0.357031
      9          6           0        3.640064    0.347347    0.389366
     10          6           0        2.547962    1.104676   -0.039827
     11          1           0       -1.923302    1.046495    1.880686
     12          1           0       -0.567876   -0.011414    1.510343
     13          1           0       -0.125591    2.407899    0.842633
     14          1           0       -1.514087    2.363297   -0.204693
     15          1           0       -0.401868    0.648158   -1.655814
     16          1           0        0.531328    2.098501   -1.545626
     17          1           0        0.504667   -1.489051   -0.820823
     18          1           0        4.362449   -1.668865    0.679284
     19          1           0        4.542063    0.828855    0.737577
     20          1           0        2.600710    2.183744   -0.023859
 ---------------------------------------------------------------------
 Rotational constants (GHZ):           2.1240197           0.4396966           0.3912465
 Standard basis: 6-31G(d,p) (6D, 7F)
 There are   215 symmetry adapted cartesian basis functions of A   symmetry.
 There are   215 symmetry adapted basis functions of A   symmetry.
   215 basis functions,   405 primitive gaussians,   215 cartesian basis functions
    50 alpha electrons       50 beta electrons
       nuclear repulsion energy       723.3783446477 Hartrees.
 NAtoms=   20 NActive=   20 NUniq=   20 SFac= 1.00D+00 NAtFMM=   60 NAOKFM=F Big=F
 Integral buffers will be    131072 words long.
 Raffenetti 2 integral format.
 Two-electron integral symmetry is turned on.
 Nuclear repulsion after empirical dispersion term =      723.3387999975 Hartrees.
 One-electron integrals computed using PRISM.
 NBasis=   215 RedAO= T EigKep=  7.43D-04  NBF=   215
 NBsUse=   215 1.00D-06 EigRej= -1.00D+00 NBFU=   215
 ExpMin= 1.43D-01 ExpMax= 5.74D+05 ExpMxC= 5.74D+03 IAcc=3 IRadAn=         5 AccDes= 0.00D+00
 Harris functional with IExCor=  402 and IRadAn=       5 diagonalized for initial guess.
 HarFok:  IExCor=  402 AccDes= 0.00D+00 IRadAn=         5 IDoV= 1 UseB2=F ITyADJ=14
 ICtDFT=  3500011 ScaDFX=  1.000000  1.000000  1.000000  1.000000
 FoFCou: FMM=F IPFlag=           0 FMFlag=      100000 FMFlg1=           0
         NFxFlg=           0 DoJE=T BraDBF=F KetDBF=T FulRan=T
         wScrn=  0.000000 ICntrl=       500 IOpCl=  0 I1Cent=   200000004 NGrid=           0
         NMat0=    1 NMatS0=      1 NMatT0=    0 NMatD0=    1 NMtDS0=    0 NMtDT0=    0
 Petite list used in FoFCou.
 Requested convergence on RMS density matrix=1.00D-08 within 128 cycles.
 Requested convergence on MAX density matrix=1.00D-06.
 Requested convergence on             energy=1.00D-06.
 No special actions if energy rises.
 Integral accuracy reduced to 1.0D-05 until final iterations.
 Initial convergence to 1.0D-05 achieved.  Increase integral accuracy.
 SCF Done:  E(RB3LYP) =  -2937.38824717     A.U. after   14 cycles
            NFock= 14  Conv=0.47D-08     -V/T= 2.0067

 **********************************************************************

            Population analysis using the SCF Density.

 **********************************************************************

 Orbital symmetries:
       Occupied  (A) (A) (A) (A) (A) (A) (A) (A) (A) (A) (A) (A)
                 (A) (A) (A) (A) (A) (A) (A) (A) (A) (A) (A) (A)
                 (A) (A) (A) (A) (A) (A) (A) (A) (A) (A) (A) (A)
                 (A) (A) (A) (A) (A) (A) (A) (A) (A) (A) (A) (A)
                 (A) (A)
       Virtual   (A) (A) (A) (A) (A) (A) (A) (A) (A) (A) (A) (A)
                 (A) (A) (A) (A) (A) (A) (A) (A) (A) (A) (A) (A)
                 (A) (A) (A) (A) (A) (A) (A) (A) (A) (A) (A) (A)
                 (A) (A) (A) (A) (A) (A) (A) (A) (A) (A) (A) (A)
                 (A) (A) (A) (A) (A) (A) (A) (A) (A) (A) (A) (A)
                 (A) (A) (A) (A) (A) (A) (A) (A) (A) (A) (A) (A)
                 (A) (A) (A) (A) (A) (A) (A) (A) (A) (A) (A) (A)
                 (A) (A) (A) (A) (A) (A) (A) (A) (A) (A) (A) (A)
                 (A) (A) (A) (A) (A) (A) (A) (A) (A) (A) (A) (A)
                 (A) (A) (A) (A) (A) (A) (A) (A) (A) (A) (A) (A)
                 (A) (A) (A) (A) (A) (A) (A) (A) (A) (A) (A) (A)
                 (A) (A) (A) (A) (A) (A) (A) (A) (A) (A) (A) (A)
                 (A) (A) (A) (A) (A) (A) (A) (A) (A) (A) (A) (A)
                 (A) (A) (A) (A) (A) (A) (A) (A) (A)
 The electronic state is 1-A.
 Alpha  occ. eigenvalues -- -482.89909 -61.86126 -56.38157 -56.37794 -56.37785
 Alpha  occ. eigenvalues --  -14.33013 -10.24754 -10.22221 -10.21980 -10.20814
 Alpha  occ. eigenvalues --  -10.20793 -10.20594 -10.20103 -10.19858  -8.57212
 Alpha  occ. eigenvalues --   -6.52568  -6.51318  -6.51309  -2.64131  -2.63783
 Alpha  occ. eigenvalues --   -2.63776  -2.62779  -2.62779  -0.92910  -0.83347
 Alpha  occ. eigenvalues --   -0.80269  -0.77389  -0.73946  -0.68294  -0.63167
 Alpha  occ. eigenvalues --   -0.62201  -0.58345  -0.51963  -0.49091  -0.47906
 Alpha  occ. eigenvalues --   -0.46240  -0.45031  -0.42403  -0.40266  -0.39940
 Alpha  occ. eigenvalues --   -0.39449  -0.37691  -0.36833  -0.35374  -0.34269
 Alpha  occ. eigenvalues --   -0.28139  -0.27507  -0.27412  -0.25617  -0.24955
 Alpha virt. eigenvalues --   -0.02811  -0.01185  -0.00062   0.08480   0.10879
 Alpha virt. eigenvalues --    0.11607   0.12918   0.13959   0.14630   0.15553
 Alpha virt. eigenvalues --    0.16070   0.16777   0.17857   0.18611   0.19816
 Alpha virt. eigenvalues --    0.22251   0.24595   0.25216   0.29882   0.32092
 Alpha virt. eigenvalues --    0.32632   0.36062   0.40387   0.42059   0.44266
 Alpha virt. eigenvalues --    0.45519   0.45706   0.47473   0.47652   0.50897
 Alpha virt. eigenvalues --    0.51442   0.52697   0.53483   0.54933   0.55330
 Alpha virt. eigenvalues --    0.56003   0.58199   0.59166   0.59526   0.59975
 Alpha virt. eigenvalues --    0.62779   0.63591   0.64456   0.66056   0.66666
 Alpha virt. eigenvalues --    0.67664   0.69919   0.73368   0.77262   0.79616
 Alpha virt. eigenvalues --    0.80212   0.81486   0.81874   0.83071   0.85221
 Alpha virt. eigenvalues --    0.86457   0.87057   0.88058   0.89801   0.90558
 Alpha virt. eigenvalues --    0.91058   0.93784   0.94546   0.95797   0.97692
 Alpha virt. eigenvalues --    1.00709   1.04944   1.07125   1.09909   1.11685
 Alpha virt. eigenvalues --    1.16370   1.19478   1.25320   1.28797   1.33366
 Alpha virt. eigenvalues --    1.34398   1.37410   1.40015   1.43039   1.46181
 Alpha virt. eigenvalues --    1.46454   1.48055   1.50216   1.52491   1.57950
 Alpha virt. eigenvalues --    1.62619   1.69928   1.72790   1.74696   1.77915
 Alpha virt. eigenvalues --    1.79998   1.81040   1.82949   1.84873   1.86035
 Alpha virt. eigenvalues --    1.88451   1.90711   1.92209   1.97018   1.98297
 Alpha virt. eigenvalues --    1.99583   2.03068   2.08298   2.09422   2.11168
 Alpha virt. eigenvalues --    2.11681   2.13317   2.15060   2.18880   2.20398
 Alpha virt. eigenvalues --    2.26502   2.27312   2.31068   2.31547   2.32333
 Alpha virt. eigenvalues --    2.34676   2.35506   2.38029   2.39342   2.41257
 Alpha virt. eigenvalues --    2.45825   2.48015   2.49386   2.50603   2.53878
 Alpha virt. eigenvalues --    2.55708   2.56364   2.61114   2.63378   2.64237
 Alpha virt. eigenvalues --    2.67256   2.67633   2.69040   2.71621   2.76351
 Alpha virt. eigenvalues --    2.80236   2.84280   2.84618   2.88188   2.88927
 Alpha virt. eigenvalues --    2.98535   3.05224   3.18025   3.23849   3.24507
 Alpha virt. eigenvalues --    3.27680   3.29268   3.31948   3.39472   3.40187
 Alpha virt. eigenvalues --    3.47072   3.49980   3.53252   3.79388   4.09893
 Alpha virt. eigenvalues --    4.16419   4.17866   4.27525   4.34200   4.44857
 Alpha virt. eigenvalues --    4.51947   4.66489   4.74615   8.65258  73.47500
          Condensed to atoms (all electrons):
               1          2          3          4          5          6
     1  Br  35.011840   0.254194  -0.053649  -0.008782  -0.002173  -0.001258
     2  C    0.254194   4.981061   0.347536  -0.046593  -0.005544  -0.000623
     3  C   -0.053649   0.347536   4.965105   0.358419  -0.045204  -0.003402
     4  C   -0.008782  -0.046593   0.358419   5.037004   0.343006  -0.041854
     5  C   -0.002173  -0.005544  -0.045204   0.343006   4.827924   0.486679
     6  C   -0.001258  -0.000623  -0.003402  -0.041854   0.486679   4.826094
     7  N    0.000054  -0.000113  -0.000055   0.005717  -0.017705   0.432225
     8  C   -0.000003   0.000019   0.000022   0.000266  -0.032586  -0.072514
     9  C    0.000000  -0.000006  -0.000016   0.006999  -0.021285  -0.041071
    10  C   -0.000020  -0.000453  -0.002886  -0.063381   0.534411  -0.039381
    11  H   -0.037048   0.378359  -0.031541   0.004419   0.000111   0.000031
    12  H   -0.036600   0.374593  -0.035684  -0.008514   0.008773   0.003875
    13  H    0.004774  -0.032592   0.367835  -0.037414  -0.005950   0.000055
    14  H   -0.000625  -0.039113   0.377838  -0.031641   0.004711  -0.000028
    15  H    0.012033  -0.008036  -0.034032   0.379054  -0.031754  -0.005022
    16  H    0.000187   0.005069  -0.032545   0.369382  -0.029993   0.003071
    17  H    0.006467  -0.000501   0.000062  -0.004376  -0.062526   0.388235
    18  H    0.000000   0.000000   0.000000   0.000014   0.000698   0.004527
    19  H   -0.000000  -0.000000   0.000001  -0.000111   0.005091   0.000420
    20  H    0.000001   0.000067   0.000339  -0.009162  -0.048700   0.005634
               7          8          9         10         11         12
     1  Br   0.000054  -0.000003   0.000000  -0.000020  -0.037048  -0.036600
     2  C   -0.000113   0.000019  -0.000006  -0.000453   0.378359   0.374593
     3  C   -0.000055   0.000022  -0.000016  -0.002886  -0.031541  -0.035684
     4  C    0.005717   0.000266   0.006999  -0.063381   0.004419  -0.008514
     5  C   -0.017705  -0.032586  -0.021285   0.534411   0.000111   0.008773
     6  C    0.432225  -0.072514  -0.041071  -0.039381   0.000031   0.003875
     7  N    6.734308   0.458740  -0.024390  -0.055764   0.000001   0.000003
     8  C    0.458740   4.729016   0.501458  -0.038827  -0.000000  -0.000041
     9  C   -0.024390   0.501458   4.907075   0.515330  -0.000001  -0.000091
    10  C   -0.055764  -0.038827   0.515330   4.895264  -0.000010   0.000724
    11  H    0.000001  -0.000000  -0.000001  -0.000010   0.580937  -0.036627
    12  H    0.000003  -0.000041  -0.000091   0.000724  -0.036627   0.569269
    13  H   -0.000001  -0.000003  -0.000138   0.003457  -0.001963  -0.001515
    14  H    0.000001  -0.000000   0.000004   0.000058  -0.003977   0.005439
    15  H    0.000085   0.000006  -0.000214   0.004133   0.000123   0.000139
    16  H   -0.000171   0.000020   0.000003  -0.006489  -0.000118   0.000050
    17  H   -0.047663   0.004582   0.000317   0.004018   0.000040  -0.000420
    18  H   -0.050364   0.388358  -0.062004   0.003421  -0.000000   0.000000
    19  H    0.004893  -0.035354   0.358574  -0.040365  -0.000000  -0.000001
    20  H   -0.000300   0.004786  -0.045747   0.374028   0.000001  -0.000008
              13         14         15         16         17         18
     1  Br   0.004774  -0.000625   0.012033   0.000187   0.006467   0.000000
     2  C   -0.032592  -0.039113  -0.008036   0.005069  -0.000501   0.000000
     3  C    0.367835   0.377838  -0.034032  -0.032545   0.000062   0.000000
     4  C   -0.037414  -0.031641   0.379054   0.369382  -0.004376   0.000014
     5  C   -0.005950   0.004711  -0.031754  -0.029993  -0.062526   0.000698
     6  C    0.000055  -0.000028  -0.005022   0.003071   0.388235   0.004527
     7  N   -0.000001   0.000001   0.000085  -0.000171  -0.047663  -0.050364
     8  C   -0.000003  -0.000000   0.000006   0.000020   0.004582   0.388358
     9  C   -0.000138   0.000004  -0.000214   0.000003   0.000317  -0.062004
    10  C    0.003457   0.000058   0.004133  -0.006489   0.004018   0.003421
    11  H   -0.001963  -0.003977   0.000123  -0.000118   0.000040  -0.000000
    12  H   -0.001515   0.005439   0.000139   0.000050  -0.000420   0.000000
    13  H    0.625278  -0.034073   0.005518  -0.003483  -0.000003  -0.000000
    14  H   -0.034073   0.607324  -0.003350  -0.003566  -0.000025   0.000000
    15  H    0.005518  -0.003350   0.583962  -0.035581   0.003961  -0.000000
    16  H   -0.003483  -0.003566  -0.035581   0.622926  -0.000027  -0.000000
    17  H   -0.000003  -0.000025   0.003961  -0.000027   0.592618  -0.000182
    18  H   -0.000000   0.000000  -0.000000  -0.000000  -0.000182   0.616065
    19  H    0.000002  -0.000000   0.000003  -0.000010   0.000024  -0.002260
    20  H    0.001172  -0.000080   0.000058   0.004005  -0.000168  -0.000192
              19         20
     1  Br  -0.000000   0.000001
     2  C   -0.000000   0.000067
     3  C    0.000001   0.000339
     4  C   -0.000111  -0.009162
     5  C    0.005091  -0.048700
     6  C    0.000420   0.005634
     7  N    0.004893  -0.000300
     8  C   -0.035354   0.004786
     9  C    0.358574  -0.045747
    10  C   -0.040365   0.374028
    11  H   -0.000000   0.000001
    12  H   -0.000001  -0.000008
    13  H    0.000002   0.001172
    14  H   -0.000000  -0.000080
    15  H    0.000003   0.000058
    16  H   -0.000010   0.004005
    17  H    0.000024  -0.000168
    18  H   -0.002260  -0.000192
    19  H    0.624199  -0.006528
    20  H   -0.006528   0.629430
 Mulliken charges:
               1
     1  Br  -0.149391
     2  C   -0.207323
     3  C   -0.178143
     4  C   -0.252453
     5  C    0.092015
     6  C    0.054307
     7  N   -0.439501
     8  C    0.092054
     9  C   -0.094797
    10  C   -0.087270
    11  H    0.147264
    12  H    0.156636
    13  H    0.109044
    14  H    0.121103
    15  H    0.128912
    16  H    0.107271
    17  H    0.115567
    18  H    0.101920
    19  H    0.091422
    20  H    0.091365
 Sum of Mulliken charges =  -0.00000
 Mulliken charges with hydrogens summed into heavy atoms:
               1
     1  Br  -0.149391
     2  C    0.096576
     3  C    0.052004
     4  C   -0.016270
     5  C    0.092015
     6  C    0.169874
     7  N   -0.439501
     8  C    0.193974
     9  C   -0.003375
    10  C    0.004095
 Electronic spatial extent (au):  <R**2>=           2621.8128
 Charge=              0.0000 electrons
 Dipole moment (field-independent basis, Debye):
    X=              1.0619    Y=              3.5089    Z=              0.8737  Tot=              3.7688
 Quadrupole moment (field-independent basis, Debye-Ang):
   XX=            -71.2082   YY=            -72.7955   ZZ=            -70.3855
   XY=              3.5695   XZ=              1.7416   YZ=              0.8672
 Traceless Quadrupole moment (field-independent basis, Debye-Ang):
   XX=              0.2549   YY=             -1.3324   ZZ=              1.0775
   XY=              3.5695   XZ=              1.7416   YZ=              0.8672
 Octapole moment (field-independent basis, Debye-Ang**2):
  XXX=            -37.5105  YYY=              2.9526  ZZZ=              1.3931  XYY=            -34.2482
  XXY=              5.0652  XXZ=             11.4920  XZZ=            -33.1505  YZZ=             -4.3058
  YYZ=             -0.1950  XYZ=             -5.0960
 Hexadecapole moment (field-independent basis, Debye-Ang**3):
 XXXX=          -2221.2828 YYYY=           -597.3117 ZZZZ=           -215.9804 XXXY=             48.5709
 XXXZ=             69.6976 YYYX=             74.5226 YYYZ=             -0.1616 ZZZX=             -2.6934
 ZZZY=              3.1889 XXYY=           -487.1876 XXZZ=           -434.7937 YYZZ=           -130.5699
 XXYZ=              3.1685 YYXZ=              8.4313 ZZXY=              9.6954
 N-N= 7.233387999975D+02 E-N=-8.427339877852D+03  KE= 2.917964475869D+03
 Calling FoFJK, ICntrl=      2127 FMM=F ISym2X=0 I1Cent= 0 IOpClX= 0 NMat=1 NMatS=1 NMatT=0.
 ***** Axes restored to original set *****
 -------------------------------------------------------------------
 Center     Atomic                   Forces (Hartrees/Bohr)
 Number     Number              X              Y              Z
 -------------------------------------------------------------------
      1       35          -0.003948328   -0.006086174   -0.001988690
      2        6          -0.008062809    0.000772407   -0.010469801
      3        6           0.003529185    0.004343775    0.007877770
      4        6          -0.005215073   -0.002714416    0.004287360
      5        6           0.007389384    0.005713871   -0.005213480
      6        6          -0.022139252   -0.015859685    0.003459191
      7        7          -0.000906563   -0.000341330   -0.011063953
      8        6           0.019136121    0.012451583    0.001130303
      9        6           0.005590936    0.003258833    0.001234371
     10        6          -0.002382274   -0.002771430    0.009618841
     11        1           0.003336026    0.004085159    0.001008203
     12        1           0.000326704    0.005105213    0.003911107
     13        1          -0.001771408   -0.006083136    0.000225686
     14        1           0.002299421    0.002184738   -0.000357783
     15        1           0.003852815   -0.001728389    0.002566868
     16        1           0.000258279   -0.001619826   -0.005074317
     17        1           0.003789315    0.001927824    0.001418710
     18        1          -0.002710745   -0.001750103    0.002968188
     19        1          -0.003089932   -0.001833101   -0.001050870
     20        1           0.000718197    0.000944186   -0.004487705
 -------------------------------------------------------------------
 Cartesian Forces:  Max     0.022139252 RMS     0.006177596

 GradGradGradGradGradGradGradGradGradGradGradGradGradGradGradGradGradGrad
 Berny optimization.
 FormGI is forming the generalized inverse of G from B-inverse, IUseBI=4.
 Internal  Forces:  Max     0.018151112 RMS     0.003761124
 Search for a local minimum.
 Step number   1 out of a maximum of  108
 All quantities printed in internal units (Hartrees-Bohrs-Radians)
 Mixed Optimization -- RFO/linear search
 Second derivative matrix not updated -- first step.
 ITU=  0
     Eigenvalues ---    0.00230   0.00230   0.00482   0.01429   0.02105
     Eigenvalues ---    0.02116   0.02135   0.02139   0.02145   0.02176
     Eigenvalues ---    0.02226   0.03206   0.03814   0.04675   0.05221
     Eigenvalues ---    0.05432   0.05621   0.08651   0.09544   0.12446
     Eigenvalues ---    0.12954   0.14398   0.16000   0.16000   0.16000
     Eigenvalues ---    0.16000   0.16000   0.16000   0.21877   0.21924
     Eigenvalues ---    0.22000   0.22226   0.23191   0.23457   0.25000
     Eigenvalues ---    0.28199   0.28464   0.30229   0.34623   0.34653
     Eigenvalues ---    0.34665   0.34688   0.34700   0.34737   0.35851
     Eigenvalues ---    0.35904   0.35937   0.35977   0.42088   0.43661
     Eigenvalues ---    0.45874   0.46086   0.51727   0.52842
 RFO step:  Lambda=-6.08222988D-03 EMin= 2.30000000D-03
 Linear search not attempted -- first point.
 Iteration  1 RMS(Cart)=  0.09795198 RMS(Int)=  0.00309684
 Iteration  2 RMS(Cart)=  0.00421439 RMS(Int)=  0.00023332
 Iteration  3 RMS(Cart)=  0.00001312 RMS(Int)=  0.00023317
 Iteration  4 RMS(Cart)=  0.00000000 RMS(Int)=  0.00023317
 Variable       Old X    -DE/DX   Delta X   Delta X   Delta X     New X
                                 (Linear)    (Quad)   (Total)
    R1        3.76467  -0.00707   0.00000  -0.04709  -0.04709   3.71758
    R2        2.91135  -0.01150   0.00000  -0.03956  -0.03956   2.87179
    R3        2.06103  -0.00062   0.00000  -0.00176  -0.00176   2.05927
    R4        2.06223  -0.00068   0.00000  -0.00194  -0.00194   2.06029
    R5        2.91706  -0.00581   0.00000  -0.02016  -0.02016   2.89690
    R6        2.06165   0.00473   0.00000   0.01339   0.01339   2.07504
    R7        2.06185   0.00281   0.00000   0.00797   0.00797   2.06982
    R8        2.87509  -0.00571   0.00000  -0.01851  -0.01851   2.85658
    R9        2.06291   0.00166   0.00000   0.00471   0.00471   2.06762
   R10        2.06242   0.00307   0.00000   0.00871   0.00871   2.07113
   R11        2.64461  -0.00053   0.00000  -0.00119  -0.00115   2.64346
   R12        2.64401  -0.00395   0.00000  -0.00700  -0.00697   2.63704
   R13        2.56545  -0.01684   0.00000  -0.03244  -0.03243   2.53302
   R14        2.04315   0.00437   0.00000   0.01198   0.01198   2.05513
   R15        2.56443  -0.01815   0.00000  -0.03481  -0.03484   2.52959
   R16        2.63890  -0.00145   0.00000  -0.00316  -0.00320   2.63570
   R17        2.04232   0.00435   0.00000   0.01190   0.01190   2.05423
   R18        2.63916  -0.00489   0.00000  -0.00896  -0.00896   2.63019
   R19        2.04117   0.00368   0.00000   0.01006   0.01006   2.05123
   R20        2.04180   0.00443   0.00000   0.01213   0.01213   2.05393
    A1        1.92767   0.00339   0.00000   0.00382   0.00380   1.93147
    A2        1.87483  -0.00295   0.00000  -0.02152  -0.02148   1.85335
    A3        1.88691  -0.00490   0.00000  -0.05261  -0.05269   1.83421
    A4        1.94136   0.00133   0.00000   0.02106   0.02060   1.96196
    A5        1.95497   0.00051   0.00000   0.00568   0.00516   1.96013
    A6        1.87503   0.00227   0.00000   0.04128   0.04046   1.91549
    A7        2.00341  -0.00526   0.00000  -0.03035  -0.03057   1.97283
    A8        1.90144  -0.00152   0.00000  -0.02878  -0.02886   1.87257
    A9        1.89889   0.00237   0.00000   0.01385   0.01407   1.91296
   A10        1.90269   0.00343   0.00000   0.01481   0.01387   1.91656
   A11        1.90525   0.00093   0.00000   0.00848   0.00846   1.91371
   A12        1.84564   0.00048   0.00000   0.02662   0.02655   1.87219
   A13        1.97932  -0.00149   0.00000  -0.01379  -0.01415   1.96517
   A14        1.92792  -0.00245   0.00000  -0.03490  -0.03536   1.89257
   A15        1.91763  -0.00158   0.00000  -0.00812  -0.00793   1.90971
   A16        1.91245   0.00086   0.00000  -0.00606  -0.00704   1.90541
   A17        1.89309   0.00273   0.00000   0.03152   0.03150   1.92460
   A18        1.82694   0.00233   0.00000   0.03654   0.03638   1.86332
   A19        2.10924   0.00076   0.00000   0.00158   0.00139   2.11063
   A20        2.11077   0.00390   0.00000   0.01385   0.01364   2.12441
   A21        2.06317  -0.00466   0.00000  -0.01555  -0.01562   2.04755
   A22        2.14631   0.00695   0.00000   0.02740   0.02745   2.17375
   A23        2.11006  -0.00441   0.00000  -0.01938  -0.01941   2.09065
   A24        2.02678  -0.00254   0.00000  -0.00808  -0.00811   2.01867
   A25        2.05736  -0.00250   0.00000  -0.01842  -0.01844   2.03892
   A26        2.14400   0.00384   0.00000   0.01360   0.01354   2.15754
   A27        2.02799  -0.00251   0.00000  -0.01033  -0.01030   2.01769
   A28        2.11120  -0.00134   0.00000  -0.00327  -0.00324   2.10796
   A29        2.06919  -0.00076   0.00000  -0.00046  -0.00049   2.06870
   A30        2.10760  -0.00030   0.00000  -0.00388  -0.00387   2.10374
   A31        2.10639   0.00106   0.00000   0.00434   0.00435   2.11074
   A32        2.08633  -0.00287   0.00000  -0.00654  -0.00652   2.07982
   A33        2.10378   0.00008   0.00000  -0.00491  -0.00494   2.09884
   A34        2.09307   0.00279   0.00000   0.01145   0.01143   2.10449
    D1       -1.08994   0.00148   0.00000   0.05712   0.05737  -1.03257
    D2        3.05444   0.00185   0.00000   0.08115   0.08079   3.13523
    D3        1.05026   0.00082   0.00000   0.05756   0.05757   1.10783
    D4        3.11308   0.00210   0.00000   0.06800   0.06850  -3.10161
    D5        0.97428   0.00247   0.00000   0.09203   0.09192   1.06620
    D6       -1.02990   0.00144   0.00000   0.06844   0.06869  -0.96121
    D7        1.01440  -0.00207   0.00000  -0.00329  -0.00319   1.01121
    D8       -1.12440  -0.00169   0.00000   0.02074   0.02023  -1.10417
    D9       -3.12858  -0.00272   0.00000  -0.00285  -0.00300  -3.13158
   D10       -1.07392   0.00246   0.00000   0.08207   0.08192  -0.99201
   D11        1.08066   0.00062   0.00000   0.03728   0.03760   1.11826
   D12        3.08755   0.00113   0.00000   0.05685   0.05690  -3.13873
   D13        1.06420  -0.00059   0.00000   0.03449   0.03410   1.09830
   D14       -3.06440  -0.00243   0.00000  -0.01029  -0.01022  -3.07462
   D15       -1.05751  -0.00192   0.00000   0.00928   0.00908  -1.04843
   D16        3.07249   0.00235   0.00000   0.07884   0.07871  -3.13199
   D17       -1.05611   0.00052   0.00000   0.03405   0.03439  -1.02172
   D18        0.95077   0.00102   0.00000   0.05362   0.05370   1.00447
   D19        1.71492  -0.00174   0.00000  -0.08746  -0.08750   1.62742
   D20       -1.42252  -0.00104   0.00000  -0.05368  -0.05350  -1.47602
   D21       -0.44813   0.00187   0.00000  -0.02733  -0.02736  -0.47548
   D22        2.69763   0.00257   0.00000   0.00644   0.00663   2.70426
   D23       -2.43288  -0.00279   0.00000  -0.08425  -0.08451  -2.51739
   D24        0.71287  -0.00210   0.00000  -0.05047  -0.05052   0.66235
   D25       -3.13402   0.00034   0.00000   0.01685   0.01654  -3.11748
   D26       -0.00250   0.00013   0.00000   0.00971   0.00952   0.00702
   D27        0.00352  -0.00032   0.00000  -0.01596  -0.01593  -0.01241
   D28        3.13504  -0.00053   0.00000  -0.02310  -0.02296   3.11209
   D29        3.13617  -0.00036   0.00000  -0.01773  -0.01785   3.11832
   D30       -0.00535  -0.00058   0.00000  -0.02650  -0.02654  -0.03189
   D31       -0.00137   0.00031   0.00000   0.01514   0.01493   0.01356
   D32        3.14030   0.00009   0.00000   0.00637   0.00624  -3.13665
   D33       -0.00380   0.00012   0.00000   0.00611   0.00611   0.00231
   D34       -3.13577   0.00033   0.00000   0.01300   0.01294  -3.12282
   D35        0.00200   0.00009   0.00000   0.00460   0.00467   0.00668
   D36       -3.13872   0.00005   0.00000   0.00179   0.00183  -3.13689
   D37       -0.00002  -0.00011   0.00000  -0.00497  -0.00495  -0.00497
   D38       -3.14041   0.00000   0.00000  -0.00142  -0.00150   3.14128
   D39        3.14067  -0.00006   0.00000  -0.00204  -0.00197   3.13869
   D40        0.00027   0.00005   0.00000   0.00151   0.00148   0.00175
   D41       -0.00028  -0.00010   0.00000  -0.00526  -0.00538  -0.00566
   D42        3.14124   0.00013   0.00000   0.00346   0.00333  -3.13861
   D43        3.14011  -0.00021   0.00000  -0.00881  -0.00886   3.13126
   D44       -0.00155   0.00002   0.00000  -0.00009  -0.00014  -0.00169
         Item               Value     Threshold  Converged?
 Maximum Force            0.018151     0.000450     NO 
 RMS     Force            0.003761     0.000300     NO 
 Maximum Displacement     0.535614     0.001800     NO 
 RMS     Displacement     0.098527     0.001200     NO 
 Predicted change in Energy=-3.349685D-03
 GradGradGradGradGradGradGradGradGradGradGradGradGradGradGradGradGradGrad

                          Input orientation:                          
 ---------------------------------------------------------------------
 Center     Atomic      Atomic             Coordinates (Angstroms)
 Number     Number       Type             X           Y           Z
 ---------------------------------------------------------------------
      1         35           0        4.350765   -1.123762    2.026664
      2          6           0        3.563444   -2.401537    0.754842
      3          6           0        2.894689   -1.669113   -0.396580
      4          6           0        1.779549   -0.722294    0.061682
      5          6           0        0.708978   -1.429592    0.860836
      6          6           0        0.771482   -1.483053    2.257275
      7          7           0       -0.121508   -2.111554    3.034626
      8          6           0       -1.135127   -2.727281    2.413889
      9          6           0       -1.293282   -2.748856    1.028301
     10          6           0       -0.352199   -2.091162    0.241525
     11          1           0        4.380394   -3.041202    0.421812
     12          1           0        2.853990   -2.985507    1.341624
     13          1           0        2.482368   -2.430333   -1.072061
     14          1           0        3.646578   -1.106818   -0.960652
     15          1           0        2.225334    0.065445    0.676402
     16          1           0        1.337957   -0.229553   -0.812050
     17          1           0        1.596697   -1.004837    2.779813
     18          1           0       -1.849848   -3.226576    3.063165
     19          1           0       -2.135308   -3.264437    0.577303
     20          1           0       -0.444552   -2.084377   -0.841415
 ---------------------------------------------------------------------
                    Distance matrix (angstroms):
                    1          2          3          4          5
     1  Br   0.000000
     2  C    1.967261   0.000000
     3  C    2.879179   1.519687   0.000000
     4  C    3.260902   2.546097   1.532974   0.000000
     5  C    3.836053   3.017265   2.532942   1.511635   0.000000
     6  C    3.604656   3.300905   3.403759   2.532900   1.398860
     7  N    4.689664   4.342853   4.589811   3.792421   2.424900
     8  C    5.728546   4.993508   5.025721   4.248316   2.738010
     9  C    5.957594   4.876802   4.553595   3.805732   2.403653
    10  C    5.122544   3.961324   3.335803   2.539782   1.395463
    11  H    2.500601   1.089720   2.181677   3.503060   4.033525
    12  H    2.485098   1.090257   2.180803   2.813327   2.693159
    13  H    3.847095   2.123000   1.098062   2.167194   2.807576
    14  H    3.069238   2.150843   1.095304   2.163059   3.471526
    15  H    2.784758   2.807613   2.146629   1.094138   2.137402
    16  H    4.234964   3.482163   2.160640   1.095995   2.152732
    17  H    2.857669   3.149504   3.495070   2.738887   2.156603
    18  H    6.629009   5.942455   6.075043   5.334121   3.824525
    19  H    6.982283   5.766445   5.366039   4.696218   3.396617
    20  H    5.669544   4.325813   3.394238   2.759978   2.158016
                    6          7          8          9         10
     6  C    0.000000
     7  N    1.340417   0.000000
     8  C    2.282058   1.338603   0.000000
     9  C    2.715858   2.409263   1.394752   0.000000
    10  C    2.386567   2.802685   2.395159   1.391838   0.000000
    11  H    4.338318   5.287548   5.872640   5.713484   4.830375
    12  H    2.726284   3.533218   4.138778   4.165817   3.505669
    13  H    3.861211   4.873055   5.032524   4.332264   3.142501
    14  H    4.331604   5.583029   6.072737   5.572651   4.290033
    15  H    2.647772   3.975954   4.702221   4.519378   3.388768
    16  H    3.363468   4.524255   4.770899   4.081323   2.726213
    17  H    1.087527   2.059606   3.250165   3.802811   3.379527
    18  H    3.249722   2.056999   1.087051   2.163019   3.390245
    19  H    3.800666   3.379787   2.159154   1.085463   2.160740
    20  H    3.382634   3.889574   3.389281   2.158174   1.086893
                   11         12         13         14         15
    11  H    0.000000
    12  H    1.782994   0.000000
    13  H    2.491450   2.504436   0.000000
    14  H    2.488279   3.075410   1.766208   0.000000
    15  H    3.789507   3.185285   3.058121   2.464566   0.000000
    16  H    4.322524   3.812080   2.494136   2.474148   1.757826
    17  H    4.178029   2.751768   4.201594   4.266555   2.442341
    18  H    6.769566   5.014768   6.041704   7.134085   5.756834
    19  H    6.521379   5.055203   4.973838   6.360097   5.487543
    20  H    5.078520   4.056855   2.956306   4.207991   3.748839
                   16         17         18         19         20
    16  H    0.000000
    17  H    3.683680   0.000000
    18  H    5.844787   4.110362   0.000000
    19  H    4.817094   4.887197   2.502484   0.000000
    20  H    2.572658   4.294810   4.304093   2.502790   0.000000
 Stoichiometry    C8H10BrN
 Framework group  C1[X(C8H10BrN)]
 Deg. of freedom    54
 Full point group                 C1      NOp   1
 Largest Abelian subgroup         C1      NOp   1
 Largest concise Abelian subgroup C1      NOp   1
                         Standard orientation:                         
 ---------------------------------------------------------------------
 Center     Atomic      Atomic             Coordinates (Angstroms)
 Number     Number       Type             X           Y           Z
 ---------------------------------------------------------------------
      1         35           0       -2.356619   -0.548747   -0.047620
      2          6           0       -1.276959    0.650594    1.077560
      3          6           0       -0.746337    1.817871    0.261868
      4          6           0        0.126533    1.377036   -0.918712
      5          6           0        1.299339    0.526107   -0.488033
      6          6           0        1.208276   -0.869718   -0.474288
      7          7           0        2.191489   -1.691773   -0.081560
      8          6           0        3.331268   -1.119315    0.324708
      9          6           0        3.531445    0.260459    0.363248
     10          6           0        2.495312    1.094185   -0.047291
     11          1           0       -1.928039    0.973162    1.889677
     12          1           0       -0.476816    0.024651    1.473324
     13          1           0       -0.160962    2.451460    0.941311
     14          1           0       -1.583955    2.421098   -0.104470
     15          1           0       -0.495382    0.805975   -1.614593
     16          1           0        0.478334    2.261498   -1.462006
     17          1           0        0.284771   -1.353915   -0.783170
     18          1           0        4.116598   -1.804180    0.634380
     19          1           0        4.477228    0.671250    0.702330
     20          1           0        2.616190    2.174248   -0.033535
 ---------------------------------------------------------------------
 Rotational constants (GHZ):           2.0344153           0.4948055           0.4295024
 Standard basis: 6-31G(d,p) (6D, 7F)
 There are   215 symmetry adapted cartesian basis functions of A   symmetry.
 There are   215 symmetry adapted basis functions of A   symmetry.
   215 basis functions,   405 primitive gaussians,   215 cartesian basis functions
    50 alpha electrons       50 beta electrons
       nuclear repulsion energy       741.0284440795 Hartrees.
 NAtoms=   20 NActive=   20 NUniq=   20 SFac= 1.00D+00 NAtFMM=   60 NAOKFM=F Big=F
 Integral buffers will be    131072 words long.
 Raffenetti 2 integral format.
 Two-electron integral symmetry is turned on.
 Nuclear repulsion after empirical dispersion term =      740.9875908337 Hartrees.
 One-electron integrals computed using PRISM.
 NBasis=   215 RedAO= T EigKep=  7.35D-04  NBF=   215
 NBsUse=   215 1.00D-06 EigRej= -1.00D+00 NBFU=   215
 Initial guess from the checkpoint file:  "pyrd10_conf-1.chk"
 B after Tr=    -0.000000   -0.000000    0.000000
         Rot=    0.999891   -0.014676   -0.001600    0.000923 Ang=  -1.70 deg.
 ExpMin= 1.43D-01 ExpMax= 5.74D+05 ExpMxC= 5.74D+03 IAcc=3 IRadAn=         5 AccDes= 0.00D+00
 Harris functional with IExCor=  402 and IRadAn=       5 diagonalized for initial guess.
 HarFok:  IExCor=  402 AccDes= 0.00D+00 IRadAn=         5 IDoV= 1 UseB2=F ITyADJ=14
 ICtDFT=  3500011 ScaDFX=  1.000000  1.000000  1.000000  1.000000
 FoFCou: FMM=F IPFlag=           0 FMFlag=      100000 FMFlg1=           0
         NFxFlg=           0 DoJE=T BraDBF=F KetDBF=T FulRan=T
         wScrn=  0.000000 ICntrl=       500 IOpCl=  0 I1Cent=   200000004 NGrid=           0
         NMat0=    1 NMatS0=      1 NMatT0=    0 NMatD0=    1 NMtDS0=    0 NMtDT0=    0
 Petite list used in FoFCou.
 Requested convergence on RMS density matrix=1.00D-08 within 128 cycles.
 Requested convergence on MAX density matrix=1.00D-06.
 Requested convergence on             energy=1.00D-06.
 No special actions if energy rises.
 Integral accuracy reduced to 1.0D-05 until final iterations.
 Initial convergence to 1.0D-05 achieved.  Increase integral accuracy.
 SCF Done:  E(RB3LYP) =  -2937.39053162     A.U. after   14 cycles
            NFock= 14  Conv=0.58D-08     -V/T= 2.0066
 Calling FoFJK, ICntrl=      2127 FMM=F ISym2X=0 I1Cent= 0 IOpClX= 0 NMat=1 NMatS=1 NMatT=0.
 ***** Axes restored to original set *****
 -------------------------------------------------------------------
 Center     Atomic                   Forces (Hartrees/Bohr)
 Number     Number              X              Y              Z
 -------------------------------------------------------------------
      1       35           0.005042903    0.001731677    0.003694858
      2        6          -0.001004196   -0.003505355   -0.003250532
      3        6           0.001678506   -0.001408789   -0.000318209
      4        6          -0.003770976    0.002978802    0.001637762
      5        6           0.002025265    0.002389021   -0.003294607
      6        6          -0.001208748   -0.000207175    0.005001509
      7        7           0.000335477    0.000278699   -0.003613265
      8        6          -0.000035063   -0.000277984    0.002046635
      9        6          -0.000844029   -0.000520838   -0.000847395
     10        6          -0.001730438   -0.000657232    0.000697099
     11        1           0.000326125    0.000934228    0.000577789
     12        1           0.000662199    0.000300721   -0.000547088
     13        1          -0.000210578   -0.000473480   -0.000123363
     14        1          -0.000121777   -0.000221267    0.000104320
     15        1           0.000183317   -0.000025566   -0.000807893
     16        1          -0.000153374   -0.001336600   -0.000008306
     17        1           0.000037860    0.000609124   -0.000710692
     18        1          -0.001240273   -0.000709986   -0.000543695
     19        1          -0.000040703   -0.000133724    0.000514212
     20        1           0.000068502    0.000255724   -0.000209138
 -------------------------------------------------------------------
 Cartesian Forces:  Max     0.005042903 RMS     0.001710469

 GradGradGradGradGradGradGradGradGradGradGradGradGradGradGradGradGradGrad
 Berny optimization.
 Using GEDIIS/GDIIS optimizer.
 FormGI is forming the generalized inverse of G from B-inverse, IUseBI=4.
 Internal  Forces:  Max     0.010523287 RMS     0.002083532
 Search for a local minimum.
 Step number   2 out of a maximum of  108
 All quantities printed in internal units (Hartrees-Bohrs-Radians)
 Mixed Optimization -- RFO/linear search
 Update second derivatives using D2CorX and points    1    2
 DE= -2.28D-03 DEPred=-3.35D-03 R= 6.82D-01
 TightC=F SS=  1.41D+00  RLast= 3.17D-01 DXNew= 5.0454D-01 9.5192D-01
 Trust test= 6.82D-01 RLast= 3.17D-01 DXMaxT set to 5.05D-01
 ITU=  1  0
 Use linear search instead of GDIIS.
     Eigenvalues ---    0.00230   0.00270   0.00506   0.01442   0.02104
     Eigenvalues ---    0.02117   0.02135   0.02139   0.02148   0.02175
     Eigenvalues ---    0.02226   0.03381   0.04118   0.04850   0.05138
     Eigenvalues ---    0.05363   0.05960   0.08270   0.09042   0.12264
     Eigenvalues ---    0.12820   0.14863   0.15832   0.15999   0.16000
     Eigenvalues ---    0.16000   0.16000   0.16074   0.20273   0.21953
     Eigenvalues ---    0.22000   0.22483   0.23325   0.24564   0.25638
     Eigenvalues ---    0.28064   0.29984   0.32687   0.34508   0.34629
     Eigenvalues ---    0.34666   0.34686   0.34730   0.35005   0.35740
     Eigenvalues ---    0.35885   0.35947   0.36084   0.41988   0.43563
     Eigenvalues ---    0.45907   0.46130   0.50026   0.52872
 RFO step:  Lambda=-1.59824827D-03 EMin= 2.29975738D-03
 Quartic linear search produced a step of -0.22246.
 Iteration  1 RMS(Cart)=  0.08827335 RMS(Int)=  0.00380051
 Iteration  2 RMS(Cart)=  0.00448874 RMS(Int)=  0.00007708
 Iteration  3 RMS(Cart)=  0.00001314 RMS(Int)=  0.00007675
 Iteration  4 RMS(Cart)=  0.00000000 RMS(Int)=  0.00007675
 Variable       Old X    -DE/DX   Delta X   Delta X   Delta X     New X
                                 (Linear)    (Quad)   (Total)
    R1        3.71758   0.00553   0.01048   0.00202   0.01249   3.73008
    R2        2.87179   0.00283   0.00880  -0.01500  -0.00620   2.86559
    R3        2.05927  -0.00048   0.00039  -0.00209  -0.00169   2.05758
    R4        2.06029  -0.00089   0.00043  -0.00310  -0.00267   2.05761
    R5        2.89690   0.00623   0.00449   0.00560   0.01009   2.90699
    R6        2.07504   0.00048  -0.00298   0.00875   0.00577   2.08081
    R7        2.06982  -0.00025  -0.00177   0.00400   0.00223   2.07205
    R8        2.85658   0.00088   0.00412  -0.00837  -0.00425   2.85233
    R9        2.06762  -0.00040  -0.00105   0.00180   0.00076   2.06838
   R10        2.07113  -0.00053  -0.00194   0.00379   0.00185   2.07298
   R11        2.64346   0.00241   0.00026   0.00361   0.00386   2.64732
   R12        2.63704   0.00269   0.00155   0.00073   0.00227   2.63932
   R13        2.53302  -0.00024   0.00721  -0.01874  -0.01153   2.52149
   R14        2.05513  -0.00004  -0.00266   0.00675   0.00409   2.05922
   R15        2.52959   0.00040   0.00775  -0.01930  -0.01155   2.51804
   R16        2.63570  -0.00033   0.00071  -0.00254  -0.00183   2.63387
   R17        2.05423   0.00082  -0.00265   0.00858   0.00594   2.06016
   R18        2.63019   0.00070   0.00199  -0.00396  -0.00196   2.62823
   R19        2.05123  -0.00012  -0.00224   0.00550   0.00326   2.05449
   R20        2.05393   0.00020  -0.00270   0.00738   0.00468   2.05861
    A1        1.93147   0.00620  -0.00084   0.02371   0.02284   1.95431
    A2        1.85335  -0.00393   0.00478  -0.03927  -0.03442   1.81893
    A3        1.83421  -0.00109   0.01172  -0.02203  -0.01043   1.82379
    A4        1.96196  -0.00122  -0.00458   0.00174  -0.00273   1.95923
    A5        1.96013  -0.00029  -0.00115   0.00849   0.00735   1.96748
    A6        1.91549   0.00019  -0.00900   0.02343   0.01455   1.93004
    A7        1.97283   0.01052   0.00680   0.02261   0.02948   2.00231
    A8        1.87257  -0.00244   0.00642  -0.02421  -0.01771   1.85486
    A9        1.91296  -0.00411  -0.00313  -0.00543  -0.00881   1.90415
   A10        1.91656  -0.00380  -0.00309  -0.00785  -0.01055   1.90601
   A11        1.91371  -0.00220  -0.00188   0.00338   0.00145   1.91516
   A12        1.87219   0.00161  -0.00591   0.01050   0.00450   1.87669
   A13        1.96517   0.00466   0.00315   0.00838   0.01151   1.97668
   A14        1.89257  -0.00096   0.00787  -0.01274  -0.00495   1.88761
   A15        1.90971  -0.00218   0.00176  -0.02621  -0.02455   1.88516
   A16        1.90541   0.00022   0.00157   0.01477   0.01652   1.92193
   A17        1.92460  -0.00273  -0.00701  -0.00625  -0.01327   1.91133
   A18        1.86332   0.00085  -0.00809   0.02299   0.01492   1.87824
   A19        2.11063   0.00360  -0.00031   0.01172   0.01145   2.12208
   A20        2.12441  -0.00170  -0.00304   0.00229  -0.00070   2.12371
   A21        2.04755  -0.00188   0.00348  -0.01431  -0.01082   2.03673
   A22        2.17375  -0.00105  -0.00611   0.01263   0.00652   2.18027
   A23        2.09065  -0.00031   0.00432  -0.01371  -0.00939   2.08126
   A24        2.01867   0.00137   0.00180   0.00106   0.00287   2.02154
   A25        2.03892   0.00270   0.00410  -0.00235   0.00175   2.04067
   A26        2.15754  -0.00114  -0.00301   0.00334   0.00033   2.15787
   A27        2.01769   0.00190   0.00229   0.00270   0.00499   2.02267
   A28        2.10796  -0.00076   0.00072  -0.00603  -0.00532   2.10264
   A29        2.06870  -0.00032   0.00011  -0.00175  -0.00164   2.06706
   A30        2.10374  -0.00037   0.00086  -0.00410  -0.00324   2.10049
   A31        2.11074   0.00069  -0.00097   0.00584   0.00487   2.11561
   A32        2.07982   0.00170   0.00145   0.00246   0.00391   2.08373
   A33        2.09884  -0.00107   0.00110  -0.00710  -0.00600   2.09284
   A34        2.10449  -0.00063  -0.00254   0.00461   0.00207   2.10657
    D1       -1.03257  -0.00249  -0.01276  -0.07496  -0.08786  -1.12043
    D2        3.13523  -0.00261  -0.01797  -0.06259  -0.08046   3.05477
    D3        1.10783  -0.00103  -0.01281  -0.05886  -0.07178   1.03605
    D4       -3.10161  -0.00091  -0.01524  -0.04247  -0.05781   3.12377
    D5        1.06620  -0.00103  -0.02045  -0.03010  -0.05041   1.01579
    D6       -0.96121   0.00055  -0.01528  -0.02637  -0.04173  -1.00294
    D7        1.01121   0.00001   0.00071  -0.08167  -0.08098   0.93023
    D8       -1.10417  -0.00010  -0.00450  -0.06930  -0.07359  -1.17776
    D9       -3.13158   0.00147   0.00067  -0.06557  -0.06490   3.08670
   D10       -0.99201  -0.00241  -0.01822  -0.06548  -0.08359  -1.07560
   D11        1.11826   0.00017  -0.00836  -0.05029  -0.05870   1.05956
   D12       -3.13873  -0.00053  -0.01266  -0.04423  -0.05684   3.08761
   D13        1.09830  -0.00122  -0.00759  -0.08682  -0.09430   1.00400
   D14       -3.07462   0.00136   0.00227  -0.07163  -0.06941   3.13916
   D15       -1.04843   0.00066  -0.00202  -0.06557  -0.06754  -1.11597
   D16       -3.13199  -0.00281  -0.01751  -0.07669  -0.09420   3.05700
   D17       -1.02172  -0.00023  -0.00765  -0.06150  -0.06931  -1.09103
   D18        1.00447  -0.00093  -0.01195  -0.05544  -0.06745   0.93703
   D19        1.62742   0.00161   0.01946  -0.02019  -0.00066   1.62676
   D20       -1.47602   0.00127   0.01190  -0.01020   0.00174  -1.47428
   D21       -0.47548  -0.00034   0.00609  -0.01970  -0.01371  -0.48919
   D22        2.70426  -0.00068  -0.00148  -0.00971  -0.01131   2.69295
   D23       -2.51739   0.00008   0.01880  -0.05271  -0.03384  -2.55123
   D24        0.66235  -0.00026   0.01124  -0.04272  -0.03143   0.63092
   D25       -3.11748   0.00003  -0.00368   0.01054   0.00694  -3.11054
   D26        0.00702   0.00014  -0.00212   0.00930   0.00722   0.01424
   D27       -0.01241   0.00036   0.00354   0.00130   0.00484  -0.00757
   D28        3.11209   0.00047   0.00511   0.00005   0.00512   3.11721
   D29        3.11832   0.00009   0.00397  -0.01101  -0.00699   3.11133
   D30       -0.03189   0.00015   0.00590  -0.01484  -0.00890  -0.04079
   D31        0.01356  -0.00035  -0.00332  -0.00189  -0.00516   0.00840
   D32       -3.13665  -0.00029  -0.00139  -0.00572  -0.00707   3.13947
   D33        0.00231  -0.00010  -0.00136   0.00023  -0.00115   0.00116
   D34       -3.12282  -0.00019  -0.00288   0.00156  -0.00131  -3.12413
   D35        0.00668  -0.00013  -0.00104  -0.00111  -0.00218   0.00450
   D36       -3.13689   0.00001  -0.00041   0.00191   0.00150  -3.13538
   D37       -0.00497   0.00011   0.00110   0.00055   0.00165  -0.00332
   D38        3.14128   0.00012   0.00033   0.00320   0.00356  -3.13835
   D39        3.13869  -0.00004   0.00044  -0.00263  -0.00220   3.13649
   D40        0.00175  -0.00003  -0.00033   0.00003  -0.00029   0.00146
   D41       -0.00566   0.00014   0.00120   0.00092   0.00216  -0.00350
   D42       -3.13861   0.00008  -0.00074   0.00482   0.00413  -3.13448
   D43        3.13126   0.00013   0.00197  -0.00178   0.00021   3.13147
   D44       -0.00169   0.00007   0.00003   0.00212   0.00217   0.00049
         Item               Value     Threshold  Converged?
 Maximum Force            0.010523     0.000450     NO 
 RMS     Force            0.002084     0.000300     NO 
 Maximum Displacement     0.539527     0.001800     NO 
 RMS     Displacement     0.088732     0.001200     NO 
 Predicted change in Energy=-1.259567D-03
 GradGradGradGradGradGradGradGradGradGradGradGradGradGradGradGradGradGrad

                          Input orientation:                          
 ---------------------------------------------------------------------
 Center     Atomic      Atomic             Coordinates (Angstroms)
 Number     Number       Type             X           Y           Z
 ---------------------------------------------------------------------
      1         35           0        4.636271   -1.075677    1.870889
      2          6           0        3.648065   -2.366721    0.751593
      3          6           0        2.889665   -1.682201   -0.369007
      4          6           0        1.770607   -0.734831    0.096403
      5          6           0        0.684379   -1.433836    0.877266
      6          6           0        0.719007   -1.509918    2.275674
      7          7           0       -0.185244   -2.138538    3.029043
      8          6           0       -1.191293   -2.736007    2.391527
      9          6           0       -1.334329   -2.737660    1.005102
     10          6           0       -0.378869   -2.077322    0.240003
     11          1           0        4.417502   -3.040188    0.377502
     12          1           0        2.991501   -2.885106    1.448572
     13          1           0        2.452412   -2.485916   -0.981633
     14          1           0        3.599451   -1.134670   -1.000424
     15          1           0        2.223138    0.054530    0.704793
     16          1           0        1.335889   -0.260960   -0.792314
     17          1           0        1.542854   -1.042127    2.814075
     18          1           0       -1.923383   -3.239229    3.023453
     19          1           0       -2.179079   -3.240277    0.540611
     20          1           0       -0.458144   -2.049746   -0.846129
 ---------------------------------------------------------------------
                    Distance matrix (angstroms):
                    1          2          3          4          5
     1  Br   0.000000
     2  C    1.973871   0.000000
     3  C    2.904418   1.516405   0.000000
     4  C    3.387773   2.572389   1.538313   0.000000
     5  C    4.090601   3.109583   2.545225   1.509387   0.000000
     6  C    3.961990   3.411204   3.425751   2.540835   1.400904
     7  N    5.071291   4.464651   4.605437   3.794223   2.425488
     8  C    6.081797   5.123002   5.038380   4.247959   2.739851
     9  C    6.257782   5.002611   4.565554   3.804955   2.406549
    10  C    5.367934   4.069604   3.348182   2.538336   1.396666
    11  H    2.477371   1.088823   2.176164   3.521326   4.094673
    12  H    2.481462   1.088843   2.181958   2.818265   2.784850
    13  H    3.859391   2.108997   1.101117   2.166407   2.772782
    14  H    3.053345   2.142400   1.096483   2.169694   3.480355
    15  H    2.908669   2.809815   2.147915   1.094538   2.147734
    16  H    4.318441   3.487698   2.147867   1.096974   2.141868
    17  H    3.234185   3.231144   3.515054   2.744457   2.154447
    18  H    7.002743   6.079774   6.090858   5.337152   3.829619
    19  H    7.273523   5.896035   5.380257   4.698362   3.402346
    20  H    5.855260   4.417482   3.401552   2.754034   2.157498
                    6          7          8          9         10
     6  C    0.000000
     7  N    1.334316   0.000000
     8  C    2.272876   1.332491   0.000000
     9  C    2.708855   2.403265   1.393786   0.000000
    10  C    2.381436   2.796423   2.392270   1.390800   0.000000
    11  H    4.429858   5.387849   5.967194   5.793873   4.893995
    12  H    2.781989   3.625874   4.290357   4.351001   3.670496
    13  H    3.816715   4.812839   4.971654   4.283678   3.110546
    14  H    4.378423   5.618565   6.084476   5.561825   4.272503
    15  H    2.679099   4.001498   4.721283   4.532337   3.395772
    16  H    3.369419   4.521273   4.759133   4.061380   2.702821
    17  H    1.089691   2.057826   3.243969   3.798078   3.374981
    18  H    3.245291   2.057348   1.090192   2.161550   3.388679
    19  H    3.795193   3.373648   2.157753   1.087188   2.164159
    20  H    3.379757   3.885784   3.389820   2.160551   1.089371
                   11         12         13         14         15
    11  H    0.000000
    12  H    1.790173   0.000000
    13  H    2.452763   2.521084   0.000000
    14  H    2.489756   3.071027   1.772545   0.000000
    15  H    3.807838   3.128105   3.057853   2.493231   0.000000
    16  H    4.311486   3.827369   2.496576   2.435240   1.768636
    17  H    4.265294   2.712886   4.161637   4.334577   2.472754
    18  H    6.873681   5.173175   5.979613   7.149997   5.780888
    19  H    6.601631   5.261695   4.933255   6.340330   5.501111
    20  H    5.123493   4.226527   2.946174   4.162361   3.744678
                   16         17         18         19         20
    16  H    0.000000
    17  H    3.695821   0.000000
    18  H    5.835496   4.109245   0.000000
    19  H    4.796667   4.883982   2.495974   0.000000
    20  H    2.534009   4.291431   4.305283   2.510385   0.000000
 Stoichiometry    C8H10BrN
 Framework group  C1[X(C8H10BrN)]
 Deg. of freedom    54
 Full point group                 C1      NOp   1
 Largest Abelian subgroup         C1      NOp   1
 Largest concise Abelian subgroup C1      NOp   1
                         Standard orientation:                         
 ---------------------------------------------------------------------
 Center     Atomic      Atomic             Coordinates (Angstroms)
 Number     Number       Type             X           Y           Z
 ---------------------------------------------------------------------
      1         35           0       -2.544473   -0.493364   -0.050478
      2          6           0       -1.299278    0.570655    1.051121
      3          6           0       -0.692072    1.720450    0.270893
      4          6           0        0.200339    1.297381   -0.908522
      5          6           0        1.402590    0.488496   -0.485975
      6          6           0        1.373649   -0.911926   -0.463383
      7          7           0        2.383446   -1.690532   -0.070341
      8          6           0        3.497206   -1.078080    0.329626
      9          6           0        3.648320    0.307161    0.359777
     10          6           0        2.581905    1.098787   -0.053036
     11          1           0       -1.907835    0.914637    1.885909
     12          1           0       -0.554297   -0.147166    1.390702
     13          1           0       -0.091554    2.298539    0.990372
     14          1           0       -1.495709    2.373960   -0.088784
     15          1           0       -0.412082    0.722892   -1.610601
     16          1           0        0.533280    2.206101   -1.424981
     17          1           0        0.465963   -1.430708   -0.770626
     18          1           0        4.313378   -1.730172    0.641326
     19          1           0        4.583151    0.750631    0.693548
     20          1           0        2.662196    2.185192   -0.050759
 ---------------------------------------------------------------------
 Rotational constants (GHZ):           2.1657410           0.4416059           0.3926202
 Standard basis: 6-31G(d,p) (6D, 7F)
 There are   215 symmetry adapted cartesian basis functions of A   symmetry.
 There are   215 symmetry adapted basis functions of A   symmetry.
   215 basis functions,   405 primitive gaussians,   215 cartesian basis functions
    50 alpha electrons       50 beta electrons
       nuclear repulsion energy       727.0326716400 Hartrees.
 NAtoms=   20 NActive=   20 NUniq=   20 SFac= 1.00D+00 NAtFMM=   60 NAOKFM=F Big=F
 Integral buffers will be    131072 words long.
 Raffenetti 2 integral format.
 Two-electron integral symmetry is turned on.
 Nuclear repulsion after empirical dispersion term =      726.9928524322 Hartrees.
 One-electron integrals computed using PRISM.
 NBasis=   215 RedAO= T EigKep=  7.41D-04  NBF=   215
 NBsUse=   215 1.00D-06 EigRej= -1.00D+00 NBFU=   215
 Initial guess from the checkpoint file:  "pyrd10_conf-1.chk"
 B after Tr=    -0.000000    0.000000    0.000000
         Rot=    0.999996   -0.000283    0.001141    0.002396 Ang=  -0.31 deg.
 ExpMin= 1.43D-01 ExpMax= 5.74D+05 ExpMxC= 5.74D+03 IAcc=3 IRadAn=         5 AccDes= 0.00D+00
 Harris functional with IExCor=  402 and IRadAn=       5 diagonalized for initial guess.
 HarFok:  IExCor=  402 AccDes= 0.00D+00 IRadAn=         5 IDoV= 1 UseB2=F ITyADJ=14
 ICtDFT=  3500011 ScaDFX=  1.000000  1.000000  1.000000  1.000000
 FoFCou: FMM=F IPFlag=           0 FMFlag=      100000 FMFlg1=           0
         NFxFlg=           0 DoJE=T BraDBF=F KetDBF=T FulRan=T
         wScrn=  0.000000 ICntrl=       500 IOpCl=  0 I1Cent=   200000004 NGrid=           0
         NMat0=    1 NMatS0=      1 NMatT0=    0 NMatD0=    1 NMtDS0=    0 NMtDT0=    0
 Petite list used in FoFCou.
 Requested convergence on RMS density matrix=1.00D-08 within 128 cycles.
 Requested convergence on MAX density matrix=1.00D-06.
 Requested convergence on             energy=1.00D-06.
 No special actions if energy rises.
 Integral accuracy reduced to 1.0D-05 until final iterations.
 Initial convergence to 1.0D-05 achieved.  Increase integral accuracy.
 SCF Done:  E(RB3LYP) =  -2937.39066579     A.U. after   12 cycles
            NFock= 12  Conv=0.27D-08     -V/T= 2.0066
 Calling FoFJK, ICntrl=      2127 FMM=F ISym2X=0 I1Cent= 0 IOpClX= 0 NMat=1 NMatS=1 NMatT=0.
 ***** Axes restored to original set *****
 -------------------------------------------------------------------
 Center     Atomic                   Forces (Hartrees/Bohr)
 Number     Number              X              Y              Z
 -------------------------------------------------------------------
      1       35           0.000133387    0.003640786    0.002355738
      2        6           0.000575885   -0.001403426    0.000373911
      3        6           0.000220731   -0.002734028   -0.001704986
      4        6          -0.000113020    0.000875266   -0.000314674
      5        6           0.000967850   -0.000389957    0.000037213
      6        6           0.006780478    0.003107625    0.000662179
      7        7           0.001335907    0.000660468    0.001690350
      8        6          -0.006232829   -0.003811700    0.001532432
      9        6          -0.002094868   -0.001000939   -0.001702040
     10        6          -0.000671965    0.000420008   -0.002731685
     11        1          -0.001334996   -0.001060976   -0.000265958
     12        1          -0.000132155   -0.001304826   -0.000864834
     13        1           0.000566992    0.001449326   -0.000329202
     14        1          -0.001327492   -0.000442993    0.000153025
     15        1          -0.000746755    0.000476002   -0.000297117
     16        1           0.000409737    0.000389263    0.001480838
     17        1           0.000294121    0.000620569   -0.000610166
     18        1           0.000349887    0.000204796   -0.001344732
     19        1           0.001122280    0.000549525    0.000573411
     20        1          -0.000103175   -0.000244788    0.001306299
 -------------------------------------------------------------------
 Cartesian Forces:  Max     0.006780478 RMS     0.001764188

 GradGradGradGradGradGradGradGradGradGradGradGradGradGradGradGradGradGrad
 Berny optimization.
 Using GEDIIS/GDIIS optimizer.
 FormGI is forming the generalized inverse of G from B-inverse, IUseBI=4.
 Internal  Forces:  Max     0.006322594 RMS     0.001439907
 Search for a local minimum.
 Step number   3 out of a maximum of  108
 All quantities printed in internal units (Hartrees-Bohrs-Radians)
 Mixed Optimization -- RFO/linear search
 Update second derivatives using D2CorX and points    1    2    3
[...]
   XZ=     2.0166   YZ=     0.7294   ZZ=    29.5206
   Eigenvalues:    24.5131    28.9297    31.8417
     16  H    Isotropic =    29.2554   Anisotropy =     9.0906
   XX=    29.0738   YX=     1.4379   ZX=    -1.9297
   XY=     2.3468   YY=    30.6990   ZY=    -3.9928
   XZ=    -1.5911   YZ=    -5.4465   ZZ=    27.9936
   Eigenvalues:    24.4187    28.0318    35.3158
     17  H    Isotropic =    21.8232   Anisotropy =    10.9774
   XX=    22.2055   YX=    -4.3563   ZX=    -1.3981
   XY=    -4.1047   YY=    26.4697   ZY=     0.0109
   XZ=    -1.0557   YZ=     0.5981   ZZ=    16.7944
   Eigenvalues:    16.4788    19.8493    29.1415
     18  H    Isotropic =    22.3790   Anisotropy =     6.9570
   XX=    21.7996   YX=     1.7965   ZX=     0.4746
   XY=     2.6251   YY=    26.0424   ZY=     0.4184
   XZ=     0.2011   YZ=     0.3746   ZZ=    19.2950
   Eigenvalues:    19.2481    20.8719    27.0170
     19  H    Isotropic =    23.9862   Anisotropy =     6.6116
   XX=    23.9134   YX=    -2.4548   ZX=     0.6503
   XY=    -3.3303   YY=    26.0647   ZY=    -1.3882
   XZ=     0.6966   YZ=    -1.1574   ZZ=    21.9805
   Eigenvalues:    21.5746    21.9901    28.3940
     20  H    Isotropic =    23.7479   Anisotropy =     9.6047
   XX=    29.7609   YX=     0.2644   ZX=     1.9068
   XY=    -0.4558   YY=    20.1791   ZY=    -0.4591
   XZ=     1.7922   YZ=    -0.4297   ZZ=    21.3039
   Eigenvalues:    19.9896    21.1031    30.1511
 End of Minotr F.D. properties file   721 does not exist.
 End of Minotr F.D. properties file   722 does not exist.
 End of Minotr F.D. properties file   788 does not exist.

 **********************************************************************

            Population analysis using the SCF Density.

 **********************************************************************

 Orbital symmetries:
       Occupied  (A) (A) (A) (A) (A) (A) (A) (A) (A) (A) (A) (A)
                 (A) (A) (A) (A) (A) (A) (A) (A) (A) (A) (A) (A)
                 (A) (A) (A) (A) (A) (A) (A) (A) (A) (A) (A) (A)
                 (A) (A) (A) (A) (A) (A) (A) (A) (A) (A) (A) (A)
                 (A) (A)
       Virtual   (A) (A) (A) (A) (A) (A) (A) (A) (A) (A) (A) (A)
                 (A) (A) (A) (A) (A) (A) (A) (A) (A) (A) (A) (A)
                 (A) (A) (A) (A) (A) (A) (A) (A) (A) (A) (A) (A)
                 (A) (A) (A) (A) (A) (A) (A) (A) (A) (A) (A) (A)
                 (A) (A) (A) (A) (A) (A) (A) (A) (A) (A) (A) (A)
                 (A) (A) (A) (A) (A) (A) (A) (A) (A) (A) (A) (A)
                 (A) (A) (A) (A) (A) (A) (A) (A) (A) (A) (A) (A)
                 (A) (A) (A) (A) (A) (A) (A) (A) (A) (A) (A) (A)
                 (A) (A) (A) (A) (A) (A) (A) (A) (A) (A) (A) (A)
                 (A) (A) (A) (A) (A) (A) (A) (A) (A) (A) (A) (A)
                 (A) (A) (A) (A) (A) (A) (A) (A) (A) (A) (A) (A)
                 (A) (A) (A) (A) (A) (A) (A) (A) (A) (A) (A) (A)
                 (A) (A) (A) (A) (A) (A) (A) (A) (A) (A) (A) (A)
                 (A) (A) (A) (A) (A) (A) (A) (A) (A) (A) (A) (A)
                 (A) (A) (A) (A) (A) (A) (A) (A) (A) (A) (A) (A)
                 (A) (A) (A) (A) (A) (A) (A) (A) (A) (A) (A) (A)
                 (A) (A) (A) (A) (A) (A) (A) (A) (A) (A) (A) (A)
                 (A) (A) (A) (A) (A) (A) (A) (A) (A) (A) (A) (A)
                 (A) (A) (A) (A) (A) (A) (A) (A) (A) (A) (A) (A)
                 (A) (A) (A) (A) (A) (A) (A) (A) (A) (A) (A) (A)
                 (A) (A) (A) (A) (A) (A) (A) (A) (A) (A) (A) (A)
                 (A) (A) (A) (A) (A) (A) (A) (A) (A) (A) (A) (A)
                 (A) (A) (A) (A) (A) (A) (A) (A) (A) (A) (A) (A)
                 (A) (A) (A) (A) (A) (A) (A) (A) (A) (A) (A) (A)
                 (A) (A) (A) (A) (A) (A) (A) (A) (A) (A) (A) (A)
                 (A) (A) (A) (A) (A) (A) (A) (A) (A) (A) (A) (A)
                 (A) (A) (A) (A) (A) (A) (A) (A) (A) (A) (A) (A)
                 (A) (A) (A) (A) (A) (A) (A) (A) (A) (A) (A) (A)
                 (A)
 The electronic state is 1-A.
 Alpha  occ. eigenvalues -- -485.36296 -63.34790 -57.16730 -57.16498 -57.16496
 Alpha  occ. eigenvalues --  -14.75033 -10.60090 -10.57698 -10.57516 -10.56370
 Alpha  occ. eigenvalues --  -10.56132 -10.56056 -10.55463 -10.55293  -9.01416
 Alpha  occ. eigenvalues --   -6.83800  -6.82954  -6.82946  -2.87167  -2.86865
 Alpha  occ. eigenvalues --   -2.86858  -2.86068  -2.86067  -1.05255  -0.94283
 Alpha  occ. eigenvalues --   -0.90827  -0.87504  -0.83789  -0.77699  -0.71969
 Alpha  occ. eigenvalues --   -0.71008  -0.66641  -0.59965  -0.57060  -0.55811
 Alpha  occ. eigenvalues --   -0.53652  -0.52269  -0.49464  -0.47816  -0.47296
 Alpha  occ. eigenvalues --   -0.46266  -0.44737  -0.43517  -0.41382  -0.40150
 Alpha  occ. eigenvalues --   -0.34696  -0.33977  -0.33918  -0.32336  -0.31256
 Alpha virt. eigenvalues --   -0.00240   0.01013   0.03055   0.06119   0.08786
 Alpha virt. eigenvalues --    0.09417   0.09743   0.10652   0.12154   0.12844
 Alpha virt. eigenvalues --    0.13560   0.14613   0.15842   0.16488   0.17622
 Alpha virt. eigenvalues --    0.18156   0.19734   0.20843   0.21786   0.22840
 Alpha virt. eigenvalues --    0.22942   0.24038   0.25243   0.25891   0.26639
 Alpha virt. eigenvalues --    0.27582   0.28222   0.28631   0.29717   0.30490
 Alpha virt. eigenvalues --    0.31347   0.32080   0.33184   0.33665   0.34153
 Alpha virt. eigenvalues --    0.35607   0.36006   0.37535   0.38288   0.39292
 Alpha virt. eigenvalues --    0.41145   0.41624   0.42939   0.43166   0.43826
 Alpha virt. eigenvalues --    0.44187   0.44463   0.45498   0.45542   0.46151
 Alpha virt. eigenvalues --    0.46337   0.47315   0.48219   0.49357   0.50589
 Alpha virt. eigenvalues --    0.50963   0.51309   0.52388   0.53212   0.54362
 Alpha virt. eigenvalues --    0.54648   0.57460   0.58848   0.59535   0.60190
 Alpha virt. eigenvalues --    0.61572   0.64188   0.65681   0.67312   0.68315
 Alpha virt. eigenvalues --    0.68753   0.70516   0.71241   0.72777   0.73712
 Alpha virt. eigenvalues --    0.76071   0.77708   0.78777   0.80528   0.80880
 Alpha virt. eigenvalues --    0.83266   0.84447   0.84990   0.87663   0.88638
 Alpha virt. eigenvalues --    0.90875   0.92037   0.93916   0.95760   0.97065
 Alpha virt. eigenvalues --    0.99056   1.01628   1.03388   1.05164   1.06614
 Alpha virt. eigenvalues --    1.08627   1.09330   1.11373   1.12169   1.14412
 Alpha virt. eigenvalues --    1.16254   1.17920   1.19223   1.19960   1.22801
 Alpha virt. eigenvalues --    1.24443   1.25054   1.27858   1.28240   1.29741
 Alpha virt. eigenvalues --    1.31560   1.33187   1.34616   1.38696   1.38891
 Alpha virt. eigenvalues --    1.40602   1.41708   1.42558   1.43373   1.44467
 Alpha virt. eigenvalues --    1.45511   1.46845   1.47923   1.50898   1.51961
 Alpha virt. eigenvalues --    1.52337   1.55126   1.56768   1.57548   1.57623
 Alpha virt. eigenvalues --    1.58750   1.59029   1.60619   1.62339   1.62786
 Alpha virt. eigenvalues --    1.63500   1.63946   1.64313   1.65998   1.66817
 Alpha virt. eigenvalues --    1.67264   1.68533   1.69784   1.70505   1.71635
 Alpha virt. eigenvalues --    1.72535   1.73971   1.74955   1.76325   1.77412
 Alpha virt. eigenvalues --    1.78770   1.80222   1.81737   1.83301   1.84868
 Alpha virt. eigenvalues --    1.87918   1.88431   1.92008   1.93647   1.95332
 Alpha virt. eigenvalues --    1.97053   1.97499   1.98124   1.99609   2.02172
 Alpha virt. eigenvalues --    2.03793   2.05646   2.09590   2.12333   2.16096
 Alpha virt. eigenvalues --    2.16723   2.18518   2.19077   2.23242   2.24325
 Alpha virt. eigenvalues --    2.26313   2.28322   2.30353   2.32372   2.35057
 Alpha virt. eigenvalues --    2.36076   2.38920   2.41044   2.42283   2.44544
 Alpha virt. eigenvalues --    2.45762   2.48935   2.50673   2.51802   2.53225
 Alpha virt. eigenvalues --    2.55198   2.57089   2.59025   2.59220   2.59825
 Alpha virt. eigenvalues --    2.61278   2.61886   2.63406   2.65119   2.66323
 Alpha virt. eigenvalues --    2.66877   2.67607   2.70552   2.71704   2.73196
 Alpha virt. eigenvalues --    2.74499   2.75091   2.76426   2.78561   2.80125
 Alpha virt. eigenvalues --    2.80907   2.82853   2.83242   2.84098   2.86807
 Alpha virt. eigenvalues --    2.88256   2.92496   2.94950   2.95663   2.96196
 Alpha virt. eigenvalues --    2.98863   2.99699   3.01527   3.04293   3.05864
 Alpha virt. eigenvalues --    3.07890   3.09720   3.11102   3.11648   3.13700
 Alpha virt. eigenvalues --    3.14650   3.16891   3.17319   3.18684   3.19433
 Alpha virt. eigenvalues --    3.20241   3.21259   3.23634   3.24172   3.26312
 Alpha virt. eigenvalues --    3.27000   3.28759   3.29518   3.30006   3.32536
 Alpha virt. eigenvalues --    3.33728   3.34629   3.35610   3.36465   3.38086
 Alpha virt. eigenvalues --    3.39957   3.41875   3.42526   3.43801   3.45043
 Alpha virt. eigenvalues --    3.47196   3.49583   3.50960   3.51063   3.52081
 Alpha virt. eigenvalues --    3.54485   3.55774   3.58912   3.65223   3.66628
 Alpha virt. eigenvalues --    3.70404   3.71180   3.73268   3.77561   3.79566
 Alpha virt. eigenvalues --    3.82140   3.83016   3.84123   3.87402   3.88271
 Alpha virt. eigenvalues --    3.93101   3.95521   3.98465   4.00580   4.02524
 Alpha virt. eigenvalues --    4.06031   4.07200   4.09622   4.11149   4.12054
 Alpha virt. eigenvalues --    4.12480   4.14287   4.15443   4.17661   4.22347
 Alpha virt. eigenvalues --    4.25443   4.27387   4.28370   4.29906   4.32860
 Alpha virt. eigenvalues --    4.35435   4.37605   4.40409   4.41324   4.46088
 Alpha virt. eigenvalues --    4.49517   4.50058   4.51588   4.57115   4.60406
 Alpha virt. eigenvalues --    4.62213   4.65233   4.73760   4.75432   4.78460
 Alpha virt. eigenvalues --    4.82611   4.84831   4.87332   4.92008   4.92657
 Alpha virt. eigenvalues --    5.01347   5.05574   5.12527   5.16983   5.20208
 Alpha virt. eigenvalues --    5.27674   5.33536   5.41126   5.52803   5.58291
 Alpha virt. eigenvalues --    5.72864   5.95151   7.72819  22.35504  22.44005
 Alpha virt. eigenvalues --   22.56946  22.62279  22.74981  22.86982  22.89000
 Alpha virt. eigenvalues --   23.20174  32.52669
          Condensed to atoms (all electrons):
               1          2          3          4          5          6
     1  Br  35.027511   0.246609  -0.048704   0.030774  -0.029672   0.001164
     2  C    0.246609   5.014978   0.242871  -0.067011   0.041157  -0.000342
     3  C   -0.048704   0.242871   5.261990   0.183797  -0.013863  -0.017643
     4  C    0.030774  -0.067011   0.183797   5.452005   0.089003  -0.004727
     5  C   -0.029672   0.041157  -0.013863   0.089003   5.310939   0.369424
     6  C    0.001164  -0.000342  -0.017643  -0.004727   0.369424   5.018206
     7  N    0.000142  -0.000264   0.000594   0.008960  -0.042249   0.496839
     8  C    0.000195   0.000289  -0.000592   0.001837  -0.045229  -0.116076
     9  C   -0.000311  -0.000298   0.001733   0.004865  -0.054717  -0.016964
    10  C   -0.000004   0.001062  -0.009043  -0.067398   0.481473  -0.049121
    11  H   -0.041060   0.438951  -0.054290   0.011893  -0.001524   0.001268
    12  H   -0.043293   0.418360  -0.030367  -0.022165   0.015187  -0.014829
    13  H    0.008043  -0.044158   0.403301  -0.023641  -0.009743   0.004026
    14  H   -0.002173  -0.035325   0.434948  -0.061827   0.012433  -0.000559
    15  H   -0.001986  -0.007068  -0.037800   0.453310  -0.066088  -0.002748
    16  H    0.001511   0.008061  -0.058295   0.433952  -0.041241   0.003114
    17  H    0.004806  -0.000283  -0.000509   0.004901  -0.097129   0.454859
    18  H    0.000003  -0.000006   0.000011   0.000109  -0.000498   0.005236
    19  H   -0.000002  -0.000009   0.000076   0.000110   0.013378  -0.002826
    20  H    0.000017   0.000174  -0.002582   0.002123  -0.046624   0.005883
               7          8          9         10         11         12
     1  Br   0.000142   0.000195  -0.000311  -0.000004  -0.041060  -0.043293
     2  C   -0.000264   0.000289  -0.000298   0.001062   0.438951   0.418360
     3  C    0.000594  -0.000592   0.001733  -0.009043  -0.054290  -0.030367
     4  C    0.008960   0.001837   0.004865  -0.067398   0.011893  -0.022165
     5  C   -0.042249  -0.045229  -0.054717   0.481473  -0.001524   0.015187
     6  C    0.496839  -0.116076  -0.016964  -0.049121   0.001268  -0.014829
     7  N    6.421329   0.498678  -0.046984  -0.067175  -0.000004   0.000775
     8  C    0.498678   4.839340   0.488342  -0.025898  -0.000010  -0.000143
     9  C   -0.046984   0.488342   4.981375   0.486735  -0.000038   0.000611
    10  C   -0.067175  -0.025898   0.486735   5.021118  -0.000250  -0.000685
    11  H   -0.000004  -0.000010  -0.000038  -0.000250   0.497739  -0.022038
    12  H    0.000775  -0.000143   0.000611  -0.000685  -0.022038   0.496832
    13  H   -0.000065   0.000006  -0.000088  -0.003449  -0.005099   0.000146
    14  H    0.000018  -0.000008   0.000040   0.000264  -0.003566   0.005088
    15  H    0.000226  -0.000085  -0.000106   0.002342  -0.000560   0.002615
    16  H   -0.000551   0.000062  -0.000493  -0.000850   0.000016  -0.000672
    17  H   -0.024465   0.008848  -0.002412   0.004063   0.000222  -0.001979
    18  H   -0.034172   0.434507  -0.068825   0.002025  -0.000000   0.000004
    19  H    0.007296  -0.029468   0.414637  -0.058045  -0.000000   0.000007
    20  H   -0.002314   0.002551  -0.031805   0.418957   0.000002  -0.000124
              13         14         15         16         17         18
     1  Br   0.008043  -0.002173  -0.001986   0.001511   0.004806   0.000003
     2  C   -0.044158  -0.035325  -0.007068   0.008061  -0.000283  -0.000006
     3  C    0.403301   0.434948  -0.037800  -0.058295  -0.000509   0.000011
     4  C   -0.023641  -0.061827   0.453310   0.433952   0.004901   0.000109
     5  C   -0.009743   0.012433  -0.066088  -0.041241  -0.097129  -0.000498
     6  C    0.004026  -0.000559  -0.002748   0.003114   0.454859   0.005236
     7  N   -0.000065   0.000018   0.000226  -0.000551  -0.024465  -0.034172
     8  C    0.000006  -0.000008  -0.000085   0.000062   0.008848   0.434507
     9  C   -0.000088   0.000040  -0.000106  -0.000493  -0.002412  -0.068825
    10  C   -0.003449   0.000264   0.002342  -0.000850   0.004063   0.002025
    11  H   -0.005099  -0.003566  -0.000560   0.000016   0.000222  -0.000000
    12  H    0.000146   0.005088   0.002615  -0.000672  -0.001979   0.000004
    13  H    0.529553  -0.016301   0.003878  -0.000249  -0.000267  -0.000001
    14  H   -0.016301   0.507882   0.001200  -0.006052   0.000016   0.000000
    15  H    0.003878   0.001200   0.459264  -0.007824  -0.001918  -0.000003
    16  H   -0.000249  -0.006052  -0.007824   0.504081   0.000196  -0.000005
    17  H   -0.000267   0.000016  -0.001918   0.000196   0.469879  -0.000017
    18  H   -0.000001   0.000000  -0.000003  -0.000005  -0.000017   0.517290
    19  H   -0.000006   0.000000   0.000008  -0.000071   0.000062  -0.000179
    20  H    0.000957  -0.000129   0.000086   0.001712  -0.000136  -0.000292
              19         20
     1  Br  -0.000002   0.000017
     2  C   -0.000009   0.000174
     3  C    0.000076  -0.002582
     4  C    0.000110   0.002123
     5  C    0.013378  -0.046624
     6  C   -0.002826   0.005883
     7  N    0.007296  -0.002314
     8  C   -0.029468   0.002551
     9  C    0.414637  -0.031805
    10  C   -0.058045   0.418957
    11  H   -0.000000   0.000002
    12  H    0.000007  -0.000124
    13  H   -0.000006   0.000957
    14  H    0.000000  -0.000129
    15  H    0.000008   0.000086
    16  H   -0.000071   0.001712
    17  H    0.000062  -0.000136
    18  H   -0.000179  -0.000292
    19  H    0.518664  -0.005697
    20  H   -0.005697   0.502858
 Mulliken charges:
               1
     1  Br  -0.153570
     2  C   -0.257749
     3  C   -0.255632
     4  C   -0.430872
     5  C    0.115582
     6  C   -0.134184
     7  N   -0.216613
     8  C   -0.057144
     9  C   -0.155296
    10  C   -0.136123
    11  H    0.178348
    12  H    0.196671
    13  H    0.153155
    14  H    0.164050
    15  H    0.203257
    16  H    0.163598
    17  H    0.181262
    18  H    0.144814
    19  H    0.142066
    20  H    0.154383
 Sum of Mulliken charges =  -0.00000
 Mulliken charges with hydrogens summed into heavy atoms:
               1
     1  Br  -0.153570
     2  C    0.117269
     3  C    0.061573
     4  C   -0.064017
     5  C    0.115582
     6  C    0.047078
     7  N   -0.216613
     8  C    0.087669
     9  C   -0.013231
    10  C    0.018260
 Electronic spatial extent (au):  <R**2>=           2538.7618
 Charge=              0.0000 electrons
 Dipole moment (field-independent basis, Debye):
    X=              1.2016    Y=              3.6442    Z=              0.9616  Tot=              3.9559
 Quadrupole moment (field-independent basis, Debye-Ang):
   XX=            -71.2677   YY=            -73.7716   ZZ=            -72.4105
   XY=              2.7659   XZ=              1.0263   YZ=              0.6405
 Traceless Quadrupole moment (field-independent basis, Debye-Ang):
   XX=              1.2156   YY=             -1.2883   ZZ=              0.0728
   XY=              2.7659   XZ=              1.0263   YZ=              0.6405
 Octapole moment (field-independent basis, Debye-Ang**2):
  XXX=            -30.2591  YYY=              4.5830  ZZZ=              0.7906  XYY=            -31.3228
  XXY=              3.5099  XXZ=             11.0259  XZZ=            -35.3531  YZZ=             -4.1094
  YYZ=             -1.3032  XYZ=             -5.5402
 Hexadecapole moment (field-independent basis, Debye-Ang**3):
 XXXX=          -2155.6064 YYYY=           -624.5151 ZZZZ=           -216.6491 XXXY=             36.6996
 XXXZ=             64.6299 YYYX=             70.2513 YYYZ=             -1.4103 ZZZX=              0.3367
 ZZZY=              4.7443 XXYY=           -473.4073 XXZZ=           -432.3141 YYZZ=           -135.9873
 XXYZ=              2.0844 YYXZ=              8.1490 ZZXY=              9.5421
 N-N= 7.317088844211D+02 E-N=-8.464481078380D+03  KE= 2.934430202336D+03
 Unable to Open any file for archive entry.
 1\1\GINC-COMPUTE-0-32\SP\RM062X\def2TZVP\C8H10Br1N1\ZTAN64\14-Aug-2024
 \0\\# M062X/def2tzvp int=(grid=ultrafine) nmr=giao guess=read geom=che
 ck\\pyrd10.xyz\\0,1\Br,0,4.4859425645,-1.0118846835,1.9744859796\C,0,3
 .649893353,-2.3562576804,0.7767794813\C,0,2.9073657671,-1.6951143838,-
 0.371291911\C,0,1.7657495684,-0.7543433642,0.0605186184\C,0,0.68992355
 28,-1.4488636447,0.8586015492\C,0,0.7730616625,-1.5568445381,2.2545282
 736\N,0,-0.1281109937,-2.1853500418,3.0184532452\C,0,-1.175660685,-2.7
 436054068,2.4006394926\C,0,-1.3633658487,-2.7011007254,1.0189645771\C,
 0,-0.4135622706,-2.0447775458,0.2409386761\H,0,4.4743333234,-2.9779201
 588,0.4317294392\H,0,2.9924067771,-2.9348958336,1.4239910316\H,0,2.498
 6257739,-2.5035993127,-0.9935703714\H,0,3.6182726494,-1.1382349057,-0.
 9904075728\H,0,2.1972872661,0.062617047,0.6464713757\H,0,1.3269415261,
 -0.3091917289,-0.83860742\H,0,1.6213501843,-1.1159959406,2.7755368391\
 H,0,-1.8986235582,-3.2467002438,3.039612603\H,0,-2.2335938874,-3.16747
 64076,0.5684418445\H,0,-0.5278367251,-1.9868605009,-0.8388157512\\Vers
 ion=ES64L-G16RevC.01\State=1-A\HF=-2939.7902056\RMSD=1.662e-09\Dipole=
 -0.3518822,-0.405732,-1.460769\Quadrupole=0.4634511,0.3387885,-0.80223
 96,0.764076,1.9587341,0.9996505\PG=C01 [X(C8H10Br1N1)]\\@
 The archive entry for this job was punched.


 THE FIRST AND LAST THING REQUIRED OF GENIUS IS THE LOVE OF TRUTH.

                          -- GOETHE
 Job cpu time:       0 days  0 hours 22 minutes 54.5 seconds.
 Elapsed time:       0 days  0 hours  1 minutes 32.0 seconds.
 File lengths (MBytes):  RWF=     88 Int=      0 D2E=      0 Chk=     15 Scr=      1
 Normal termination of Gaussian 16 at Wed Aug 14 18:54:31 2024.
 
 
-----Kestrel cluster job statistics-----
Time info:

real	8m44.805s
user	136m30.615s
sys	0m16.306s
 
Disk space usage:
15M	/scratch/362948.kestrel.chem.wisc.edu
