 Entering Gaussian System, Link 0=/share/apps/gaussian/g16/g16
 Initial command:
 /share/apps/gaussian/g16/l1.exe "/scratch/362962.kestrel.chem.wisc.edu/Gau-220042.inp" -scrdir="/scratch/362962.kestrel.chem.wisc.edu/"
 Entering Link 1 = /share/apps/gaussian/g16/l1.exe PID=    220043.
  
 Copyright (c) 1988-2019, Gaussian, Inc.  All Rights Reserved.
  
 This is part of the Gaussian(R) 16 program.  It is based on
 the Gaussian(R) 09 system (copyright 2009, Gaussian, Inc.),
 the Gaussian(R) 03 system (copyright 2003, Gaussian, Inc.),
 the Gaussian(R) 98 system (copyright 1998, Gaussian, Inc.),
 the Gaussian(R) 94 system (copyright 1995, Gaussian, Inc.),
 the Gaussian 92(TM) system (copyright 1992, Gaussian, Inc.),
 the Gaussian 90(TM) system (copyright 1990, Gaussian, Inc.),
 the Gaussian 88(TM) system (copyright 1988, Gaussian, Inc.),
 the Gaussian 86(TM) system (copyright 1986, Carnegie Mellon
 University), and the Gaussian 82(TM) system (copyright 1983,
 Carnegie Mellon University). Gaussian is a federally registered
 trademark of Gaussian, Inc.
  
 This software contains proprietary and confidential information,
 including trade secrets, belonging to Gaussian, Inc.
  
 This software is provided under written license and may be
 used, copied, transmitted, or stored only in accord with that
 written license.
  
 The following legend is applicable only to US Government
 contracts under FAR:
  
                    RESTRICTED RIGHTS LEGEND
  
 Use, reproduction and disclosure by the US Government is
 subject to restrictions as set forth in subparagraphs (a)
 and (c) of the Commercial Computer Software - Restricted
 Rights clause in FAR 52.227-19.
  
 Gaussian, Inc.
 340 Quinnipiac St., Bldg. 40, Wallingford CT 06492
  
  
 ---------------------------------------------------------------
 Warning -- This program may not be used in any manner that
 competes with the business of Gaussian, Inc. or will provide
 assistance to any competitor of Gaussian, Inc.  The licensee
 of this program is prohibited from giving any competitor of
 Gaussian, Inc. access to this program.  By using this program,
 the user acknowledges that Gaussian, Inc. is engaged in the
 business of creating and licensing software in the field of
 computational chemistry and represents and warrants to the
 licensee that it is not a competitor of Gaussian, Inc. and that
 it will not use this program in any manner prohibited above.
 ---------------------------------------------------------------
  

 Cite this work as:
 Gaussian 16, Revision C.01,
 M. J. Frisch, G. W. Trucks, H. B. Schlegel, G. E. Scuseria, 
 M. A. Robb, J. R. Cheeseman, G. Scalmani, V. Barone, 
 G. A. Petersson, H. Nakatsuji, X. Li, M. Caricato, A. V. Marenich, 
 J. Bloino, B. G. Janesko, R. Gomperts, B. Mennucci, H. P. Hratchian, 
 J. V. Ortiz, A. F. Izmaylov, J. L. Sonnenberg, D. Williams-Young, 
 F. Ding, F. Lipparini, F. Egidi, J. Goings, B. Peng, A. Petrone, 
 T. Henderson, D. Ranasinghe, V. G. Zakrzewski, J. Gao, N. Rega, 
 G. Zheng, W. Liang, M. Hada, M. Ehara, K. Toyota, R. Fukuda, 
 J. Hasegawa, M. Ishida, T. Nakajima, Y. Honda, O. Kitao, H. Nakai, 
 T. Vreven, K. Throssell, J. A. Montgomery, Jr., J. E. Peralta, 
 F. Ogliaro, M. J. Bearpark, J. J. Heyd, E. N. Brothers, K. N. Kudin, 
 V. N. Staroverov, T. A. Keith, R. Kobayashi, J. Normand, 
 K. Raghavachari, A. P. Rendell, J. C. Burant, S. S. Iyengar, 
 J. Tomasi, M. Cossi, J. M. Millam, M. Klene, C. Adamo, R. Cammi, 
 J. W. Ochterski, R. L. Martin, K. Morokuma, O. Farkas, 
 J. B. Foresman, and D. J. Fox, Gaussian, Inc., Wallingford CT, 2019.
 
 ******************************************
 Gaussian 16:  ES64L-G16RevC.01  3-Jul-2019
                14-Aug-2024 
 ******************************************
 %nprocs=16
 Will use up to   16 processors via shared memory.
 %mem=16GB
 %chk=pyrd2_conf-1.chk
 ----------------------------------------------------------------------
 # B3LYP/6-31G(d,p) symmetry=loose empiricaldispersion=GD3BJ int=(grid=
 ultrafine) opt freq=noraman
 ----------------------------------------------------------------------
 1/18=20,19=15,26=4,38=1/1,3;
 2/9=110,12=2,17=4,18=3,40=1/2;
 3/5=1,6=6,7=101,11=2,25=1,30=1,71=1,74=-5,75=-5,124=41/1,2,3;
 4//1;
 5/5=2,38=5/2;
 6/7=2,8=2,9=2,10=2,28=1/1;
 7//1,2,3,16;
 1/18=20,19=15,26=4/3(2);
 2/9=110/2;
 99//99;
 2/9=110/2;
 3/5=1,6=6,7=101,11=2,25=1,30=1,71=1,74=-5,75=-5,124=41/1,2,3;
 4/5=5,16=3,69=1/1;
 5/5=2,38=5/2;
 7//1,2,3,16;
 1/18=20,19=15,26=4/3(-5);
 2/9=110/2;
 6/7=2,8=2,9=2,10=2,19=2,28=1/1;
 99/9=1/99;
 ---------
 pyrd2.xyz
 ---------
 Symbolic Z-matrix:
 Charge =  0 Multiplicity = 1
 Cl                   -1.4052   -2.4982   -0.4152 
 C                    -0.1958   -1.2752   -0.2347 
 N                     1.0997   -1.6625   -0.3651 
 C                     2.0714   -0.7266   -0.229 
 C                     1.795     0.6141    0.0388 
 C                     0.4621    1.0059    0.1717 
 C                    -0.5573    0.0563    0.0351 
 C                    -2.0125    0.4769    0.1788 
 H                     3.0886   -1.0753   -0.34 
 H                     2.5942    1.3339    0.1412 
 H                     0.2271    2.0401    0.3792 
 H                    -2.4857   -0.08      0.9884 
 H                    -2.1205    1.5418    0.3867 
 H                    -2.561     0.2489   -0.7359 
 

 GradGradGradGradGradGradGradGradGradGradGradGradGradGradGradGradGradGrad
 Berny optimization.
 Initialization pass.
                           ----------------------------
                           !    Initial Parameters    !
                           ! (Angstroms and Degrees)  !
 --------------------------                            --------------------------
 ! Name  Definition              Value          Derivative Info.                !
 --------------------------------------------------------------------------------
 ! R1    R(1,2)                  1.7294         estimate D2E/DX2                !
 ! R2    R(2,3)                  1.3584         estimate D2E/DX2                !
 ! R3    R(2,7)                  1.4058         estimate D2E/DX2                !
 ! R4    R(3,4)                  1.356          estimate D2E/DX2                !
 ! R5    R(4,5)                  1.3948         estimate D2E/DX2                !
 ! R6    R(4,9)                  1.081          estimate D2E/DX2                !
 ! R7    R(5,6)                  1.3956         estimate D2E/DX2                !
 ! R8    R(5,10)                 1.0804         estimate D2E/DX2                !
 ! R9    R(6,7)                  1.3998         estimate D2E/DX2                !
 ! R10   R(6,11)                 1.0807         estimate D2E/DX2                !
 ! R11   R(7,8)                  1.5216         estimate D2E/DX2                !
 ! R12   R(8,12)                 1.0906         estimate D2E/DX2                !
 ! R13   R(8,13)                 1.0904         estimate D2E/DX2                !
 ! R14   R(8,14)                 1.0906         estimate D2E/DX2                !
 ! A1    A(1,2,3)              117.0823         estimate D2E/DX2                !
 ! A2    A(1,2,7)              120.6628         estimate D2E/DX2                !
 ! A3    A(3,2,7)              122.2549         estimate D2E/DX2                !
 ! A4    A(2,3,4)              118.4894         estimate D2E/DX2                !
 ! A5    A(3,4,5)              122.7304         estimate D2E/DX2                !
 ! A6    A(3,4,9)              116.1907         estimate D2E/DX2                !
 ! A7    A(5,4,9)              121.0789         estimate D2E/DX2                !
 ! A8    A(4,5,6)              118.5137         estimate D2E/DX2                !
 ! A9    A(4,5,10)             120.7955         estimate D2E/DX2                !
 ! A10   A(6,5,10)             120.6908         estimate D2E/DX2                !
 ! A11   A(5,6,7)              119.7198         estimate D2E/DX2                !
 ! A12   A(5,6,11)             119.6452         estimate D2E/DX2                !
 ! A13   A(7,6,11)             120.635          estimate D2E/DX2                !
 ! A14   A(2,7,6)              118.2917         estimate D2E/DX2                !
 ! A15   A(2,7,8)              121.7263         estimate D2E/DX2                !
 ! A16   A(6,7,8)              119.982          estimate D2E/DX2                !
 ! A17   A(7,8,12)             110.115          estimate D2E/DX2                !
 ! A18   A(7,8,13)             112.5014         estimate D2E/DX2                !
 ! A19   A(7,8,14)             110.1198         estimate D2E/DX2                !
 ! A20   A(12,8,13)            108.3112         estimate D2E/DX2                !
 ! A21   A(12,8,14)            107.3145         estimate D2E/DX2                !
 ! A22   A(13,8,14)            108.3164         estimate D2E/DX2                !
 ! D1    D(1,2,3,4)            179.9995         estimate D2E/DX2                !
 ! D2    D(7,2,3,4)             -0.0034         estimate D2E/DX2                !
 ! D3    D(1,2,7,6)           -179.9982         estimate D2E/DX2                !
 ! D4    D(1,2,7,8)             -0.0038         estimate D2E/DX2                !
 ! D5    D(3,2,7,6)              0.0048         estimate D2E/DX2                !
 ! D6    D(3,2,7,8)            179.9992         estimate D2E/DX2                !
 ! D7    D(2,3,4,5)              0.0015         estimate D2E/DX2                !
 ! D8    D(2,3,4,9)           -179.9938         estimate D2E/DX2                !
 ! D9    D(3,4,5,6)             -0.001          estimate D2E/DX2                !
 ! D10   D(3,4,5,10)          -179.9994         estimate D2E/DX2                !
 ! D11   D(9,4,5,6)            179.9941         estimate D2E/DX2                !
 ! D12   D(9,4,5,10)            -0.0043         estimate D2E/DX2                !
 ! D13   D(4,5,6,7)              0.0024         estimate D2E/DX2                !
 ! D14   D(4,5,6,11)          -179.9983         estimate D2E/DX2                !
 ! D15   D(10,5,6,7)          -179.9992         estimate D2E/DX2                !
 ! D16   D(10,5,6,11)            0.0001         estimate D2E/DX2                !
 ! D17   D(5,6,7,2)             -0.0042         estimate D2E/DX2                !
 ! D18   D(5,6,7,8)           -179.9987         estimate D2E/DX2                !
 ! D19   D(11,6,7,2)           179.9965         estimate D2E/DX2                !
 ! D20   D(11,6,7,8)             0.002          estimate D2E/DX2                !
 ! D21   D(2,7,8,12)            59.0769         estimate D2E/DX2                !
 ! D22   D(2,7,8,13)           179.999          estimate D2E/DX2                !
 ! D23   D(2,7,8,14)           -59.0689         estimate D2E/DX2                !
 ! D24   D(6,7,8,12)          -120.9288         estimate D2E/DX2                !
 ! D25   D(6,7,8,13)            -0.0068         estimate D2E/DX2                !
 ! D26   D(6,7,8,14)           120.9253         estimate D2E/DX2                !
 --------------------------------------------------------------------------------
 Trust Radius=3.00D-01 FncErr=1.00D-07 GrdErr=1.00D-06 EigMax=2.50D+02 EigMin=1.00D-04
 Number of steps in this run=     72 maximum allowed number of steps=    100.
 GradGradGradGradGradGradGradGradGradGradGradGradGradGradGradGradGradGrad

                          Input orientation:                          
 ---------------------------------------------------------------------
 Center     Atomic      Atomic             Coordinates (Angstroms)
 Number     Number       Type             X           Y           Z
 ---------------------------------------------------------------------
      1         17           0       -1.405200   -2.498200   -0.415200
      2          6           0       -0.195800   -1.275200   -0.234700
      3          7           0        1.099700   -1.662500   -0.365100
      4          6           0        2.071400   -0.726600   -0.229000
      5          6           0        1.795000    0.614100    0.038800
      6          6           0        0.462100    1.005900    0.171700
      7          6           0       -0.557300    0.056300    0.035100
      8          6           0       -2.012500    0.476900    0.178800
      9          1           0        3.088600   -1.075300   -0.340000
     10          1           0        2.594200    1.333900    0.141200
     11          1           0        0.227100    2.040100    0.379200
     12          1           0       -2.485700   -0.080000    0.988400
     13          1           0       -2.120500    1.541800    0.386700
     14          1           0       -2.561000    0.248900   -0.735900
 ---------------------------------------------------------------------
                    Distance matrix (angstroms):
                    1          2          3          4          5
     1  Cl   0.000000
     2  C    1.729439   0.000000
     3  N    2.641104   1.358428   0.000000
     4  C    3.906403   2.332636   1.355962   0.000000
     5  C    4.487071   2.758177   2.414433   1.394844   0.000000
     6  C    4.013724   2.408612   2.795540   2.398325   1.395633
     7  C    2.728951   1.405833   2.420761   2.755494   2.417534
     8  C    3.094005   2.557584   3.815580   4.277026   3.812542
     9  H    4.714291   3.292162   2.073923   1.081022   2.161241
    10  H    5.566846   3.838333   3.386485   2.157783   1.080425
    11  H    4.887908   3.398078   3.876166   3.380234   2.146546
    12  H    2.997543   2.857992   4.146247   4.761020   4.439359
    13  H    4.180466   3.467866   4.604610   4.805908   4.038911
    14  H    2.997546   2.858016   4.146284   4.761058   4.439399
                    6          7          8          9         10
     6  C    0.000000
     7  C    1.399849   0.000000
     8  C    2.530521   1.521565   0.000000
     9  H    3.389946   3.835858   5.357210   0.000000
    10  H    2.157398   3.402274   4.685888   2.506039   0.000000
    11  H    1.080671   2.160822   2.738533   4.290821   2.481638
    12  H    3.245875   2.155478   1.090646   5.816192   5.340622
    13  H    2.646363   2.184932   1.090366   5.874694   4.725663
    14  H    3.245908   2.155539   1.090648   5.816203   5.340657
                   11         12         13         14
    11  H    0.000000
    12  H    3.496460   0.000000
    13  H    2.399914   1.767951   0.000000
    14  H    3.496476   1.757002   1.768011   0.000000
 Stoichiometry    C6H6ClN
 Framework group  C1[X(C6H6ClN)]
 Deg. of freedom    36
 Full point group                 C1      NOp   1
 Largest Abelian subgroup         C1      NOp   1
 Largest concise Abelian subgroup C1      NOp   1
                         Standard orientation:                         
 ---------------------------------------------------------------------
 Center     Atomic      Atomic             Coordinates (Angstroms)
 Number     Number       Type             X           Y           Z
 ---------------------------------------------------------------------
      1         17           0        2.075382   -0.699191    0.000005
      2          6           0        0.372714   -0.396075    0.000006
      3          7           0       -0.448148   -1.478439   -0.000016
      4          6           0       -1.788554   -1.273636   -0.000005
      5          6           0       -2.356850    0.000189   -0.000002
      6          6           0       -1.508343    1.108264    0.000011
      7          6           0       -0.121193    0.920141   -0.000031
      8          6           0        0.809395    2.123954    0.000013
      9          1           0       -2.406714   -2.160476    0.000081
     10          1           0       -3.429781    0.127222    0.000017
     11          1           0       -1.929063    2.103676    0.000041
     12          1           0        1.455220    2.098825   -0.878501
     13          1           0        0.267621    3.070199   -0.000042
     14          1           0        1.455258    2.098839    0.878501
 ---------------------------------------------------------------------
 Rotational constants (GHZ):           2.8682404           1.5647226           1.0187651
 Standard basis: 6-31G(d,p) (6D, 7F)
 There are   154 symmetry adapted cartesian basis functions of A   symmetry.
 There are   154 symmetry adapted basis functions of A   symmetry.
   154 basis functions,   290 primitive gaussians,   154 cartesian basis functions
    33 alpha electrons       33 beta electrons
       nuclear repulsion energy       404.7250561586 Hartrees.
 NAtoms=   14 NActive=   14 NUniq=   14 SFac= 1.00D+00 NAtFMM=   60 NAOKFM=F Big=F
 Integral buffers will be    131072 words long.
 Raffenetti 2 integral format.
 Two-electron integral symmetry is turned on.
 Nuclear repulsion after empirical dispersion term =      404.6983769927 Hartrees.
 One-electron integrals computed using PRISM.
 NBasis=   154 RedAO= T EigKep=  7.76D-04  NBF=   154
 NBsUse=   154 1.00D-06 EigRej= -1.00D+00 NBFU=   154
 ExpMin= 1.43D-01 ExpMax= 2.52D+04 ExpMxC= 3.78D+03 IAcc=3 IRadAn=         5 AccDes= 0.00D+00
 Harris functional with IExCor=  402 and IRadAn=       5 diagonalized for initial guess.
 HarFok:  IExCor=  402 AccDes= 0.00D+00 IRadAn=         5 IDoV= 1 UseB2=F ITyADJ=14
 ICtDFT=  3500011 ScaDFX=  1.000000  1.000000  1.000000  1.000000
 FoFCou: FMM=F IPFlag=           0 FMFlag=      100000 FMFlg1=           0
         NFxFlg=           0 DoJE=T BraDBF=F KetDBF=T FulRan=T
         wScrn=  0.000000 ICntrl=       500 IOpCl=  0 I1Cent=   200000004 NGrid=           0
         NMat0=    1 NMatS0=      1 NMatT0=    0 NMatD0=    1 NMtDS0=    0 NMtDT0=    0
 Petite list used in FoFCou.
 Requested convergence on RMS density matrix=1.00D-08 within 128 cycles.
 Requested convergence on MAX density matrix=1.00D-06.
 Requested convergence on             energy=1.00D-06.
 No special actions if energy rises.
 Integral accuracy reduced to 1.0D-05 until final iterations.
 Initial convergence to 1.0D-05 achieved.  Increase integral accuracy.
 SCF Done:  E(RB3LYP) =  -747.234453462     A.U. after   14 cycles
            NFock= 14  Conv=0.98D-08     -V/T= 2.0058

 **********************************************************************

            Population analysis using the SCF Density.

 **********************************************************************

 Orbital symmetries:
       Occupied  (A) (A) (A) (A) (A) (A) (A) (A) (A) (A) (A) (A)
                 (A) (A) (A) (A) (A) (A) (A) (A) (A) (A) (A) (A)
                 (A) (A) (A) (A) (A) (A) (A) (A) (A)
       Virtual   (A) (A) (A) (A) (A) (A) (A) (A) (A) (A) (A) (A)
                 (A) (A) (A) (A) (A) (A) (A) (A) (A) (A) (A) (A)
                 (A) (A) (A) (A) (A) (A) (A) (A) (A) (A) (A) (A)
                 (A) (A) (A) (A) (A) (A) (A) (A) (A) (A) (A) (A)
                 (A) (A) (A) (A) (A) (A) (A) (A) (A) (A) (A) (A)
                 (A) (A) (A) (A) (A) (A) (A) (A) (A) (A) (A) (A)
                 (A) (A) (A) (A) (A) (A) (A) (A) (A) (A) (A) (A)
                 (A) (A) (A) (A) (A) (A) (A) (A) (A) (A) (A) (A)
                 (A) (A) (A) (A) (A) (A) (A) (A) (A) (A) (A) (A)
                 (A) (A) (A) (A) (A) (A) (A) (A) (A) (A) (A) (A)
                 (A)
 The electronic state is 1-A.
 Alpha  occ. eigenvalues -- -101.55136 -14.34396 -10.28295 -10.23309 -10.22274
 Alpha  occ. eigenvalues --  -10.21615 -10.20642 -10.19494  -9.46832  -7.23214
 Alpha  occ. eigenvalues --   -7.22280  -7.22201  -0.95351  -0.86088  -0.82148
 Alpha  occ. eigenvalues --   -0.76442  -0.70341  -0.63174  -0.61298  -0.52007
 Alpha  occ. eigenvalues --   -0.50291  -0.46425  -0.44049  -0.42861  -0.41444
 Alpha  occ. eigenvalues --   -0.40684  -0.39753  -0.36828  -0.34208  -0.31623
 Alpha  occ. eigenvalues --   -0.28557  -0.26674  -0.25232
 Alpha virt. eigenvalues --   -0.03433  -0.01929   0.04389   0.09791   0.11737
 Alpha virt. eigenvalues --    0.12445   0.14629   0.15395   0.17592   0.17897
 Alpha virt. eigenvalues --    0.22068   0.24055   0.28703   0.31124   0.33193
 Alpha virt. eigenvalues --    0.36319   0.40662   0.42118   0.44772   0.45477
 Alpha virt. eigenvalues --    0.47625   0.50390   0.53385   0.54088   0.55320
 Alpha virt. eigenvalues --    0.57871   0.58757   0.59688   0.60765   0.62714
 Alpha virt. eigenvalues --    0.64027   0.68007   0.68509   0.69776   0.70590
 Alpha virt. eigenvalues --    0.78802   0.80600   0.81616   0.81823   0.84725
 Alpha virt. eigenvalues --    0.85404   0.86586   0.87967   0.88434   0.89571
 Alpha virt. eigenvalues --    0.93409   0.94833   0.96520   0.98185   1.02853
 Alpha virt. eigenvalues --    1.04200   1.09588   1.11139   1.15431   1.20004
 Alpha virt. eigenvalues --    1.23438   1.26862   1.27720   1.34622   1.37499
 Alpha virt. eigenvalues --    1.40131   1.43790   1.46840   1.53088   1.54981
 Alpha virt. eigenvalues --    1.69237   1.71323   1.73593   1.77745   1.80102
 Alpha virt. eigenvalues --    1.80886   1.85517   1.88595   1.96477   1.97104
 Alpha virt. eigenvalues --    2.00618   2.01155   2.03657   2.07531   2.08832
 Alpha virt. eigenvalues --    2.12406   2.18521   2.18730   2.21948   2.29252
 Alpha virt. eigenvalues --    2.29855   2.32318   2.37898   2.38472   2.41638
 Alpha virt. eigenvalues --    2.45601   2.47248   2.50073   2.51960   2.55226
 Alpha virt. eigenvalues --    2.62136   2.65685   2.65830   2.68134   2.74708
 Alpha virt. eigenvalues --    2.80058   2.83524   2.85956   2.97811   3.01409
 Alpha virt. eigenvalues --    3.15660   3.19776   3.25311   3.26285   3.38559
 Alpha virt. eigenvalues --    3.42551   3.45634   3.75470   4.06477   4.08599
 Alpha virt. eigenvalues --    4.16701   4.23705   4.31333   4.37618   4.50380
 Alpha virt. eigenvalues --    4.71483
          Condensed to atoms (all electrons):
               1          2          3          4          5          6
     1  Cl  16.860561   0.273349  -0.076015   0.004222   0.000214   0.003661
     2  C    0.273349   5.019440   0.394138  -0.066123  -0.042071  -0.035218
     3  N   -0.076015   0.394138   6.796037   0.460490  -0.023889  -0.055676
     4  C    0.004222  -0.066123   0.460490   4.717947   0.500321  -0.038111
     5  C    0.000214  -0.042071  -0.023889   0.500321   4.913897   0.513145
     6  C    0.003661  -0.035218  -0.055676  -0.038111   0.513145   4.868787
     7  C   -0.091599   0.460969  -0.021111  -0.031443  -0.025245   0.543981
     8  C   -0.000679  -0.058048   0.005530   0.000227   0.008082  -0.058037
     9  H   -0.000184   0.004631  -0.049744   0.388618  -0.061486   0.003046
    10  H    0.000018   0.000521   0.004828  -0.034900   0.358878  -0.038656
    11  H   -0.000150   0.006124  -0.000217   0.004851  -0.045893   0.374063
    12  H    0.003311  -0.006192  -0.000049   0.000027  -0.000215   0.001193
    13  H    0.000438   0.004926  -0.000097  -0.000007   0.000046  -0.005566
    14  H    0.003311  -0.006191  -0.000048   0.000027  -0.000215   0.001193
               7          8          9         10         11         12
     1  Cl  -0.091599  -0.000679  -0.000184   0.000018  -0.000150   0.003311
     2  C    0.460969  -0.058048   0.004631   0.000521   0.006124  -0.006192
     3  N   -0.021111   0.005530  -0.049744   0.004828  -0.000217  -0.000049
     4  C   -0.031443   0.000227   0.388618  -0.034900   0.004851   0.000027
     5  C   -0.025245   0.008082  -0.061486   0.358878  -0.045893  -0.000215
     6  C    0.543981  -0.058037   0.003046  -0.038656   0.374063   0.001193
     7  C    4.794430   0.355617   0.000911   0.005487  -0.041394  -0.024950
     8  C    0.355617   5.014348   0.000016  -0.000117  -0.011306   0.376464
     9  H    0.000911   0.000016   0.605964  -0.002054  -0.000196  -0.000000
    10  H    0.005487  -0.000117  -0.002054   0.615531  -0.005993   0.000002
    11  H   -0.041394  -0.011306  -0.000196  -0.005993   0.611977   0.000205
    12  H   -0.024950   0.376464  -0.000000   0.000002   0.000205   0.570648
    13  H   -0.026362   0.370563  -0.000000  -0.000016   0.005520  -0.028629
    14  H   -0.024948   0.376470  -0.000000   0.000002   0.000205  -0.030811
              13         14
     1  Cl   0.000438   0.003311
     2  C    0.004926  -0.006191
     3  N   -0.000097  -0.000048
     4  C   -0.000007   0.000027
     5  C    0.000046  -0.000215
     6  C   -0.005566   0.001193
     7  C   -0.026362  -0.024948
     8  C    0.370563   0.376470
     9  H   -0.000000  -0.000000
    10  H   -0.000016   0.000002
    11  H    0.005520   0.000205
    12  H   -0.028629  -0.030811
    13  H    0.597063  -0.028624
    14  H   -0.028624   0.570632
 Mulliken charges:
               1
     1  Cl   0.019542
     2  C    0.049745
     3  N   -0.434179
     4  C    0.093853
     5  C   -0.095568
     6  C   -0.077808
     7  C    0.125655
     8  C   -0.379130
     9  H    0.110479
    10  H    0.096468
    11  H    0.102205
    12  H    0.138995
    13  H    0.110744
    14  H    0.138998
 Sum of Mulliken charges =  -0.00000
 Mulliken charges with hydrogens summed into heavy atoms:
               1
     1  Cl   0.019542
     2  C    0.049745
     3  N   -0.434179
     4  C    0.204332
     5  C    0.000900
     6  C    0.024397
     7  C    0.125655
     8  C    0.009608
 Electronic spatial extent (au):  <R**2>=           1093.4795
 Charge=             -0.0000 electrons
 Dipole moment (field-independent basis, Debye):
    X=             -1.9958    Y=              2.6083    Z=              0.0001  Tot=              3.2843
 Quadrupole moment (field-independent basis, Debye-Ang):
   XX=            -47.8631   YY=            -52.5568   ZZ=            -54.6134
   XY=              1.6903   XZ=             -0.0001   YZ=             -0.0002
 Traceless Quadrupole moment (field-independent basis, Debye-Ang):
   XX=              3.8146   YY=             -0.8790   ZZ=             -2.9357
   XY=              1.6903   XZ=             -0.0001   YZ=             -0.0002
 Octapole moment (field-independent basis, Debye-Ang**2):
  XXX=             -7.0507  YYY=              9.5774  ZZZ=              0.0001  XYY=             -3.8020
  XXY=             -3.0179  XXZ=              0.0008  XZZ=              6.2268  YZZ=             -0.8735
  YYZ=              0.0002  XYZ=              0.0004
 Hexadecapole moment (field-independent basis, Debye-Ang**3):
 XXXX=           -778.2380 YYYY=           -531.7322 ZZZZ=            -62.2448 XXXY=             -2.9065
 XXXZ=             -0.0013 YYYX=             -0.6185 YYYZ=             -0.0017 ZZZX=             -0.0000
 ZZZY=             -0.0001 XXYY=           -212.3851 XXZZ=           -159.1571 YYZZ=           -102.3540
 XXYZ=             -0.0001 YYXZ=             -0.0008 ZZXY=              0.5655
 N-N= 4.046983769927D+02 E-N=-2.568078552365D+03  KE= 7.429193755288D+02
 Calling FoFJK, ICntrl=      2127 FMM=F ISym2X=0 I1Cent= 0 IOpClX= 0 NMat=1 NMatS=1 NMatT=0.
 ***** Axes restored to original set *****
 -------------------------------------------------------------------
 Center     Atomic                   Forces (Hartrees/Bohr)
 Number     Number              X              Y              Z
 -------------------------------------------------------------------
      1       17          -0.005173852   -0.006383026   -0.000992241
      2        6           0.047884105    0.013702509    0.000533820
      3        7          -0.014813613    0.009433443    0.002440805
      4        6          -0.022110709   -0.005766254   -0.000138650
      5        6          -0.003674877   -0.002577807   -0.000332996
      6        6           0.008067392   -0.012683524   -0.002766092
      7        6          -0.018291684    0.009460374    0.002587660
      8        6           0.007902065   -0.005864753   -0.001452129
      9        1           0.002898232   -0.002593911   -0.000616893
     10        1           0.002909641    0.001450255    0.000149145
     11        1          -0.003524984    0.002292801    0.000591856
     12        1          -0.002402338   -0.001118469    0.001407022
     13        1           0.002854406    0.001205874    0.000100410
     14        1          -0.002523781   -0.000557512   -0.001511717
 -------------------------------------------------------------------
 Cartesian Forces:  Max     0.047884105 RMS     0.010049018

 GradGradGradGradGradGradGradGradGradGradGradGradGradGradGradGradGradGrad
 Berny optimization.
 FormGI is forming the generalized inverse of G from B-inverse, IUseBI=4.
 Internal  Forces:  Max     0.029559095 RMS     0.005786445
 Search for a local minimum.
 Step number   1 out of a maximum of   72
 All quantities printed in internal units (Hartrees-Bohrs-Radians)
 Mixed Optimization -- RFO/linear search
 Second derivative matrix not updated -- first step.
 ITU=  0
     Eigenvalues ---    0.00481   0.01404   0.02057   0.02090   0.02118
     Eigenvalues ---    0.02145   0.02152   0.02193   0.02229   0.06910
     Eigenvalues ---    0.07260   0.16000   0.16000   0.16000   0.16000
     Eigenvalues ---    0.16000   0.16000   0.22081   0.23318   0.24911
     Eigenvalues ---    0.25000   0.25000   0.30216   0.32568   0.34738
     Eigenvalues ---    0.34738   0.34770   0.35871   0.35913   0.35943
     Eigenvalues ---    0.41837   0.43658   0.45470   0.46218   0.51705
     Eigenvalues ---    0.52918
 RFO step:  Lambda=-5.38318653D-03 EMin= 4.80679394D-03
 Linear search not attempted -- first point.
 Iteration  1 RMS(Cart)=  0.01889355 RMS(Int)=  0.00023064
 Iteration  2 RMS(Cart)=  0.00035092 RMS(Int)=  0.00008481
 Iteration  3 RMS(Cart)=  0.00000004 RMS(Int)=  0.00008481
 Variable       Old X    -DE/DX   Delta X   Delta X   Delta X     New X
                                 (Linear)    (Quad)   (Total)
    R1        3.26817   0.00824   0.00000   0.02488   0.02488   3.29304
    R2        2.56706  -0.02956   0.00000  -0.05681  -0.05673   2.51033
    R3        2.65664  -0.00297   0.00000  -0.00704  -0.00689   2.64974
    R4        2.56240  -0.01924   0.00000  -0.03694  -0.03702   2.52538
    R5        2.63587  -0.00285   0.00000  -0.00575  -0.00589   2.62998
    R6        2.04284   0.00363   0.00000   0.00996   0.00996   2.05280
    R7        2.63736  -0.00375   0.00000  -0.00585  -0.00592   2.63144
    R8        2.04171   0.00313   0.00000   0.00859   0.00859   2.05029
    R9        2.64533  -0.00572   0.00000  -0.01059  -0.01052   2.63481
   R10        2.04217   0.00307   0.00000   0.00843   0.00843   2.05061
   R11        2.87534  -0.00746   0.00000  -0.02427  -0.02427   2.85107
   R12        2.06102   0.00266   0.00000   0.00753   0.00753   2.06856
   R13        2.06049   0.00091   0.00000   0.00259   0.00259   2.06308
   R14        2.06103   0.00265   0.00000   0.00752   0.00752   2.06855
    A1        2.04347  -0.00851   0.00000  -0.03116  -0.03127   2.01221
    A2        2.10596  -0.00583   0.00000  -0.02066  -0.02076   2.08520
    A3        2.13375   0.01434   0.00000   0.05182   0.05203   2.18578
    A4        2.06803  -0.00344   0.00000  -0.02389  -0.02388   2.04415
    A5        2.14205   0.00313   0.00000   0.01132   0.01112   2.15317
    A6        2.02791  -0.00313   0.00000  -0.01513  -0.01503   2.01288
    A7        2.11322   0.00000   0.00000   0.00381   0.00391   2.11713
    A8        2.06845  -0.00250   0.00000  -0.00533  -0.00555   2.06290
    A9        2.10828   0.00035   0.00000  -0.00278  -0.00267   2.10561
   A10        2.10645   0.00215   0.00000   0.00811   0.00822   2.11467
   A11        2.08950  -0.00092   0.00000   0.00464   0.00464   2.09414
   A12        2.08820   0.00345   0.00000   0.01577   0.01577   2.10397
   A13        2.10548  -0.00253   0.00000  -0.02041  -0.02041   2.08507
   A14        2.06458  -0.01061   0.00000  -0.03857  -0.03835   2.02623
   A15        2.12452   0.00288   0.00000   0.00978   0.00967   2.13420
   A16        2.09408   0.00773   0.00000   0.02879   0.02868   2.12276
   A17        1.92187   0.00240   0.00000   0.01563   0.01557   1.93743
   A18        1.96352  -0.00508   0.00000  -0.03292  -0.03284   1.93068
   A19        1.92195   0.00240   0.00000   0.01555   0.01549   1.93744
   A20        1.89039   0.00097   0.00000   0.00380   0.00388   1.89426
   A21        1.87299  -0.00157   0.00000  -0.00499  -0.00519   1.86780
   A22        1.89048   0.00097   0.00000   0.00374   0.00381   1.89429
    D1        3.14158  -0.00000   0.00000  -0.00001  -0.00001   3.14158
    D2       -0.00006   0.00000   0.00000   0.00007   0.00007   0.00001
    D3       -3.14156  -0.00000   0.00000  -0.00002  -0.00002  -3.14158
    D4       -0.00007   0.00000   0.00000   0.00008   0.00008   0.00001
    D5        0.00008  -0.00000   0.00000  -0.00010  -0.00010  -0.00001
    D6        3.14158   0.00000   0.00000   0.00000   0.00000   3.14158
    D7        0.00003  -0.00000   0.00000  -0.00002  -0.00002   0.00001
    D8       -3.14149  -0.00000   0.00000  -0.00012  -0.00012   3.14158
    D9       -0.00002   0.00000   0.00000  -0.00000  -0.00000  -0.00002
   D10       -3.14158  -0.00000   0.00000  -0.00003  -0.00003   3.14157
   D11        3.14149   0.00000   0.00000   0.00011   0.00011  -3.14159
   D12       -0.00007   0.00000   0.00000   0.00007   0.00007  -0.00000
   D13        0.00004  -0.00000   0.00000  -0.00003  -0.00003   0.00001
   D14       -3.14156  -0.00000   0.00000  -0.00002  -0.00002  -3.14158
   D15       -3.14158   0.00000   0.00000   0.00000   0.00000  -3.14158
   D16        0.00000   0.00000   0.00000   0.00001   0.00001   0.00001
   D17       -0.00007   0.00000   0.00000   0.00008   0.00007   0.00000
   D18       -3.14157   0.00000   0.00000  -0.00002  -0.00002  -3.14159
   D19        3.14153   0.00000   0.00000   0.00007   0.00007  -3.14159
   D20        0.00004  -0.00000   0.00000  -0.00003  -0.00003   0.00001
   D21        1.03109   0.00050   0.00000   0.00640   0.00651   1.03759
   D22        3.14157   0.00000   0.00000   0.00000   0.00000   3.14158
   D23       -1.03095  -0.00051   0.00000  -0.00654  -0.00664  -1.03759
   D24       -2.11061   0.00050   0.00000   0.00650   0.00661  -2.10400
   D25       -0.00012   0.00000   0.00000   0.00010   0.00010  -0.00002
   D26        2.11055  -0.00051   0.00000  -0.00644  -0.00655   2.10400
         Item               Value     Threshold  Converged?
 Maximum Force            0.029559     0.000450     NO 
 RMS     Force            0.005786     0.000300     NO 
 Maximum Displacement     0.059738     0.001800     NO 
 RMS     Displacement     0.018962     0.001200     NO 
 Predicted change in Energy=-2.736603D-03
 GradGradGradGradGradGradGradGradGradGradGradGradGradGradGradGradGradGrad

                          Input orientation:                          
 ---------------------------------------------------------------------
 Center     Atomic      Atomic             Coordinates (Angstroms)
 Number     Number       Type             X           Y           Z
 ---------------------------------------------------------------------
      1         17           0       -1.374921   -2.483925   -0.413790
      2          6           0       -0.164776   -1.243588   -0.230012
      3          7           0        1.092030   -1.652780   -0.362940
      4          6           0        2.050255   -0.730964   -0.228945
      5          6           0        1.790469    0.609953    0.038185
      6          6           0        0.463110    1.008953    0.172237
      7          6           0       -0.562485    0.073897    0.038652
      8          6           0       -2.012959    0.465458    0.176656
      9          1           0        3.066593   -1.097094   -0.343148
     10          1           0        2.603433    1.321430    0.138421
     11          1           0        0.216996    2.045063    0.380617
     12          1           0       -2.493702   -0.089541    0.988495
     13          1           0       -2.104840    1.533307    0.384369
     14          1           0       -2.569104    0.239932   -0.738796
 ---------------------------------------------------------------------
                    Distance matrix (angstroms):
                    1          2          3          4          5
     1  Cl   0.000000
     2  C    1.742602   0.000000
     3  N    2.603697   1.328409   0.000000
     4  C    3.852126   2.273576   1.336374   0.000000
     5  C    4.449276   2.707494   2.401807   1.391727   0.000000
     6  C    3.990236   2.372759   2.786894   2.388993   1.392499
     7  C    2.721619   1.402184   2.424894   2.746966   2.413244
     8  C    3.074830   2.549902   3.797243   4.255073   3.808690
     9  H    4.653529   3.236665   2.051359   1.086294   2.165159
    10  H    5.532899   3.791839   3.373667   2.157148   1.084969
    11  H    4.865903   3.366577   3.872028   3.382119   2.156992
    12  H    2.991847   2.870624   4.138547   4.747751   4.443704
    13  H    4.160287   3.442740   4.574888   4.771571   4.018191
    14  H    2.991839   2.870625   4.138543   4.747744   4.443703
                    6          7          8          9         10
     6  C    0.000000
     7  C    1.394281   0.000000
     8  C    2.535019   1.508721   0.000000
     9  H    3.388093   3.832388   5.339813   0.000000
    10  H    2.163278   3.404311   4.695234   2.509120   0.000000
    11  H    1.085135   2.147097   2.740338   4.303159   2.505471
    12  H    3.258175   2.158359   1.094633   5.805628   5.356702
    13  H    2.629508   2.151338   1.091736   5.847393   4.719451
    14  H    3.258174   2.158359   1.094629   5.805623   5.356705
                   11         12         13         14
    11  H    0.000000
    12  H    3.503418   0.000000
    13  H    2.377569   1.774772   0.000000
    14  H    3.503418   1.760049   1.774784   0.000000
 Stoichiometry    C6H6ClN
 Framework group  C1[X(C6H6ClN)]
 Deg. of freedom    36
 Full point group                 C1      NOp   1
 Largest Abelian subgroup         C1      NOp   1
 Largest concise Abelian subgroup C1      NOp   1
                         Standard orientation:                         
 ---------------------------------------------------------------------
 Center     Atomic      Atomic             Coordinates (Angstroms)
 Number     Number       Type             X           Y           Z
 ---------------------------------------------------------------------
      1         17           0        2.051880   -0.706759    0.000002
      2          6           0        0.338349   -0.389779   -0.000011
      3          7           0       -0.438175   -1.467591   -0.000002
      4          6           0       -1.759348   -1.266599    0.000008
      5          6           0       -2.341286   -0.002379   -0.000001
      6          6           0       -1.501571    1.108446    0.000002
      7          6           0       -0.117987    0.936071   -0.000002
      8          6           0        0.825880    2.113082    0.000004
      9          1           0       -2.366478   -2.167391    0.000003
     10          1           0       -3.420459    0.109626   -0.000012
     11          1           0       -1.914458    2.111961    0.000004
     12          1           0        1.476585    2.094266   -0.880024
     13          1           0        0.269267    3.052268   -0.000005
     14          1           0        1.476587    2.094259    0.880025
 ---------------------------------------------------------------------
 Rotational constants (GHZ):           2.8788730           1.5943335           1.0326291
 Standard basis: 6-31G(d,p) (6D, 7F)
 There are   154 symmetry adapted cartesian basis functions of A   symmetry.
 There are   154 symmetry adapted basis functions of A   symmetry.
   154 basis functions,   290 primitive gaussians,   154 cartesian basis functions
    33 alpha electrons       33 beta electrons
       nuclear repulsion energy       406.9773834637 Hartrees.
 NAtoms=   14 NActive=   14 NUniq=   14 SFac= 1.00D+00 NAtFMM=   60 NAOKFM=F Big=F
 Integral buffers will be    131072 words long.
 Raffenetti 2 integral format.
 Two-electron integral symmetry is turned on.
 Nuclear repulsion after empirical dispersion term =      406.9506329198 Hartrees.
 One-electron integrals computed using PRISM.
 NBasis=   154 RedAO= T EigKep=  7.50D-04  NBF=   154
 NBsUse=   154 1.00D-06 EigRej= -1.00D+00 NBFU=   154
 Initial guess from the checkpoint file:  "pyrd2_conf-1.chk"
 B after Tr=    -0.000000    0.000000    0.000000
         Rot=    0.999999   -0.000000    0.000000    0.001286 Ang=  -0.15 deg.
 ExpMin= 1.43D-01 ExpMax= 2.52D+04 ExpMxC= 3.78D+03 IAcc=3 IRadAn=         5 AccDes= 0.00D+00
 Harris functional with IExCor=  402 and IRadAn=       5 diagonalized for initial guess.
 HarFok:  IExCor=  402 AccDes= 0.00D+00 IRadAn=         5 IDoV= 1 UseB2=F ITyADJ=14
 ICtDFT=  3500011 ScaDFX=  1.000000  1.000000  1.000000  1.000000
 FoFCou: FMM=F IPFlag=           0 FMFlag=      100000 FMFlg1=           0
         NFxFlg=           0 DoJE=T BraDBF=F KetDBF=T FulRan=T
         wScrn=  0.000000 ICntrl=       500 IOpCl=  0 I1Cent=   200000004 NGrid=           0
         NMat0=    1 NMatS0=      1 NMatT0=    0 NMatD0=    1 NMtDS0=    0 NMtDT0=    0
 Petite list used in FoFCou.
 Requested convergence on RMS density matrix=1.00D-08 within 128 cycles.
 Requested convergence on MAX density matrix=1.00D-06.
 Requested convergence on             energy=1.00D-06.
 No special actions if energy rises.
 Integral accuracy reduced to 1.0D-05 until final iterations.
 Initial convergence to 1.0D-05 achieved.  Increase integral accuracy.
 SCF Done:  E(RB3LYP) =  -747.237427144     A.U. after   12 cycles
            NFock= 12  Conv=0.56D-08     -V/T= 2.0056
 Calling FoFJK, ICntrl=      2127 FMM=F ISym2X=0 I1Cent= 0 IOpClX= 0 NMat=1 NMatS=1 NMatT=0.
 ***** Axes restored to original set *****
 -------------------------------------------------------------------
 Center     Atomic                   Forces (Hartrees/Bohr)
 Number     Number              X              Y              Z
 -------------------------------------------------------------------
      1       17          -0.007186042   -0.005491128   -0.000733073
      2        6           0.013650505    0.001484668   -0.000314979
      3        7          -0.007181820    0.002276866    0.000747615
      4        6           0.002864751   -0.000118489   -0.000145220
      5        6           0.001134026    0.000860083    0.000114197
      6        6           0.002842453   -0.001437221   -0.000397593
      7        6          -0.008934608    0.002337244    0.000835842
      8        6           0.002661995   -0.001340963   -0.000368059
      9        1           0.001114742    0.000897314    0.000121944
     10        1          -0.000050882   -0.000434310   -0.000081296
     11        1          -0.000484019    0.000443188    0.000105708
     12        1          -0.000200952    0.000087411   -0.000247012
     13        1          -0.000050805    0.000447268    0.000086285
     14        1          -0.000179345   -0.000011931    0.000275641
 -------------------------------------------------------------------
 Cartesian Forces:  Max     0.013650505 RMS     0.003262385

 GradGradGradGradGradGradGradGradGradGradGradGradGradGradGradGradGradGrad
 Berny optimization.
 Using GEDIIS/GDIIS optimizer.
 FormGI is forming the generalized inverse of G from B-inverse, IUseBI=4.
 Internal  Forces:  Max     0.008975976 RMS     0.001623155
 Search for a local minimum.
 Step number   2 out of a maximum of   72
 All quantities printed in internal units (Hartrees-Bohrs-Radians)
 Mixed Optimization -- RFO/linear search
 Update second derivatives using D2CorX and points    1    2
 DE= -2.97D-03 DEPred=-2.74D-03 R= 1.09D+00
 TightC=F SS=  1.41D+00  RLast= 1.28D-01 DXNew= 5.0454D-01 3.8428D-01
 Trust test= 1.09D+00 RLast= 1.28D-01 DXMaxT set to 3.84D-01
 ITU=  1  0
 Use linear search instead of GDIIS.
     Eigenvalues ---    0.00481   0.01383   0.02058   0.02089   0.02118
     Eigenvalues ---    0.02145   0.02152   0.02192   0.02228   0.07079
     Eigenvalues ---    0.07124   0.15494   0.16000   0.16000   0.16000
     Eigenvalues ---    0.16000   0.16259   0.20868   0.22190   0.24313
     Eigenvalues ---    0.24998   0.26133   0.29412   0.31751   0.34738
     Eigenvalues ---    0.34765   0.34852   0.35858   0.35907   0.36072
     Eigenvalues ---    0.41930   0.43215   0.45481   0.46307   0.50656
     Eigenvalues ---    0.58231
 RFO step:  Lambda=-5.54979532D-04 EMin= 4.80679395D-03
 Quartic linear search produced a step of  0.09111.
 Iteration  1 RMS(Cart)=  0.00552509 RMS(Int)=  0.00002204
 Iteration  2 RMS(Cart)=  0.00003450 RMS(Int)=  0.00001071
 Iteration  3 RMS(Cart)=  0.00000000 RMS(Int)=  0.00001071
 Variable       Old X    -DE/DX   Delta X   Delta X   Delta X     New X
                                 (Linear)    (Quad)   (Total)
    R1        3.29304   0.00898   0.00227   0.03016   0.03243   3.32547
    R2        2.51033  -0.00411  -0.00517  -0.00905  -0.01421   2.49612
    R3        2.64974   0.00225  -0.00063   0.00529   0.00468   2.65442
    R4        2.52538   0.00291  -0.00337   0.00556   0.00217   2.52755
    R5        2.62998  -0.00041  -0.00054  -0.00085  -0.00141   2.62858
    R6        2.05280   0.00073   0.00091   0.00228   0.00318   2.05598
    R7        2.63144   0.00098  -0.00054   0.00245   0.00190   2.63334
    R8        2.05029  -0.00033   0.00078  -0.00094  -0.00016   2.05013
    R9        2.63481   0.00260  -0.00096   0.00615   0.00520   2.64001
   R10        2.05061   0.00055   0.00077   0.00173   0.00250   2.05311
   R11        2.85107  -0.00238  -0.00221  -0.00871  -0.01092   2.84015
   R12        2.06856  -0.00014   0.00069  -0.00039   0.00030   2.06885
   R13        2.06308   0.00046   0.00024   0.00145   0.00169   2.06477
   R14        2.06855  -0.00014   0.00069  -0.00038   0.00030   2.06885
    A1        2.01221   0.00189  -0.00285   0.00840   0.00554   2.01775
    A2        2.08520  -0.00247  -0.00189  -0.01057  -0.01247   2.07273
    A3        2.18578   0.00058   0.00474   0.00216   0.00693   2.19271
    A4        2.04415   0.00230  -0.00218   0.00938   0.00720   2.05135
    A5        2.15317  -0.00166   0.00101  -0.00787  -0.00688   2.14628
    A6        2.01288   0.00210  -0.00137   0.01258   0.01123   2.02411
    A7        2.11713  -0.00044   0.00036  -0.00471  -0.00434   2.11279
    A8        2.06290  -0.00048  -0.00051  -0.00161  -0.00214   2.06076
    A9        2.10561  -0.00007  -0.00024  -0.00126  -0.00149   2.10412
   A10        2.11467   0.00054   0.00075   0.00287   0.00363   2.11830
   A11        2.09414   0.00173   0.00042   0.00908   0.00951   2.10365
   A12        2.10397  -0.00049   0.00144  -0.00199  -0.00055   2.10342
   A13        2.08507  -0.00124  -0.00186  -0.00710  -0.00896   2.07612
   A14        2.02623  -0.00248  -0.00349  -0.01115  -0.01461   2.01161
   A15        2.13420   0.00110   0.00088   0.00494   0.00581   2.14001
   A16        2.12276   0.00138   0.00261   0.00621   0.00880   2.13156
   A17        1.93743   0.00030   0.00142   0.00189   0.00330   1.94074
   A18        1.93068  -0.00007  -0.00299  -0.00020  -0.00318   1.92750
   A19        1.93744   0.00030   0.00141   0.00189   0.00329   1.94073
   A20        1.89426  -0.00009   0.00035  -0.00037  -0.00001   1.89426
   A21        1.86780  -0.00037  -0.00047  -0.00298  -0.00348   1.86433
   A22        1.89429  -0.00009   0.00035  -0.00039  -0.00003   1.89425
    D1        3.14158   0.00000  -0.00000   0.00004   0.00004  -3.14157
    D2        0.00001  -0.00000   0.00001  -0.00002  -0.00002  -0.00001
    D3       -3.14158  -0.00000  -0.00000  -0.00003  -0.00003   3.14157
    D4        0.00001  -0.00000   0.00001  -0.00004  -0.00003  -0.00002
    D5       -0.00001   0.00000  -0.00001   0.00004   0.00003   0.00002
    D6        3.14158   0.00000   0.00000   0.00002   0.00002  -3.14158
    D7        0.00001  -0.00000  -0.00000  -0.00001  -0.00002  -0.00001
    D8        3.14158   0.00000  -0.00001   0.00004   0.00003  -3.14158
    D9       -0.00002   0.00000  -0.00000   0.00003   0.00003   0.00002
   D10        3.14157   0.00000  -0.00000   0.00004   0.00003  -3.14158
   D11       -3.14159  -0.00000   0.00001  -0.00002  -0.00001   3.14159
   D12       -0.00000  -0.00000   0.00001  -0.00002  -0.00001  -0.00001
   D13        0.00001  -0.00000  -0.00000  -0.00002  -0.00002  -0.00001
   D14       -3.14158  -0.00000  -0.00000  -0.00001  -0.00001   3.14159
   D15       -3.14158  -0.00000   0.00000  -0.00002  -0.00002   3.14159
   D16        0.00001  -0.00000   0.00000  -0.00001  -0.00001  -0.00000
   D17        0.00000  -0.00000   0.00001  -0.00001  -0.00001  -0.00001
   D18       -3.14159  -0.00000  -0.00000  -0.00000  -0.00000   3.14159
   D19       -3.14159  -0.00000   0.00001  -0.00002  -0.00001   3.14158
   D20        0.00001  -0.00000  -0.00000  -0.00001  -0.00001  -0.00000
   D21        1.03759  -0.00003   0.00059  -0.00064  -0.00003   1.03756
   D22        3.14158   0.00000   0.00000   0.00002   0.00002  -3.14159
   D23       -1.03759   0.00003  -0.00061   0.00064   0.00003  -1.03757
   D24       -2.10400  -0.00003   0.00060  -0.00065  -0.00004  -2.10404
   D25       -0.00002   0.00000   0.00001   0.00000   0.00001  -0.00000
   D26        2.10400   0.00003  -0.00060   0.00063   0.00002   2.10402
         Item               Value     Threshold  Converged?
 Maximum Force            0.008976     0.000450     NO 
 RMS     Force            0.001623     0.000300     NO 
 Maximum Displacement     0.025447     0.001800     NO 
 RMS     Displacement     0.005527     0.001200     NO 
 Predicted change in Energy=-3.036317D-04
 GradGradGradGradGradGradGradGradGradGradGradGradGradGradGradGradGradGrad

                          Input orientation:                          
 ---------------------------------------------------------------------
 Center     Atomic      Atomic             Coordinates (Angstroms)
 Number     Number       Type             X           Y           Z
 ---------------------------------------------------------------------
      1         17           0       -1.388387   -2.487392   -0.413848
      2          6           0       -0.160090   -1.240740   -0.229696
      3          7           0        1.089855   -1.646883   -0.361725
      4          6           0        2.055029   -0.730475   -0.229044
      5          6           0        1.794998    0.609653    0.037930
      6          6           0        0.465675    1.005770    0.171521
      7          6           0       -0.568616    0.076001    0.039317
      8          6           0       -2.014231    0.463618    0.176366
      9          1           0        3.074693   -1.092526   -0.342625
     10          1           0        2.608766    1.320114    0.137923
     11          1           0        0.217287    2.042674    0.380153
     12          1           0       -2.497488   -0.090659    0.987419
     13          1           0       -2.104594    1.532484    0.384205
     14          1           0       -2.572797    0.238460   -0.737895
 ---------------------------------------------------------------------
                    Distance matrix (angstroms):
                    1          2          3          4          5
     1  Cl   0.000000
     2  C    1.759764   0.000000
     3  N    2.617414   1.320888   0.000000
     4  C    3.870146   2.273131   1.337524   0.000000
     5  C    4.464273   2.705170   2.397688   1.390983   0.000000
     6  C    3.997798   2.366298   2.776783   2.387686   1.393505
     7  C    2.729170   1.404660   2.424807   2.757886   2.423109
     8  C    3.073840   2.550992   3.791979   4.260175   3.814540
     9  H    4.676517   3.240146   2.060888   1.087978   2.163297
    10  H    5.547863   3.789417   3.370432   2.155505   1.084884
    11  H    4.871358   3.360824   3.863236   3.382125   2.158666
    12  H    2.989647   2.875324   4.136551   4.755477   4.451674
    13  H    4.160438   3.442200   4.568292   4.774884   4.022231
    14  H    2.989667   2.875319   4.136550   4.755475   4.451665
                    6          7          8          9         10
     6  C    0.000000
     7  C    1.397035   0.000000
     8  C    2.538481   1.502941   0.000000
     9  H    3.387354   3.845132   5.346783   0.000000
    10  H    2.166282   3.413692   4.701825   2.503767   0.000000
    11  H    1.086459   2.145138   2.741281   4.303099   2.509968
    12  H    3.263155   2.155741   1.094791   5.815665   5.365235
    13  H    2.632289   2.144649   1.092628   5.851835   4.724565
    14  H    3.263145   2.155736   1.094790   5.815661   5.365224
                   11         12         13         14
    11  H    0.000000
    12  H    3.505693   0.000000
    13  H    2.377276   1.775619   0.000000
    14  H    3.505680   1.758038   1.775618   0.000000
 Stoichiometry    C6H6ClN
 Framework group  C1[X(C6H6ClN)]
 Deg. of freedom    36
 Full point group                 C1      NOp   1
 Largest Abelian subgroup         C1      NOp   1
 Largest concise Abelian subgroup C1      NOp   1
                         Standard orientation:                         
 ---------------------------------------------------------------------
 Center     Atomic      Atomic             Coordinates (Angstroms)
 Number     Number       Type             X           Y           Z
 ---------------------------------------------------------------------
      1         17           0        2.059656   -0.711158   -0.000005
      2          6           0        0.328920   -0.392848    0.000016
      3          7           0       -0.448031   -1.461068    0.000007
      4          6           0       -1.770878   -1.263465   -0.000007
      5          6           0       -2.347204    0.002505   -0.000003
      6          6           0       -1.499864    1.108791   -0.000003
      7          6           0       -0.113004    0.940483    0.000002
      8          6           0        0.833827    2.107678    0.000001
      9          1           0       -2.386625   -2.160433   -0.000001
     10          1           0       -3.425986    0.117412   -0.000003
     11          1           0       -1.907442    2.115902   -0.000004
     12          1           0        1.486150    2.088204   -0.879012
     13          1           0        0.279059    3.048991   -0.000010
     14          1           0        1.486130    2.088213    0.879027
 ---------------------------------------------------------------------
 Rotational constants (GHZ):           2.8849109           1.5831708           1.0286886
 Standard basis: 6-31G(d,p) (6D, 7F)
 There are   154 symmetry adapted cartesian basis functions of A   symmetry.
 There are   154 symmetry adapted basis functions of A   symmetry.
   154 basis functions,   290 primitive gaussians,   154 cartesian basis functions
    33 alpha electrons       33 beta electrons
       nuclear repulsion energy       406.4073884738 Hartrees.
 NAtoms=   14 NActive=   14 NUniq=   14 SFac= 1.00D+00 NAtFMM=   60 NAOKFM=F Big=F
 Integral buffers will be    131072 words long.
 Raffenetti 2 integral format.
 Two-electron integral symmetry is turned on.
 Nuclear repulsion after empirical dispersion term =      406.3806658324 Hartrees.
 One-electron integrals computed using PRISM.
 NBasis=   154 RedAO= T EigKep=  7.49D-04  NBF=   154
 NBsUse=   154 1.00D-06 EigRej= -1.00D+00 NBFU=   154
 Initial guess from the checkpoint file:  "pyrd2_conf-1.chk"
 B after Tr=    -0.000000   -0.000000    0.000000
         Rot=    0.999999    0.000000    0.000000    0.001428 Ang=   0.16 deg.
 ExpMin= 1.43D-01 ExpMax= 2.52D+04 ExpMxC= 3.78D+03 IAcc=3 IRadAn=         5 AccDes= 0.00D+00
 Harris functional with IExCor=  402 and IRadAn=       5 diagonalized for initial guess.
 HarFok:  IExCor=  402 AccDes= 0.00D+00 IRadAn=         5 IDoV= 1 UseB2=F ITyADJ=14
 ICtDFT=  3500011 ScaDFX=  1.000000  1.000000  1.000000  1.000000
 FoFCou: FMM=F IPFlag=           0 FMFlag=      100000 FMFlg1=           0
         NFxFlg=           0 DoJE=T BraDBF=F KetDBF=T FulRan=T
         wScrn=  0.000000 ICntrl=       500 IOpCl=  0 I1Cent=   200000004 NGrid=           0
         NMat0=    1 NMatS0=      1 NMatT0=    0 NMatD0=    1 NMtDS0=    0 NMtDT0=    0
 Petite list used in FoFCou.
 Requested convergence on RMS density matrix=1.00D-08 within 128 cycles.
 Requested convergence on MAX density matrix=1.00D-06.
 Requested convergence on             energy=1.00D-06.
 No special actions if energy rises.
 Integral accuracy reduced to 1.0D-05 until final iterations.
 Initial convergence to 1.0D-05 achieved.  Increase integral accuracy.
 SCF Done:  E(RB3LYP) =  -747.237794258     A.U. after   11 cycles
            NFock= 11  Conv=0.72D-08     -V/T= 2.0056
 Calling FoFJK, ICntrl=      2127 FMM=F ISym2X=0 I1Cent= 0 IOpClX= 0 NMat=1 NMatS=1 NMatT=0.
 ***** Axes restored to original set *****
 -------------------------------------------------------------------
 Center     Atomic                   Forces (Hartrees/Bohr)
 Number     Number              X              Y              Z
 -------------------------------------------------------------------
      1       17          -0.002274330   -0.001819662   -0.000248766
      2        6           0.004219544    0.000292287   -0.000125267
      3        7          -0.002678796   -0.000387676    0.000042952
      4        6           0.002635543    0.000593591   -0.000004312
      5        6           0.000065449    0.000056882    0.000008705
      6        6          -0.000364295    0.000336863    0.000079691
      7        6          -0.001186924    0.000275993    0.000103782
      8        6           0.000413263    0.000487397    0.000075061
      9        1          -0.000515934    0.000188948    0.000059244
     10        1          -0.000394615   -0.000062556    0.000005513
     11        1           0.000171600   -0.000066702   -0.000020065
     12        1           0.000134173    0.000102701   -0.000154243
     13        1          -0.000372121   -0.000038933    0.000008866
     14        1           0.000147444    0.000040865    0.000168838
 -------------------------------------------------------------------
 Cartesian Forces:  Max     0.004219544 RMS     0.001023432

 GradGradGradGradGradGradGradGradGradGradGradGradGradGradGradGradGradGrad
 Berny optimization.
 Using GEDIIS/GDIIS optimizer.
 FormGI is forming the generalized inverse of G from B-inverse, IUseBI=4.
 Internal  Forces:  Max     0.002902487 RMS     0.000538795
 Search for a local minimum.
 Step number   3 out of a maximum of   72
 All quantities printed in internal units (Hartrees-Bohrs-Radians)
 Mixed Optimization -- En-DIIS/RFO-DIIS
 Update second derivatives using D2CorX and points    1    2    3
 DE= -3.67D-04 DEPred=-3.04D-04 R= 1.21D+00
 TightC=F SS=  1.41D+00  RLast= 4.99D-02 DXNew= 6.4628D-01 1.4969D-01
 Trust test= 1.21D+00 RLast= 4.99D-02 DXMaxT set to 3.84D-01
 ITU=  1  1  0
 Use linear search instead of GDIIS.
     Eigenvalues ---    0.00481   0.01375   0.02058   0.02090   0.02118
     Eigenvalues ---    0.02145   0.02152   0.02193   0.02228   0.07083
     Eigenvalues ---    0.07099   0.15621   0.16000   0.16000   0.16000
     Eigenvalues ---    0.16227   0.16455   0.17609   0.22306   0.24203
     Eigenvalues ---    0.25326   0.26116   0.28045   0.30729   0.34738
     Eigenvalues ---    0.34772   0.34820   0.35906   0.35963   0.36250
     Eigenvalues ---    0.41876   0.43677   0.45593   0.46269   0.50119
     Eigenvalues ---    0.57989
 RFO step:  Lambda=-3.46631381D-05 EMin= 4.80679394D-03
 Quartic linear search produced a step of  0.30467.
 Iteration  1 RMS(Cart)=  0.00214446 RMS(Int)=  0.00000330
 Iteration  2 RMS(Cart)=  0.00000591 RMS(Int)=  0.00000117
 Iteration  3 RMS(Cart)=  0.00000000 RMS(Int)=  0.00000117
 Variable       Old X    -DE/DX   Delta X   Delta X   Delta X     New X
                                 (Linear)    (Quad)   (Total)
    R1        3.32547   0.00290   0.00988   0.00458   0.01446   3.33993
    R2        2.49612  -0.00116  -0.00433  -0.00147  -0.00580   2.49031
    R3        2.65442   0.00121   0.00143   0.00201   0.00344   2.65786
    R4        2.52755   0.00185   0.00066   0.00260   0.00326   2.53082
    R5        2.62858   0.00026  -0.00043   0.00093   0.00050   2.62907
    R6        2.05598  -0.00055   0.00097  -0.00237  -0.00140   2.05458
    R7        2.63334   0.00019   0.00058  -0.00018   0.00040   2.63374
    R8        2.05013  -0.00034  -0.00005  -0.00084  -0.00089   2.04924
    R9        2.64001   0.00003   0.00159  -0.00168  -0.00009   2.63993
   R10        2.05311  -0.00011   0.00076  -0.00067   0.00009   2.05320
   R11        2.84015  -0.00015  -0.00333   0.00109  -0.00224   2.83791
   R12        2.06885  -0.00023   0.00009  -0.00063  -0.00053   2.06832
   R13        2.06477  -0.00001   0.00051  -0.00033   0.00018   2.06495
   R14        2.06885  -0.00022   0.00009  -0.00062  -0.00053   2.06832
    A1        2.01775   0.00050   0.00169   0.00015   0.00184   2.01959
    A2        2.07273  -0.00066  -0.00380  -0.00110  -0.00490   2.06783
    A3        2.19271   0.00016   0.00211   0.00094   0.00305   2.19576
    A4        2.05135   0.00021   0.00219  -0.00114   0.00105   2.05240
    A5        2.14628  -0.00062  -0.00210  -0.00115  -0.00325   2.14304
    A6        2.02411   0.00032   0.00342  -0.00154   0.00188   2.02599
    A7        2.11279   0.00030  -0.00132   0.00269   0.00136   2.11416
    A8        2.06076   0.00029  -0.00065   0.00214   0.00149   2.06225
    A9        2.10412   0.00008  -0.00045   0.00111   0.00066   2.10478
   A10        2.11830  -0.00036   0.00111  -0.00325  -0.00215   2.11615
   A11        2.10365   0.00011   0.00290  -0.00172   0.00117   2.10482
   A12        2.10342  -0.00021  -0.00017  -0.00073  -0.00090   2.10252
   A13        2.07612   0.00010  -0.00273   0.00245  -0.00028   2.07584
   A14        2.01161  -0.00015  -0.00445   0.00093  -0.00352   2.00809
   A15        2.14001   0.00060   0.00177   0.00223   0.00399   2.14400
   A16        2.13156  -0.00045   0.00268  -0.00315  -0.00047   2.13109
   A17        1.94074  -0.00015   0.00101  -0.00169  -0.00068   1.94005
   A18        1.92750   0.00059  -0.00097   0.00481   0.00384   1.93135
   A19        1.94073  -0.00015   0.00100  -0.00168  -0.00068   1.94005
   A20        1.89426  -0.00017  -0.00000  -0.00077  -0.00077   1.89348
   A21        1.86433   0.00004  -0.00106  -0.00006  -0.00112   1.86320
   A22        1.89425  -0.00017  -0.00001  -0.00077  -0.00078   1.89348
    D1       -3.14157  -0.00000   0.00001  -0.00007  -0.00006   3.14156
    D2       -0.00001   0.00000  -0.00000   0.00003   0.00003   0.00002
    D3        3.14157   0.00000  -0.00001   0.00006   0.00005  -3.14156
    D4       -0.00002   0.00000  -0.00001   0.00007   0.00005   0.00003
    D5        0.00002  -0.00000   0.00001  -0.00005  -0.00004  -0.00002
    D6       -3.14158  -0.00000   0.00001  -0.00004  -0.00003   3.14157
    D7       -0.00001   0.00000  -0.00000   0.00002   0.00001   0.00001
    D8       -3.14158  -0.00000   0.00001  -0.00004  -0.00003   3.14157
    D9        0.00002  -0.00000   0.00001  -0.00004  -0.00003  -0.00002
   D10       -3.14158  -0.00000   0.00001  -0.00003  -0.00002   3.14158
   D11        3.14159   0.00000  -0.00000   0.00002   0.00001  -3.14159
   D12       -0.00001   0.00000  -0.00000   0.00003   0.00002   0.00001
   D13       -0.00001   0.00000  -0.00001   0.00002   0.00002   0.00001
   D14        3.14159   0.00000  -0.00000   0.00002   0.00001  -3.14158
   D15        3.14159   0.00000  -0.00001   0.00001   0.00001  -3.14159
   D16       -0.00000   0.00000  -0.00000   0.00001   0.00000   0.00000
   D17       -0.00001   0.00000  -0.00000   0.00002   0.00002   0.00001
   D18        3.14159   0.00000  -0.00000   0.00001   0.00001  -3.14158
   D19        3.14158   0.00000  -0.00000   0.00003   0.00002  -3.14158
   D20       -0.00000   0.00000  -0.00000   0.00002   0.00001   0.00001
   D21        1.03756  -0.00008  -0.00001  -0.00114  -0.00115   1.03641
   D22       -3.14159  -0.00000   0.00000  -0.00000   0.00000  -3.14159
   D23       -1.03757   0.00008   0.00001   0.00115   0.00115  -1.03641
   D24       -2.10404  -0.00008  -0.00001  -0.00113  -0.00114  -2.10518
   D25       -0.00000  -0.00000   0.00000   0.00001   0.00001   0.00001
   D26        2.10402   0.00008   0.00001   0.00116   0.00116   2.10518
         Item               Value     Threshold  Converged?
 Maximum Force            0.002902     0.000450     NO 
 RMS     Force            0.000539     0.000300     NO 
 Maximum Displacement     0.009203     0.001800     NO 
 RMS     Displacement     0.002144     0.001200     NO 
 Predicted change in Energy=-3.749180D-05
 GradGradGradGradGradGradGradGradGradGradGradGradGradGradGradGradGradGrad

                          Input orientation:                          
 ---------------------------------------------------------------------
 Center     Atomic      Atomic             Coordinates (Angstroms)
 Number     Number       Type             X           Y           Z
 ---------------------------------------------------------------------
      1         17           0       -1.393257   -2.490827   -0.414323
      2          6           0       -0.156888   -1.241370   -0.229922
      3          7           0        1.090015   -1.646958   -0.361739
      4          6           0        2.057703   -0.730655   -0.229212
      5          6           0        1.795062    0.609220    0.037844
      6          6           0        0.465377    1.004892    0.171370
      7          6           0       -0.569617    0.075948    0.039360
      8          6           0       -2.013581    0.465056    0.176612
      9          1           0        3.076864   -1.091947   -0.342616
     10          1           0        2.606660    1.321380    0.138259
     11          1           0        0.217517    2.041971    0.380013
     12          1           0       -2.496864   -0.089620    0.986994
     13          1           0       -2.106763    1.533765    0.384522
     14          1           0       -2.572127    0.239245   -0.737163
 ---------------------------------------------------------------------
                    Distance matrix (angstroms):
                    1          2          3          4          5
     1  Cl   0.000000
     2  C    1.767415   0.000000
     3  N    2.623265   1.317817   0.000000
     4  C    3.878350   2.272717   1.339251   0.000000
     5  C    4.469913   2.703052   2.397310   1.391246   0.000000
     6  C    4.002200   2.365151   2.776091   2.389161   1.393717
     7  C    2.733596   1.406480   2.425626   2.761440   2.424064
     8  C    3.077540   2.554304   3.792457   4.262601   3.813895
     9  H    4.684442   3.239164   2.063001   1.087236   2.163732
    10  H    5.553162   3.786878   3.370644   2.155745   1.084411
    11  H    4.875635   3.360436   3.862595   3.383030   2.158356
    12  H    2.991226   2.878003   4.136433   4.757537   4.450830
    13  H    4.164684   3.446873   4.570918   4.779858   4.024824
    14  H    2.991196   2.878002   4.136421   4.757525   4.450826
                    6          7          8          9         10
     6  C    0.000000
     7  C    1.396988   0.000000
     8  C    2.537062   1.501757   0.000000
     9  H    3.388330   3.847949   5.348503   0.000000
    10  H    2.164798   3.413154   4.699083   2.505290   0.000000
    11  H    1.086508   2.144964   2.739677   4.303428   2.507129
    12  H    3.261606   2.153997   1.094508   5.817127   5.362577
    13  H    2.634587   2.146435   1.092725   5.856030   4.724628
    14  H    3.261606   2.153996   1.094508   5.817116   5.362575
                   11         12         13         14
    11  H    0.000000
    12  H    3.504279   0.000000
    13  H    2.379195   1.774974   0.000000
    14  H    3.504285   1.756853   1.774972   0.000000
 Stoichiometry    C6H6ClN
 Framework group  C1[X(C6H6ClN)]
 Deg. of freedom    36
 Full point group                 C1      NOp   1
 Largest Abelian subgroup         C1      NOp   1
 Largest concise Abelian subgroup C1      NOp   1
                         Standard orientation:                         
 ---------------------------------------------------------------------
 Center     Atomic      Atomic             Coordinates (Angstroms)
 Number     Number       Type             X           Y           Z
 ---------------------------------------------------------------------
      1         17           0        2.064785   -0.710003    0.000007
      2          6           0        0.325704   -0.394802   -0.000026
      3          7           0       -0.448649   -1.461113   -0.000009
      4          6           0       -1.773557   -1.265631    0.000010
      5          6           0       -2.348151    0.001415    0.000005
      6          6           0       -1.500721    1.107900    0.000002
      7          6           0       -0.113705    0.941276   -0.000007
      8          6           0        0.830415    2.109142    0.000000
      9          1           0       -2.388966   -2.161932    0.000005
     10          1           0       -3.426217    0.118548    0.000009
     11          1           0       -1.909256    2.114676    0.000006
     12          1           0        1.483042    2.089524   -0.878430
     13          1           0        0.277634    3.051736    0.000019
     14          1           0        1.483053    2.089501    0.878423
 ---------------------------------------------------------------------
 Rotational constants (GHZ):           2.8828086           1.5789800           1.0266424
 Standard basis: 6-31G(d,p) (6D, 7F)
 There are   154 symmetry adapted cartesian basis functions of A   symmetry.
 There are   154 symmetry adapted basis functions of A   symmetry.
   154 basis functions,   290 primitive gaussians,   154 cartesian basis functions
    33 alpha electrons       33 beta electrons
       nuclear repulsion energy       406.0895370108 Hartrees.
 NAtoms=   14 NActive=   14 NUniq=   14 SFac= 1.00D+00 NAtFMM=   60 NAOKFM=F Big=F
 Integral buffers will be    131072 words long.
 Raffenetti 2 integral format.
 Two-electron integral symmetry is turned on.
 Nuclear repulsion after empirical dispersion term =      406.0628294037 Hartrees.
 One-electron integrals computed using PRISM.
 NBasis=   154 RedAO= T EigKep=  7.50D-04  NBF=   154
 NBsUse=   154 1.00D-06 EigRej= -1.00D+00 NBFU=   154
 Initial guess from the checkpoint file:  "pyrd2_conf-1.chk"
 B after Tr=    -0.000000    0.000000   -0.000000
         Rot=    1.000000   -0.000000   -0.000000   -0.000358 Ang=  -0.04 deg.
 Requested convergence on RMS density matrix=1.00D-08 within 128 cycles.
 Requested convergence on MAX density matrix=1.00D-06.
 Requested convergence on             energy=1.00D-06.
 No special actions if energy rises.
 SCF Done:  E(RB3LYP) =  -747.237835483     A.U. after   10 cycles
            NFock= 10  Conv=0.45D-08     -V/T= 2.0056
 Calling FoFJK, ICntrl=      2127 FMM=F ISym2X=0 I1Cent= 0 IOpClX= 0 NMat=1 NMatS=1 NMatT=0.
 ***** Axes restored to original set *****
 -------------------------------------------------------------------
 Center     Atomic                   Forces (Hartrees/Bohr)
 Number     Number              X              Y              Z
 -------------------------------------------------------------------
      1       17          -0.000279450   -0.000156223   -0.000016089
      2        6           0.000041278    0.000209554    0.000033126
      3        7          -0.000470938   -0.000414130   -0.000057919
      4        6           0.000872871    0.000937820    0.000143810
      5        6           0.000260787   -0.000585495   -0.000123760
      6        6          -0.000663026    0.000300580    0.000086747
      7        6           0.000499584   -0.000259391   -0.000069918
      8        6          -0.000245903    0.000159798    0.000040807
      9        1          -0.000217571   -0.000058255   -0.000002477
     10        1          -0.000035193    0.000064171    0.000013507
     11        1           0.000185289   -0.000087599   -0.000024966
     12        1           0.000019340   -0.000006983    0.000011136
     13        1           0.000014485   -0.000101624   -0.000019751
     14        1           0.000018446   -0.000002222   -0.000014254
 -------------------------------------------------------------------
 Cartesian Forces:  Max     0.000937820 RMS     0.000296494

 GradGradGradGradGradGradGradGradGradGradGradGradGradGradGradGradGradGrad
 Berny optimization.
 Using GEDIIS/GDIIS optimizer.
 FormGI is forming the generalized inverse of G from B-inverse, IUseBI=4.
 Internal  Forces:  Max     0.000760300 RMS     0.000145196
 Search for a local minimum.
 Step number   4 out of a maximum of   72
 All quantities printed in internal units (Hartrees-Bohrs-Radians)
 Mixed Optimization -- En-DIIS/RFO-DIIS
 Swapping is turned off.
 Update second derivatives using D2CorX and points    1    2    3    4
 DE= -4.12D-05 DEPred=-3.75D-05 R= 1.10D+00
 TightC=F SS=  1.41D+00  RLast= 1.97D-02 DXNew= 6.4628D-01 5.9196D-02
 Trust test= 1.10D+00 RLast= 1.97D-02 DXMaxT set to 3.84D-01
 ITU=  1  1  1  0
     Eigenvalues ---    0.00481   0.01373   0.02058   0.02091   0.02118
     Eigenvalues ---    0.02145   0.02152   0.02193   0.02228   0.07057
     Eigenvalues ---    0.07106   0.15209   0.16000   0.16000   0.16040
     Eigenvalues ---    0.16172   0.16226   0.17122   0.22248   0.24129
     Eigenvalues ---    0.25226   0.26353   0.27540   0.30337   0.34738
     Eigenvalues ---    0.34762   0.34831   0.35917   0.35970   0.36026
     Eigenvalues ---    0.42094   0.43592   0.45550   0.47496   0.49742
     Eigenvalues ---    0.55483
 En-DIIS/RFO-DIIS/Sim-DIIS IScMMF=       -3 using points:     4    3
 RFO step:  Lambda=-3.81513631D-06.
 DidBck=F Rises=F RFO-DIIS coefs:    1.10051   -0.10051
 Iteration  1 RMS(Cart)=  0.00055308 RMS(Int)=  0.00000024
 Iteration  2 RMS(Cart)=  0.00000030 RMS(Int)=  0.00000005
 Variable       Old X    -DE/DX   Delta X   Delta X   Delta X     New X
                                 (Linear)    (Quad)   (Total)
    R1        3.33993   0.00031   0.00145   0.00027   0.00172   3.34165
    R2        2.49031   0.00007  -0.00058   0.00031  -0.00027   2.49004
    R3        2.65786  -0.00017   0.00035  -0.00066  -0.00031   2.65755
    R4        2.53082   0.00076   0.00033   0.00124   0.00157   2.53238
    R5        2.62907  -0.00037   0.00005  -0.00088  -0.00083   2.62825
    R6        2.05458  -0.00018  -0.00014  -0.00042  -0.00057   2.05401
    R7        2.63374   0.00033   0.00004   0.00071   0.00075   2.63450
    R8        2.04924   0.00002  -0.00009   0.00013   0.00004   2.04928
    R9        2.63993  -0.00007  -0.00001  -0.00023  -0.00024   2.63968
   R10        2.05320  -0.00013   0.00001  -0.00036  -0.00035   2.05285
   R11        2.83791   0.00020  -0.00022   0.00075   0.00052   2.83843
   R12        2.06832   0.00000  -0.00005   0.00007   0.00001   2.06833
   R13        2.06495  -0.00010   0.00002  -0.00032  -0.00030   2.06465
   R14        2.06832   0.00000  -0.00005   0.00007   0.00001   2.06834
    A1        2.01959   0.00019   0.00019   0.00061   0.00079   2.02038
    A2        2.06783  -0.00011  -0.00049  -0.00027  -0.00076   2.06707
    A3        2.19576  -0.00007   0.00031  -0.00034  -0.00003   2.19573
    A4        2.05240   0.00001   0.00011   0.00010   0.00021   2.05261
    A5        2.14304  -0.00014  -0.00033  -0.00033  -0.00065   2.14238
    A6        2.02599  -0.00006   0.00019  -0.00075  -0.00056   2.02543
    A7        2.11416   0.00020   0.00014   0.00108   0.00121   2.11537
    A8        2.06225   0.00009   0.00015   0.00033   0.00048   2.06273
    A9        2.10478   0.00003   0.00007   0.00022   0.00029   2.10507
   A10        2.11615  -0.00012  -0.00022  -0.00055  -0.00077   2.11539
   A11        2.10482  -0.00005   0.00012  -0.00040  -0.00028   2.10454
   A12        2.10252  -0.00014  -0.00009  -0.00081  -0.00090   2.10163
   A13        2.07584   0.00019  -0.00003   0.00121   0.00118   2.07702
   A14        2.00809   0.00017  -0.00035   0.00064   0.00028   2.00837
   A15        2.14400  -0.00010   0.00040  -0.00057  -0.00017   2.14383
   A16        2.13109  -0.00006  -0.00005  -0.00006  -0.00011   2.13098
   A17        1.94005  -0.00003  -0.00007  -0.00006  -0.00013   1.93992
   A18        1.93135   0.00000   0.00039  -0.00035   0.00004   1.93138
   A19        1.94005  -0.00003  -0.00007  -0.00006  -0.00013   1.93992
   A20        1.89348   0.00001  -0.00008   0.00014   0.00006   1.89354
   A21        1.86320   0.00003  -0.00011   0.00023   0.00012   1.86332
   A22        1.89348   0.00001  -0.00008   0.00014   0.00006   1.89354
    D1        3.14156   0.00000  -0.00001   0.00009   0.00008  -3.14155
    D2        0.00002  -0.00000   0.00000  -0.00004  -0.00004  -0.00002
    D3       -3.14156  -0.00000   0.00000  -0.00007  -0.00007   3.14155
    D4        0.00003  -0.00000   0.00001  -0.00008  -0.00007  -0.00004
    D5       -0.00002   0.00000  -0.00000   0.00006   0.00005   0.00003
    D6        3.14157   0.00000  -0.00000   0.00005   0.00005  -3.14156
    D7        0.00001  -0.00000   0.00000  -0.00001  -0.00001  -0.00000
    D8        3.14157   0.00000  -0.00000   0.00004   0.00004  -3.14157
    D9       -0.00002   0.00000  -0.00000   0.00004   0.00004   0.00002
   D10        3.14158   0.00000  -0.00000   0.00003   0.00003  -3.14158
   D11       -3.14159  -0.00000   0.00000  -0.00001  -0.00001   3.14159
   D12        0.00001  -0.00000   0.00000  -0.00002  -0.00002  -0.00001
   D13        0.00001  -0.00000   0.00000  -0.00002  -0.00002  -0.00001
   D14       -3.14158  -0.00000   0.00000  -0.00002  -0.00002   3.14158
   D15       -3.14159  -0.00000   0.00000  -0.00001  -0.00001   3.14159
   D16        0.00000  -0.00000   0.00000  -0.00001  -0.00001  -0.00001
   D17        0.00001  -0.00000   0.00000  -0.00002  -0.00002  -0.00001
   D18       -3.14158  -0.00000   0.00000  -0.00002  -0.00002   3.14158
   D19       -3.14158  -0.00000   0.00000  -0.00002  -0.00002   3.14158
   D20        0.00001  -0.00000   0.00000  -0.00002  -0.00002  -0.00001
   D21        1.03641   0.00000  -0.00012   0.00010  -0.00002   1.03640
   D22       -3.14159  -0.00000   0.00000  -0.00001  -0.00001   3.14159
   D23       -1.03641  -0.00000   0.00012  -0.00011   0.00001  -1.03641
   D24       -2.10518   0.00000  -0.00011   0.00010  -0.00002  -2.10520
   D25        0.00001  -0.00000   0.00000  -0.00001  -0.00001  -0.00000
   D26        2.10518  -0.00000   0.00012  -0.00011   0.00000   2.10519
         Item               Value     Threshold  Converged?
 Maximum Force            0.000760     0.000450     NO 
 RMS     Force            0.000145     0.000300     YES
 Maximum Displacement     0.002929     0.001800     NO 
 RMS     Displacement     0.000553     0.001200     YES
 Predicted change in Energy=-1.907588D-06
 GradGradGradGradGradGradGradGradGradGradGradGradGradGradGradGradGradGrad

                          Input orientation:                          
 ---------------------------------------------------------------------
 Center     Atomic      Atomic             Coordinates (Angstroms)
 Number     Number       Type             X           Y           Z
 ---------------------------------------------------------------------
      1         17           0       -1.394807   -2.490461   -0.414141
      2          6           0       -0.156796   -1.241308   -0.229963
      3          7           0        1.089967   -1.646867   -0.361729
      4          6           0        2.058453   -0.730205   -0.229139
      5          6           0        1.795296    0.609134    0.037818
      6          6           0        0.465246    1.004969    0.171383
      7          6           0       -0.569426    0.075866    0.039318
      8          6           0       -2.013709    0.464849    0.176577
      9          1           0        3.077043   -1.092176   -0.342653
     10          1           0        2.606388    1.321887    0.138367
     11          1           0        0.218415    2.042104    0.379994
     12          1           0       -2.496816   -0.089998    0.986957
[...]
 Requested convergence on             energy=1.00D-06.
 No special actions if energy rises.
 SCF Done:  E(RM062X) =  -747.184022720     A.U. after    1 cycles
            NFock=  1  Conv=0.17D-08     -V/T= 2.0027
 DoSCS=F DFT=T ScalE2(SS,OS)=  1.000000  1.000000
 Range of M.O.s used for correlation:     1   290
 NBasis=   290 NAE=    33 NBE=    33 NFC=     0 NFV=     0
 NROrb=    290 NOA=    33 NOB=    33 NVA=   257 NVB=   257

 **** Warning!!: The largest alpha MO coefficient is  0.26152410D+02

          Differentiating once with respect to magnetic field using GIAOs.
          Electric field/nuclear overlap derivatives assumed to be zero.
 FoFCou: FMM=F IPFlag=           0 FMFlag=      100000 FMFlg1=           0
         NFxFlg=           0 DoJE=F BraDBF=F KetDBF=T FulRan=T
         wScrn=  0.000000 ICntrl=      6100 IOpCl=  0 I1Cent=           7 NGrid=          14
         NMat0=    1 NMatS0=      1 NMatT0=    0 NMatD0=    1 NMtDS0=    0 NMtDT0=    0
 Symmetry not used in FoFCou.
   1 Symmetry operations used in ECPInt.
 ECPInt:  NShTT=    6555 NPrTT=   20914 LenC2=    6556 LenP2D=   20914.
 LDataN:  DoStor=T MaxTD1= 7 Len=  274
 FoFJK:  IHMeth= 1 ICntrl=    6127 DoSepK=F KAlg= 0 I1Cent=           0 FoldK=F
 IRaf=         1 NMat=       1 IRICut=       1 DoRegI=T DoRafI=F ISym2E= 0 IDoP0=0 IntGTp=1.
          There are     3 degrees of freedom in the 1st order CPHF.  IDoFFX=0 NUNeed=     3.
      3 vectors produced by pass  0 Test12= 2.83D-13 3.33D-08 XBig12= 6.15D+00 6.90D-01.
 AX will form     3 AO Fock derivatives at one time.
      3 vectors produced by pass  1 Test12= 2.83D-13 3.33D-08 XBig12= 4.43D-02 1.07D-01.
      3 vectors produced by pass  2 Test12= 2.83D-13 3.33D-08 XBig12= 8.94D-04 1.66D-02.
      3 vectors produced by pass  3 Test12= 2.83D-13 3.33D-08 XBig12= 1.31D-05 1.04D-03.
      3 vectors produced by pass  4 Test12= 2.83D-13 3.33D-08 XBig12= 1.38D-07 1.10D-04.
      3 vectors produced by pass  5 Test12= 2.83D-13 3.33D-08 XBig12= 1.63D-09 1.54D-05.
      3 vectors produced by pass  6 Test12= 2.83D-13 3.33D-08 XBig12= 2.01D-11 1.88D-06.
      3 vectors produced by pass  7 Test12= 2.83D-13 3.33D-08 XBig12= 2.57D-13 1.02D-07.
 InvSVY:  IOpt=1 It=  1 EMax= 1.69D-16
 Solved reduced A of dimension    24 with     3 vectors.
 Calculating GIAO nuclear magnetic shielding tensors.
 SCF GIAO Magnetic shielding tensor (ppm):
      1  Cl   Isotropic =   607.3511   Anisotropy =   532.0478
   XX=   561.2856   YX=  -292.9359   ZX=     0.0000
   XY=  -264.4644   YY=   768.2355   ZY=    -0.0000
   XZ=    -0.0000   YZ=     0.0000   ZZ=   492.5324
   Eigenvalues:   367.4714   492.5324   962.0496
      2  C    Isotropic =     3.0323   Anisotropy =   112.1389
   XX=   -24.2210   YX=    99.5351   ZX=     0.0000
   XY=    47.5509   YY=   -44.4738   ZY=    -0.0000
   XZ=     0.0000   YZ=     0.0000   ZZ=    77.7915
   Eigenvalues:  -108.5843    39.8895    77.7915
      3  N    Isotropic =  -136.0998   Anisotropy =   578.3268
   XX=  -424.9191   YX=    65.9415   ZX=     0.0000
   XY=    76.4846   YY=  -232.8318   ZY=    -0.0000
   XZ=     0.0000   YZ=     0.0000   ZZ=   249.4514
   Eigenvalues:  -448.4400  -209.3109   249.4514
      4  C    Isotropic =    14.9717   Anisotropy =   193.9882
   XX=  -109.3836   YX=   -17.2410   ZX=     0.0000
   XY=     5.8698   YY=    10.0015   ZY=     0.0000
   XZ=     0.0000   YZ=     0.0000   ZZ=   144.2971
   Eigenvalues:  -109.6538    10.2716   144.2971
      5  C    Isotropic =    42.9285   Anisotropy =   199.0161
   XX=   -16.0868   YX=    54.8750   ZX=    -0.0000
   XY=    71.3913   YY=   -30.7336   ZY=     0.0000
   XZ=    -0.0000   YZ=     0.0000   ZZ=   175.6059
   Eigenvalues:   -86.9667    40.1463   175.6059
      6  C    Isotropic =    22.9562   Anisotropy =   207.8822
   XX=    -1.3662   YX=   -34.1024   ZX=     0.0000
   XY=   -35.5666   YY=   -91.3095   ZY=    -0.0000
   XZ=     0.0000   YZ=     0.0000   ZZ=   161.5444
   Eigenvalues:  -103.2227    10.5471   161.5444
      7  C    Isotropic =    29.5908   Anisotropy =   202.5443
   XX=   -70.3089   YX=   -26.7851   ZX=     0.0000
   XY=   -38.3880   YY=    -5.5389   ZY=    -0.0000
   XZ=     0.0000   YZ=    -0.0000   ZZ=   164.6204
   Eigenvalues:   -83.8660     8.0181   164.6204
      8  C    Isotropic =   163.6321   Anisotropy =    29.2932
   XX=   179.7723   YX=     6.7502   ZX=     0.0000
   XY=     8.8697   YY=   165.1610   ZY=    -0.0000
   XZ=     0.0000   YZ=     0.0000   ZZ=   145.9632
   Eigenvalues:   145.9632   161.7723   183.1609
      9  H    Isotropic =    22.7880   Anisotropy =     6.5608
   XX=    21.7006   YX=    -0.0113   ZX=     0.0000
   XY=    -0.3513   YY=    27.1559   ZY=    -0.0000
   XZ=     0.0000   YZ=    -0.0000   ZZ=    19.5077
   Eigenvalues:    19.5077    21.6945    27.1619
     10  H    Isotropic =    24.0959   Anisotropy =     6.0398
   XX=    26.1303   YX=     2.4819   ZX=     0.0000
   XY=     3.1289   YY=    24.1717   ZY=    -0.0000
   XZ=    -0.0000   YZ=    -0.0000   ZZ=    21.9856
   Eigenvalues:    21.9856    22.1796    28.1224
     11  H    Isotropic =    23.6448   Anisotropy =     8.3210
   XX=    28.1500   YX=    -3.2520   ZX=     0.0000
   XY=    -2.2313   YY=    21.9792   ZY=    -0.0000
   XZ=     0.0000   YZ=    -0.0000   ZZ=    20.8052
   Eigenvalues:    20.8052    20.9370    29.1921
     12  H    Isotropic =    29.3279   Anisotropy =     7.1159
   XX=    29.9465   YX=    -0.6096   ZX=    -3.7362
   XY=     0.7383   YY=    29.2622   ZY=     1.1526
   XZ=    -5.3529   YZ=     1.3531   ZZ=    28.7752
   Eigenvalues:    24.5698    29.3421    34.0719
     13  H    Isotropic =    29.7887   Anisotropy =     8.4717
   XX=    29.7425   YX=     2.5347   ZX=    -0.0000
   XY=     0.8375   YY=    34.9371   ZY=     0.0000
   XZ=     0.0000   YZ=     0.0000   ZZ=    24.6864
   Eigenvalues:    24.6864    29.2432    35.4364
     14  H    Isotropic =    29.3279   Anisotropy =     7.1159
   XX=    29.9465   YX=    -0.6096   ZX=     3.7362
   XY=     0.7383   YY=    29.2622   ZY=    -1.1526
   XZ=     5.3529   YZ=    -1.3531   ZZ=    28.7752
   Eigenvalues:    24.5698    29.3421    34.0719
 End of Minotr F.D. properties file   721 does not exist.
 End of Minotr F.D. properties file   722 does not exist.
 End of Minotr F.D. properties file   788 does not exist.

 **********************************************************************

            Population analysis using the SCF Density.

 **********************************************************************

 Orbital symmetries:
       Occupied  (A') (A') (A') (A') (A') (A') (A') (A') (A') (A')
                 (A") (A') (A') (A') (A') (A') (A') (A') (A') (A')
                 (A') (A') (A") (A') (A') (A') (A") (A') (A") (A')
                 (A") (A') (A")
       Virtual   (A") (A") (A') (A') (A') (A') (A') (A') (A") (A')
                 (A") (A') (A') (A") (A') (A') (A") (A') (A') (A')
                 (A") (A') (A') (A") (A') (A') (A') (A') (A") (A")
                 (A') (A') (A") (A') (A') (A") (A') (A') (A') (A")
                 (A') (A') (A") (A') (A') (A') (A") (A') (A') (A")
                 (A') (A') (A') (A") (A') (A') (A') (A") (A') (A')
                 (A') (A') (A") (A") (A') (A') (A") (A') (A') (A")
                 (A') (A') (A") (A') (A") (A') (A') (A') (A') (A')
                 (A') (A") (A") (A') (A') (A") (A') (A') (A") (A')
                 (A") (A') (A") (A') (A') (A") (A') (A") (A') (A')
                 (A") (A') (A') (A") (A') (A") (A') (A") (A") (A')
                 (A") (A') (A") (A') (A') (A') (A') (A") (A') (A')
                 (A") (A') (A") (A') (A") (A') (A') (A') (A') (A")
                 (A") (A') (A') (A') (A") (A') (A") (A') (A') (A")
                 (A') (A') (A") (A') (A') (A") (A') (A") (A') (A')
                 (A') (A") (A') (A') (A") (A') (A') (A") (A") (A')
                 (A') (A') (A") (A') (A') (A") (A') (A') (A") (A")
                 (A') (A') (A") (A") (A') (A") (A') (A') (A") (A')
                 (A") (A') (A") (A') (A") (A') (A") (A') (A") (A")
                 (A') (A') (A") (A') (A') (A") (A') (A') (A") (A')
                 (A') (A") (A') (A') (A') (A") (A') (A') (A') (A')
                 (A") (A') (A') (A') (A") (A") (A') (A') (A') (A")
                 (A') (A") (A') (A") (A') (A') (A') (A") (A') (A')
                 (A') (A") (A') (A") (A') (A') (A') (A') (A") (A")
                 (A') (A') (A') (A') (A') (A') (A") (A') (A') (A')
                 (A') (A') (A') (A') (A') (A') (A')
 The electronic state is 1-A'.
 Alpha  occ. eigenvalues -- -102.64207 -14.76426 -10.64022 -10.58921 -10.57783
 Alpha  occ. eigenvalues --  -10.57223 -10.56124 -10.54821  -9.80474  -7.52657
 Alpha  occ. eigenvalues --   -7.52171  -7.52136  -1.08013  -0.95233  -0.93041
 Alpha  occ. eigenvalues --   -0.86383  -0.80116  -0.71889  -0.70362  -0.59894
 Alpha  occ. eigenvalues --   -0.58086  -0.53193  -0.51996  -0.49401  -0.48363
 Alpha  occ. eigenvalues --   -0.47453  -0.47381  -0.43226  -0.40626  -0.37844
 Alpha  occ. eigenvalues --   -0.35134  -0.34355  -0.31000
 Alpha virt. eigenvalues --   -0.00748   0.00320   0.06760   0.07500   0.09672
 Alpha virt. eigenvalues --    0.10892   0.12832   0.13646   0.13999   0.16527
 Alpha virt. eigenvalues --    0.17446   0.17537   0.19420   0.21538   0.21975
 Alpha virt. eigenvalues --    0.24407   0.24976   0.25061   0.28723   0.29237
 Alpha virt. eigenvalues --    0.29516   0.31190   0.31254   0.31692   0.32827
 Alpha virt. eigenvalues --    0.34560   0.36077   0.37600   0.38799   0.39211
 Alpha virt. eigenvalues --    0.40590   0.41519   0.41805   0.42785   0.44124
 Alpha virt. eigenvalues --    0.45697   0.46319   0.48075   0.49550   0.50343
 Alpha virt. eigenvalues --    0.50605   0.51224   0.52086   0.52205   0.54729
 Alpha virt. eigenvalues --    0.55674   0.57144   0.57434   0.62230   0.63349
 Alpha virt. eigenvalues --    0.64147   0.66279   0.68138   0.68682   0.69729
 Alpha virt. eigenvalues --    0.71540   0.73782   0.75504   0.75619   0.77604
 Alpha virt. eigenvalues --    0.80126   0.83437   0.84883   0.88336   0.88968
 Alpha virt. eigenvalues --    0.90050   0.94425   0.95851   0.98565   1.00102
 Alpha virt. eigenvalues --    1.00257   1.04424   1.06236   1.10453   1.14025
 Alpha virt. eigenvalues --    1.15455   1.16289   1.17417   1.21271   1.25472
 Alpha virt. eigenvalues --    1.26146   1.27009   1.28250   1.29846   1.34190
 Alpha virt. eigenvalues --    1.35860   1.37397   1.40792   1.43506   1.45963
 Alpha virt. eigenvalues --    1.50006   1.50267   1.54128   1.54594   1.56566
 Alpha virt. eigenvalues --    1.57390   1.57849   1.58202   1.62602   1.63510
 Alpha virt. eigenvalues --    1.64395   1.67758   1.69360   1.71487   1.74163
 Alpha virt. eigenvalues --    1.74460   1.78876   1.79614   1.83332   1.84047
 Alpha virt. eigenvalues --    1.85366   1.88145   1.88347   1.89839   1.91025
 Alpha virt. eigenvalues --    1.95155   1.96417   1.97477   1.99618   2.02588
 Alpha virt. eigenvalues --    2.04337   2.07660   2.10002   2.11075   2.13283
 Alpha virt. eigenvalues --    2.14080   2.15840   2.17791   2.18313   2.22879
 Alpha virt. eigenvalues --    2.24433   2.25427   2.26112   2.27271   2.27837
 Alpha virt. eigenvalues --    2.29782   2.31583   2.33180   2.33920   2.37216
 Alpha virt. eigenvalues --    2.41845   2.42450   2.46998   2.50881   2.52746
 Alpha virt. eigenvalues --    2.53258   2.54351   2.57403   2.58533   2.61122
 Alpha virt. eigenvalues --    2.64619   2.64676   2.68721   2.70647   2.73789
 Alpha virt. eigenvalues --    2.74402   2.77989   2.79378   2.80441   2.81924
 Alpha virt. eigenvalues --    2.83401   2.86447   2.90618   2.91650   2.95026
 Alpha virt. eigenvalues --    2.95143   2.97216   2.99383   3.00700   3.03799
 Alpha virt. eigenvalues --    3.04070   3.07516   3.10012   3.10228   3.11066
 Alpha virt. eigenvalues --    3.13633   3.16701   3.18051   3.18327   3.20920
 Alpha virt. eigenvalues --    3.22833   3.23784   3.25489   3.28349   3.28745
 Alpha virt. eigenvalues --    3.30167   3.32314   3.34501   3.34717   3.36011
 Alpha virt. eigenvalues --    3.38594   3.39415   3.45424   3.46228   3.47898
 Alpha virt. eigenvalues --    3.52326   3.52358   3.57604   3.62407   3.64441
 Alpha virt. eigenvalues --    3.68495   3.69626   3.70135   3.75812   3.78290
 Alpha virt. eigenvalues --    3.82470   3.83759   3.86834   3.93931   3.99345
 Alpha virt. eigenvalues --    4.00441   4.05931   4.06327   4.10415   4.11811
 Alpha virt. eigenvalues --    4.15329   4.16911   4.23049   4.26996   4.29547
 Alpha virt. eigenvalues --    4.30546   4.34047   4.39469   4.40974   4.45914
 Alpha virt. eigenvalues --    4.49737   4.54102   4.54186   4.69939   4.72295
 Alpha virt. eigenvalues --    4.82953   4.84534   4.88237   4.90960   4.97616
 Alpha virt. eigenvalues --    5.06126   5.06713   5.16652   5.19561   5.25941
 Alpha virt. eigenvalues --    5.32092   5.37265   5.47688   5.60492   5.75417
 Alpha virt. eigenvalues --    5.95394  10.81979  10.89616  11.40336  22.38422
 Alpha virt. eigenvalues --   22.50393  22.72036  22.81189  22.92312  23.19410
 Alpha virt. eigenvalues --   25.87236  32.55379
          Condensed to atoms (all electrons):
               1          2          3          4          5          6
     1  Cl  16.870454   0.385642  -0.086508   0.002417   0.000042   0.010996
     2  C    0.385642   4.741552   0.529080  -0.088179  -0.020345  -0.071302
     3  N   -0.086508   0.529080   6.433704   0.497299  -0.061817  -0.034368
     4  C    0.002417  -0.088179   0.497299   4.794305   0.508794  -0.040165
     5  C    0.000042  -0.020345  -0.061817   0.508794   4.991264   0.486364
     6  C    0.010996  -0.071302  -0.034368  -0.040165   0.486364   4.956786
     7  C   -0.117370   0.460120  -0.055621  -0.031317  -0.061166   0.503561
     8  C    0.011124  -0.070379   0.007193  -0.000730   0.008160  -0.073048
     9  H   -0.000300   0.005942  -0.034559   0.432948  -0.067744   0.003956
    10  H    0.000075   0.000537   0.005859  -0.027103   0.406788  -0.042905
    11  H   -0.000298   0.006076  -0.001340   0.003016  -0.029474   0.411601
    12  H    0.002182  -0.011360  -0.000081   0.000244  -0.000687   0.003382
    13  H    0.001553   0.011113  -0.000272  -0.000016   0.001809  -0.011010
    14  H    0.002182  -0.011360  -0.000081   0.000244  -0.000687   0.003382
               7          8          9         10         11         12
     1  Cl  -0.117370   0.011124  -0.000300   0.000075  -0.000298   0.002182
     2  C    0.460120  -0.070379   0.005942   0.000537   0.006076  -0.011360
     3  N   -0.055621   0.007193  -0.034559   0.005859  -0.001340  -0.000081
     4  C   -0.031317  -0.000730   0.432948  -0.027103   0.003016   0.000244
     5  C   -0.061166   0.008160  -0.067744   0.406788  -0.029474  -0.000687
     6  C    0.503561  -0.073048   0.003956  -0.042905   0.411601   0.003382
     7  C    5.178215   0.269181  -0.001096   0.005880  -0.036607  -0.036037
     8  C    0.269181   5.079249   0.000147  -0.000072  -0.006012   0.414633
     9  H   -0.001096   0.000147   0.511099  -0.000463  -0.000230  -0.000000
    10  H    0.005880  -0.000072  -0.000463   0.508091  -0.004033   0.000007
    11  H   -0.036607  -0.006012  -0.000230  -0.004033   0.504240   0.000092
    12  H   -0.036037   0.414633  -0.000000   0.000007   0.000092   0.515291
    13  H   -0.057359   0.419168  -0.000004  -0.000092   0.001388  -0.023290
    14  H   -0.036037   0.414633  -0.000000   0.000007   0.000092  -0.034699
              13         14
     1  Cl   0.001553   0.002182
     2  C    0.011113  -0.011360
     3  N   -0.000272  -0.000081
     4  C   -0.000016   0.000244
     5  C    0.001809  -0.000687
     6  C   -0.011010   0.003382
     7  C   -0.057359  -0.036037
     8  C    0.419168   0.414633
     9  H   -0.000004  -0.000000
    10  H   -0.000092   0.000007
    11  H    0.001388   0.000092
    12  H   -0.023290  -0.034699
    13  H    0.544465  -0.023290
    14  H   -0.023290   0.515291
 Mulliken charges:
               1
     1  Cl  -0.082192
     2  C    0.132864
     3  N   -0.198488
     4  C   -0.051756
     5  C   -0.161304
     6  C   -0.107229
     7  C    0.015654
     8  C   -0.473248
     9  H    0.150305
    10  H    0.147423
    11  H    0.151488
    12  H    0.170323
    13  H    0.135837
    14  H    0.170323
 Sum of Mulliken charges =  -0.00000
 Mulliken charges with hydrogens summed into heavy atoms:
               1
     1  Cl  -0.082192
     2  C    0.132864
     3  N   -0.198488
     4  C    0.098549
     5  C   -0.013881
     6  C    0.044259
     7  C    0.015654
     8  C    0.003235
 Electronic spatial extent (au):  <R**2>=           1088.2993
 Charge=              0.0000 electrons
 Dipole moment (field-independent basis, Debye):
    X=             -0.0211    Y=              3.4509    Z=             -0.0000  Tot=              3.4509
 Quadrupole moment (field-independent basis, Debye-Ang):
   XX=            -48.3645   YY=            -53.0664   ZZ=            -55.8111
   XY=             -1.5599   XZ=             -0.0000   YZ=              0.0000
 Traceless Quadrupole moment (field-independent basis, Debye-Ang):
   XX=              4.0495   YY=             -0.6524   ZZ=             -3.3971
   XY=             -1.5599   XZ=             -0.0000   YZ=              0.0000
 Octapole moment (field-independent basis, Debye-Ang**2):
  XXX=             -8.8327  YYY=              8.8235  ZZZ=             -0.0000  XYY=              3.0473
  XXY=              4.6647  XXZ=              0.0000  XZZ=              5.0505  YZZ=             -5.4199
  YYZ=             -0.0000  XYZ=              0.0000
 Hexadecapole moment (field-independent basis, Debye-Ang**3):
 XXXX=           -677.1432 YYYY=           -625.1288 ZZZZ=            -68.4826 XXXY=             63.8741
 XXXZ=             -0.0000 YYYX=             57.6673 YYYZ=              0.0000 ZZZX=             -0.0000
 ZZZY=              0.0000 XXYY=           -222.5120 XXZZ=           -139.1634 YYZZ=           -129.5222
 XXYZ=              0.0000 YYXZ=             -0.0000 ZZXY=             28.4358
 N-N= 4.060454722048D+02 E-N=-2.572902312982D+03  KE= 7.451930452918D+02
 Symmetry A'   KE= 6.902699926846D+02
 Symmetry A"   KE= 5.492305260726D+01
 Unable to Open any file for archive entry.
 1\1\GINC-COMPUTE-0-33\SP\RM062X\def2TZVP\C6H6Cl1N1\ZTAN64\14-Aug-2024\
 0\\# M062X/def2tzvp int=(grid=ultrafine) nmr=giao guess=read geom=chec
 k\\pyrd2.xyz\\0,1\Cl,0,-1.3948074194,-2.4904596269,-0.4141508574\C,0,-
 0.1567950202,-1.2413137025,-0.2299306851\N,0,1.0899677446,-1.646869092
 6,-0.3617173759\C,0,2.0584530147,-0.7302032036,-0.2291492635\C,0,1.795
 2955205,0.6091353174,0.0378104697\C,0,0.465245409,1.0049692306,0.17137
 88789\C,0,-0.5694251276,0.0758642736,0.0393275028\C,0,-2.0137085852,0.
 4648493234,0.1765765594\H,0,3.0770422019,-1.0921745726,-0.3426612887\H
 ,0,2.6063871183,1.3218892656,0.1383547988\H,0,0.2184146758,2.042105991
 3,0.3799825779\H,0,-2.4968158224,-0.0899978698,0.9869574413\H,0,-2.107
 0651296,1.5333826866,0.3844688343\H,0,-2.5720896246,0.2388889212,-0.73
 72711826\\Version=ES64L-G16RevC.01\State=1-A'\HF=-747.1840227\RMSD=1.7
 29e-09\Dipole=0.107405,1.3303283,0.2490636\Quadrupole=3.1506421,-0.687
 3356,-2.4633065,0.9215571,-0.0720258,0.3104182\PG=CS [SG(C6H4Cl1N1),X(
 H2)]\\@
 The archive entry for this job was punched.


 THE MOST BEAUTIFUL EXPERIENCE WE CAN HAVE IS THE MYSTERIOUS.
 IT IS THE FUNDAMENTAL EMOTION WHICH STANDS AT AT THE CRADLE 
 OF TRUE ART AND TRUE SCIENCE.

                                    -- ALBERT EINSTEIN
 Job cpu time:       0 days  0 hours  8 minutes 43.0 seconds.
 Elapsed time:       0 days  0 hours  0 minutes 36.0 seconds.
 File lengths (MBytes):  RWF=     53 Int=      0 D2E=      0 Chk=      9 Scr=      1
 Normal termination of Gaussian 16 at Wed Aug 14 18:52:57 2024.
 
 
-----Kestrel cluster job statistics-----
Time info:

real	2m45.748s
user	42m17.603s
sys	0m10.184s
 
Disk space usage:
8.3M	/scratch/362962.kestrel.chem.wisc.edu
