 Entering Gaussian System, Link 0=/share/apps/gaussian/g16/g16
 Initial command:
 /share/apps/gaussian/g16/l1.exe "/scratch/362961.kestrel.chem.wisc.edu/Gau-438.inp" -scrdir="/scratch/362961.kestrel.chem.wisc.edu/"
 Entering Link 1 = /share/apps/gaussian/g16/l1.exe PID=       439.
  
 Copyright (c) 1988-2019, Gaussian, Inc.  All Rights Reserved.
  
 This is part of the Gaussian(R) 16 program.  It is based on
 the Gaussian(R) 09 system (copyright 2009, Gaussian, Inc.),
 the Gaussian(R) 03 system (copyright 2003, Gaussian, Inc.),
 the Gaussian(R) 98 system (copyright 1998, Gaussian, Inc.),
 the Gaussian(R) 94 system (copyright 1995, Gaussian, Inc.),
 the Gaussian 92(TM) system (copyright 1992, Gaussian, Inc.),
 the Gaussian 90(TM) system (copyright 1990, Gaussian, Inc.),
 the Gaussian 88(TM) system (copyright 1988, Gaussian, Inc.),
 the Gaussian 86(TM) system (copyright 1986, Carnegie Mellon
 University), and the Gaussian 82(TM) system (copyright 1983,
 Carnegie Mellon University). Gaussian is a federally registered
 trademark of Gaussian, Inc.
  
 This software contains proprietary and confidential information,
 including trade secrets, belonging to Gaussian, Inc.
  
 This software is provided under written license and may be
 used, copied, transmitted, or stored only in accord with that
 written license.
  
 The following legend is applicable only to US Government
 contracts under FAR:
  
                    RESTRICTED RIGHTS LEGEND
  
 Use, reproduction and disclosure by the US Government is
 subject to restrictions as set forth in subparagraphs (a)
 and (c) of the Commercial Computer Software - Restricted
 Rights clause in FAR 52.227-19.
  
 Gaussian, Inc.
 340 Quinnipiac St., Bldg. 40, Wallingford CT 06492
  
  
 ---------------------------------------------------------------
 Warning -- This program may not be used in any manner that
 competes with the business of Gaussian, Inc. or will provide
 assistance to any competitor of Gaussian, Inc.  The licensee
 of this program is prohibited from giving any competitor of
 Gaussian, Inc. access to this program.  By using this program,
 the user acknowledges that Gaussian, Inc. is engaged in the
 business of creating and licensing software in the field of
 computational chemistry and represents and warrants to the
 licensee that it is not a competitor of Gaussian, Inc. and that
 it will not use this program in any manner prohibited above.
 ---------------------------------------------------------------
  

 Cite this work as:
 Gaussian 16, Revision C.01,
 M. J. Frisch, G. W. Trucks, H. B. Schlegel, G. E. Scuseria, 
 M. A. Robb, J. R. Cheeseman, G. Scalmani, V. Barone, 
 G. A. Petersson, H. Nakatsuji, X. Li, M. Caricato, A. V. Marenich, 
 J. Bloino, B. G. Janesko, R. Gomperts, B. Mennucci, H. P. Hratchian, 
 J. V. Ortiz, A. F. Izmaylov, J. L. Sonnenberg, D. Williams-Young, 
 F. Ding, F. Lipparini, F. Egidi, J. Goings, B. Peng, A. Petrone, 
 T. Henderson, D. Ranasinghe, V. G. Zakrzewski, J. Gao, N. Rega, 
 G. Zheng, W. Liang, M. Hada, M. Ehara, K. Toyota, R. Fukuda, 
 J. Hasegawa, M. Ishida, T. Nakajima, Y. Honda, O. Kitao, H. Nakai, 
 T. Vreven, K. Throssell, J. A. Montgomery, Jr., J. E. Peralta, 
 F. Ogliaro, M. J. Bearpark, J. J. Heyd, E. N. Brothers, K. N. Kudin, 
 V. N. Staroverov, T. A. Keith, R. Kobayashi, J. Normand, 
 K. Raghavachari, A. P. Rendell, J. C. Burant, S. S. Iyengar, 
 J. Tomasi, M. Cossi, J. M. Millam, M. Klene, C. Adamo, R. Cammi, 
 J. W. Ochterski, R. L. Martin, K. Morokuma, O. Farkas, 
 J. B. Foresman, and D. J. Fox, Gaussian, Inc., Wallingford CT, 2019.
 
 ******************************************
 Gaussian 16:  ES64L-G16RevC.01  3-Jul-2019
                14-Aug-2024 
 ******************************************
 %nprocs=16
 Will use up to   16 processors via shared memory.
 %mem=16GB
 %chk=pyrd1_conf-1.chk
 ----------------------------------------------------------------------
 # B3LYP/6-31G(d,p) symmetry=loose empiricaldispersion=GD3BJ int=(grid=
 ultrafine) opt freq=noraman
 ----------------------------------------------------------------------
 1/18=20,19=15,26=4,38=1/1,3;
 2/9=110,12=2,17=4,18=3,40=1/2;
 3/5=1,6=6,7=101,11=2,25=1,30=1,71=1,74=-5,75=-5,124=41/1,2,3;
 4//1;
 5/5=2,38=5/2;
 6/7=2,8=2,9=2,10=2,28=1/1;
 7//1,2,3,16;
 1/18=20,19=15,26=4/3(2);
 2/9=110/2;
 99//99;
 2/9=110/2;
 3/5=1,6=6,7=101,11=2,25=1,30=1,71=1,74=-5,75=-5,124=41/1,2,3;
 4/5=5,16=3,69=1/1;
 5/5=2,38=5/2;
 7//1,2,3,16;
 1/18=20,19=15,26=4/3(-5);
 2/9=110/2;
 6/7=2,8=2,9=2,10=2,19=2,28=1/1;
 99/9=1/99;
 ---------
 pyrd1.xyz
 ---------
 Symbolic Z-matrix:
 Charge =  0 Multiplicity = 1
 Br                    1.8498    2.9305   -0.5716 
 C                     1.6953    1.0642   -0.2153 
 C                     0.4424    0.4532   -0.0453 
 C                     0.4259   -0.936     0.1945 
 O                    -0.7272   -1.6631    0.4202 
 C                    -1.9192   -1.0935   -0.1239 
 C                    -2.0606    0.3661    0.3424 
 C                    -0.8731    1.2211   -0.1434 
 C                     1.6279   -1.6376    0.2754 
 N                     2.838    -1.0461    0.114 
 C                     2.8539    0.2887   -0.1286 
 H                    -1.8868   -1.1349   -1.2148 
 H                    -2.7751   -1.6867    0.2003 
 H                    -3.0034    0.7914   -0.0028 
 H                    -2.0979    0.378     1.433 
 H                    -1.0196    1.5093   -1.1857 
 H                    -0.8175    2.1489    0.4285 
 H                     1.6224   -2.6972    0.48 
 H                     3.8251    0.7436   -0.2569 
 

 GradGradGradGradGradGradGradGradGradGradGradGradGradGradGradGradGradGrad
 Berny optimization.
 Initialization pass.
                           ----------------------------
                           !    Initial Parameters    !
                           ! (Angstroms and Degrees)  !
 --------------------------                            --------------------------
 ! Name  Definition              Value          Derivative Info.                !
 --------------------------------------------------------------------------------
 ! R1    R(1,2)                  1.9063         estimate D2E/DX2                !
 ! R2    R(2,3)                  1.4043         estimate D2E/DX2                !
 ! R3    R(2,11)                 1.3969         estimate D2E/DX2                !
 ! R4    R(3,4)                  1.4098         estimate D2E/DX2                !
 ! R5    R(3,8)                  1.5264         estimate D2E/DX2                !
 ! R6    R(4,5)                  1.3818         estimate D2E/DX2                !
 ! R7    R(4,9)                  1.3941         estimate D2E/DX2                !
 ! R8    R(5,6)                  1.4288         estimate D2E/DX2                !
 ! R9    R(6,7)                  1.5388         estimate D2E/DX2                !
 ! R10   R(6,12)                 1.0922         estimate D2E/DX2                !
 ! R11   R(6,13)                 1.0907         estimate D2E/DX2                !
 ! R12   R(7,8)                  1.5418         estimate D2E/DX2                !
 ! R13   R(7,14)                 1.0904         estimate D2E/DX2                !
 ! R14   R(7,15)                 1.0913         estimate D2E/DX2                !
 ! R15   R(8,16)                 1.0913         estimate D2E/DX2                !
 ! R16   R(8,17)                 1.0913         estimate D2E/DX2                !
 ! R17   R(9,10)                 1.3566         estimate D2E/DX2                !
 ! R18   R(9,18)                 1.0792         estimate D2E/DX2                !
 ! R19   R(10,11)                1.3568         estimate D2E/DX2                !
 ! R20   R(11,19)                1.0801         estimate D2E/DX2                !
 ! A1    A(1,2,3)              121.3936         estimate D2E/DX2                !
 ! A2    A(1,2,11)             119.2027         estimate D2E/DX2                !
 ! A3    A(3,2,11)             119.4028         estimate D2E/DX2                !
 ! A4    A(2,3,4)              117.3718         estimate D2E/DX2                !
 ! A5    A(2,3,8)              122.8382         estimate D2E/DX2                !
 ! A6    A(4,3,8)              119.773          estimate D2E/DX2                !
 ! A7    A(3,4,5)              123.7837         estimate D2E/DX2                !
 ! A8    A(3,4,9)              119.7136         estimate D2E/DX2                !
 ! A9    A(5,4,9)              116.4369         estimate D2E/DX2                !
 ! A10   A(4,5,6)              115.1026         estimate D2E/DX2                !
 ! A11   A(5,6,7)              109.8413         estimate D2E/DX2                !
 ! A12   A(5,6,12)             109.9083         estimate D2E/DX2                !
 ! A13   A(5,6,13)             108.9462         estimate D2E/DX2                !
 ! A14   A(7,6,12)             109.9598         estimate D2E/DX2                !
 ! A15   A(7,6,13)             110.7145         estimate D2E/DX2                !
 ! A16   A(12,6,13)            107.4317         estimate D2E/DX2                !
 ! A17   A(6,7,8)              111.0849         estimate D2E/DX2                !
 ! A18   A(6,7,14)             110.7013         estimate D2E/DX2                !
 ! A19   A(6,7,15)             108.4405         estimate D2E/DX2                !
 ! A20   A(8,7,14)             110.4816         estimate D2E/DX2                !
 ! A21   A(8,7,15)             109.5822         estimate D2E/DX2                !
 ! A22   A(14,7,15)            106.4141         estimate D2E/DX2                !
 ! A23   A(3,8,7)              111.3803         estimate D2E/DX2                !
 ! A24   A(3,8,16)             108.0558         estimate D2E/DX2                !
 ! A25   A(3,8,17)             110.4945         estimate D2E/DX2                !
 ! A26   A(7,8,16)             110.1204         estimate D2E/DX2                !
 ! A27   A(7,8,17)             110.2168         estimate D2E/DX2                !
 ! A28   A(16,8,17)            106.4297         estimate D2E/DX2                !
 ! A29   A(4,9,10)             122.872          estimate D2E/DX2                !
 ! A30   A(4,9,18)             120.0482         estimate D2E/DX2                !
 ! A31   A(10,9,18)            117.0789         estimate D2E/DX2                !
 ! A32   A(9,10,11)            117.4322         estimate D2E/DX2                !
 ! A33   A(2,11,10)            123.1997         estimate D2E/DX2                !
 ! A34   A(2,11,19)            120.3051         estimate D2E/DX2                !
 ! A35   A(10,11,19)           116.4952         estimate D2E/DX2                !
 ! D1    D(1,2,3,4)            179.0542         estimate D2E/DX2                !
 ! D2    D(1,2,3,8)              0.5569         estimate D2E/DX2                !
 ! D3    D(11,2,3,4)            -0.6179         estimate D2E/DX2                !
 ! D4    D(11,2,3,8)          -179.1152         estimate D2E/DX2                !
 ! D5    D(1,2,11,10)         -179.6292         estimate D2E/DX2                !
 ! D6    D(1,2,11,19)            0.3249         estimate D2E/DX2                !
 ! D7    D(3,2,11,10)            0.0502         estimate D2E/DX2                !
 ! D8    D(3,2,11,19)         -179.9957         estimate D2E/DX2                !
 ! D9    D(2,3,4,5)            177.9912         estimate D2E/DX2                !
 ! D10   D(2,3,4,9)              1.0477         estimate D2E/DX2                !
 ! D11   D(8,3,4,5)             -3.4634         estimate D2E/DX2                !
 ! D12   D(8,3,4,9)            179.5931         estimate D2E/DX2                !
 ! D13   D(2,3,8,7)           -169.3528         estimate D2E/DX2                !
 ! D14   D(2,3,8,16)            69.5709         estimate D2E/DX2                !
 ! D15   D(2,3,8,17)           -46.4972         estimate D2E/DX2                !
 ! D16   D(4,3,8,7)             12.1846         estimate D2E/DX2                !
 ! D17   D(4,3,8,16)          -108.8917         estimate D2E/DX2                !
 ! D18   D(4,3,8,17)           135.0402         estimate D2E/DX2                !
 ! D19   D(3,4,5,6)             24.7068         estimate D2E/DX2                !
 ! D20   D(9,4,5,6)           -158.2578         estimate D2E/DX2                !
 ! D21   D(3,4,9,10)            -0.9575         estimate D2E/DX2                !
 ! D22   D(3,4,9,18)           178.675          estimate D2E/DX2                !
 ! D23   D(5,4,9,10)          -178.1206         estimate D2E/DX2                !
 ! D24   D(5,4,9,18)             1.5119         estimate D2E/DX2                !
 ! D25   D(4,5,6,7)            -52.6349         estimate D2E/DX2                !
 ! D26   D(4,5,6,12)            68.473          estimate D2E/DX2                !
 ! D27   D(4,5,6,13)          -174.0638         estimate D2E/DX2                !
 ! D28   D(5,6,7,8)             61.1411         estimate D2E/DX2                !
 ! D29   D(5,6,7,14)          -175.7248         estimate D2E/DX2                !
 ! D30   D(5,6,7,15)           -59.3374         estimate D2E/DX2                !
 ! D31   D(12,6,7,8)           -59.9358         estimate D2E/DX2                !
 ! D32   D(12,6,7,14)           63.1983         estimate D2E/DX2                !
 ! D33   D(12,6,7,15)          179.5857         estimate D2E/DX2                !
 ! D34   D(13,6,7,8)          -178.4957         estimate D2E/DX2                !
 ! D35   D(13,6,7,14)          -55.3616         estimate D2E/DX2                !
 ! D36   D(13,6,7,15)           61.0258         estimate D2E/DX2                !
 ! D37   D(6,7,8,3)            -39.7429         estimate D2E/DX2                !
 ! D38   D(6,7,8,16)            80.1189         estimate D2E/DX2                !
 ! D39   D(6,7,8,17)          -162.7575         estimate D2E/DX2                !
 ! D40   D(14,7,8,3)          -163.0032         estimate D2E/DX2                !
 ! D41   D(14,7,8,16)          -43.1413         estimate D2E/DX2                !
 ! D42   D(14,7,8,17)           73.9823         estimate D2E/DX2                !
 ! D43   D(15,7,8,3)            80.0581         estimate D2E/DX2                !
 ! D44   D(15,7,8,16)         -160.0801         estimate D2E/DX2                !
 ! D45   D(15,7,8,17)          -42.9565         estimate D2E/DX2                !
 ! D46   D(4,9,10,11)            0.3659         estimate D2E/DX2                !
 ! D47   D(18,9,10,11)        -179.2769         estimate D2E/DX2                !
 ! D48   D(9,10,11,2)            0.093          estimate D2E/DX2                !
 ! D49   D(9,10,11,19)        -179.8627         estimate D2E/DX2                !
 --------------------------------------------------------------------------------
 Trust Radius=3.00D-01 FncErr=1.00D-07 GrdErr=1.00D-06 EigMax=2.50D+02 EigMin=1.00D-04
 Number of steps in this run=    114 maximum allowed number of steps=    114.
 GradGradGradGradGradGradGradGradGradGradGradGradGradGradGradGradGradGrad

                          Input orientation:                          
 ---------------------------------------------------------------------
 Center     Atomic      Atomic             Coordinates (Angstroms)
 Number     Number       Type             X           Y           Z
 ---------------------------------------------------------------------
      1         35           0        1.849800    2.930500   -0.571600
      2          6           0        1.695300    1.064200   -0.215300
      3          6           0        0.442400    0.453200   -0.045300
      4          6           0        0.425900   -0.936000    0.194500
      5          8           0       -0.727200   -1.663100    0.420200
      6          6           0       -1.919200   -1.093500   -0.123900
      7          6           0       -2.060600    0.366100    0.342400
      8          6           0       -0.873100    1.221100   -0.143400
      9          6           0        1.627900   -1.637600    0.275400
     10          7           0        2.838000   -1.046100    0.114000
     11          6           0        2.853900    0.288700   -0.128600
     12          1           0       -1.886800   -1.134900   -1.214800
     13          1           0       -2.775100   -1.686700    0.200300
     14          1           0       -3.003400    0.791400   -0.002800
     15          1           0       -2.097900    0.378000    1.433000
     16          1           0       -1.019600    1.509300   -1.185700
     17          1           0       -0.817500    2.148900    0.428500
     18          1           0        1.622400   -2.697200    0.480000
     19          1           0        3.825100    0.743600   -0.256900
 ---------------------------------------------------------------------
                    Distance matrix (angstroms):
                    1          2          3          4          5
     1  Br   0.000000
     2  C    1.906278   0.000000
     3  C    2.897375   1.404272   0.000000
     4  C    4.190969   2.404186   1.409841   0.000000
     5  O    5.359642   3.702774   2.462393   1.381758   0.000000
     6  C    5.531580   4.210538   2.824113   2.371851   1.428759
     7  C    4.764743   3.860720   2.534345   2.810698   2.429333
     8  C    3.243391   2.574192   1.526379   2.540602   2.942370
     9  C    4.651256   2.746826   2.424810   1.394127   2.359685
    10  N    4.154508   2.422306   2.830579   2.415953   3.631129
    11  C    2.860695   1.396879   2.418539   2.738516   4.115213
    12  H    5.559079   4.320472   3.052043   2.715561   2.072895
    13  H    6.580582   5.265420   3.871924   3.287854   2.059808
    14  H    5.334120   4.711407   3.462618   3.844858   3.374105
    15  H    5.110579   4.192389   2.940094   3.103231   2.659073
    16  H    3.260427   2.917271   2.133847   3.158150   3.567707
    17  H    2.953911   2.811622   2.165002   3.334278   3.813078
    18  H    5.729623   3.825818   3.404902   2.148243   2.567793
    19  H    2.963676   2.154197   3.401730   3.818295   5.193660
                    6          7          8          9         10
     6  C    0.000000
     7  C    1.538786   0.000000
     8  C    2.540094   1.541812   0.000000
     9  C    3.610735   4.198135   3.821330   0.000000
    10  N    4.763381   5.103210   4.356457   1.356563   0.000000
    11  C    4.969203   4.937625   3.841890   2.318819   1.356760
    12  H    1.092166   2.169811   2.779608   3.850522   4.908903
    13  H    1.090668   2.178231   3.491566   4.403914   5.650195
    14  H    2.177844   1.090374   2.177749   5.237020   6.124704
    15  H    2.149694   1.091303   2.167023   4.391386   5.303860
    16  H    2.951486   2.173862   1.091289   4.364293   4.806284
    17  H    3.468724   2.175106   1.091317   4.510100   4.865143
    18  H    3.934397   4.792414   4.687134   1.079187   2.082732
    19  H    6.032380   5.928164   4.723767   3.283465   2.077248
                   11         12         13         14         15
    11  C    0.000000
    12  H    5.067613   0.000000
    13  H    5.974615   1.759565   0.000000
    14  H    5.880178   2.535029   2.496868   0.000000
    15  H    5.192966   3.056841   2.498226   1.747098   0.000000
    16  H    4.196585   2.782926   3.900922   2.418697   3.049616
    17  H    4.153298   3.824550   4.312320   2.609020   2.405105
    18  H    3.286729   4.198525   4.520769   5.813902   4.919928
    19  H    1.080104   6.088689   7.048264   6.833393   6.170199
                   16         17         18         19
    16  H    0.000000
    17  H    1.748020   0.000000
    18  H    5.239214   5.425905   0.000000
    19  H    4.992002   4.898814   4.151387   0.000000
 Stoichiometry    C8H8BrNO
 Framework group  C1[X(C8H8BrNO)]
 Deg. of freedom    51
 Full point group                 C1      NOp   1
 Largest Abelian subgroup         C1      NOp   1
 Largest concise Abelian subgroup C1      NOp   1
                         Standard orientation:                         
 ---------------------------------------------------------------------
 Center     Atomic      Atomic             Coordinates (Angstroms)
 Number     Number       Type             X           Y           Z
 ---------------------------------------------------------------------
      1         35           0        2.383024   -0.554461    0.026134
      2          6           0        0.795779    0.500669   -0.009230
      3          6           0       -0.476745   -0.092762   -0.031659
      4          6           0       -1.593350    0.767949   -0.036354
      5          8           0       -2.901930    0.328522   -0.097827
      6          6           0       -3.119010   -0.998546    0.384996
      7          6           0       -2.153182   -1.972567   -0.312372
      8          6           0       -0.685299   -1.604756   -0.017045
      9          6           0       -1.401428    2.148794   -0.041105
     10          7           0       -0.171742    2.721321   -0.022423
     11          6           0        0.903017    1.893421   -0.005900
     12          1           0       -2.965225   -1.030876    1.465797
     13          1           0       -4.155308   -1.279819    0.193871
     14          1           0       -2.357230   -3.000173   -0.010205
     15          1           0       -2.332679   -1.925939   -1.387801
     16          1           0       -0.395849   -1.976624    0.967253
     17          1           0       -0.023068   -2.088781   -0.736868
     18          1           0       -2.252013    2.812506   -0.066312
     19          1           0        1.874480    2.365220    0.011174
 ---------------------------------------------------------------------
 Rotational constants (GHZ):           1.3572789           0.5698150           0.4070480
 Standard basis: 6-31G(d,p) (6D, 7F)
 There are   220 symmetry adapted cartesian basis functions of A   symmetry.
 There are   220 symmetry adapted basis functions of A   symmetry.
   220 basis functions,   419 primitive gaussians,   220 cartesian basis functions
    53 alpha electrons       53 beta electrons
       nuclear repulsion energy       854.6693649664 Hartrees.
 NAtoms=   19 NActive=   19 NUniq=   19 SFac= 1.00D+00 NAtFMM=   60 NAOKFM=F Big=F
 Integral buffers will be    131072 words long.
 Raffenetti 2 integral format.
 Two-electron integral symmetry is turned on.
 Nuclear repulsion after empirical dispersion term =      854.6290604573 Hartrees.
 One-electron integrals computed using PRISM.
 NBasis=   220 RedAO= T EigKep=  6.20D-04  NBF=   220
 NBsUse=   220 1.00D-06 EigRej= -1.00D+00 NBFU=   220
 ExpMin= 1.43D-01 ExpMax= 5.74D+05 ExpMxC= 5.74D+03 IAcc=3 IRadAn=         5 AccDes= 0.00D+00
 Harris functional with IExCor=  402 and IRadAn=       5 diagonalized for initial guess.
 HarFok:  IExCor=  402 AccDes= 0.00D+00 IRadAn=         5 IDoV= 1 UseB2=F ITyADJ=14
 ICtDFT=  3500011 ScaDFX=  1.000000  1.000000  1.000000  1.000000
 FoFCou: FMM=F IPFlag=           0 FMFlag=      100000 FMFlg1=           0
         NFxFlg=           0 DoJE=T BraDBF=F KetDBF=T FulRan=T
         wScrn=  0.000000 ICntrl=       500 IOpCl=  0 I1Cent=   200000004 NGrid=           0
         NMat0=    1 NMatS0=      1 NMatT0=    0 NMatD0=    1 NMtDS0=    0 NMtDT0=    0
 Petite list used in FoFCou.
 Requested convergence on RMS density matrix=1.00D-08 within 128 cycles.
 Requested convergence on MAX density matrix=1.00D-06.
 Requested convergence on             energy=1.00D-06.
 No special actions if energy rises.
 Integral accuracy reduced to 1.0D-05 until final iterations.
 Initial convergence to 1.0D-05 achieved.  Increase integral accuracy.
 SCF Done:  E(RB3LYP) =  -3011.39402571     A.U. after   14 cycles
            NFock= 14  Conv=0.50D-08     -V/T= 2.0067

 **********************************************************************

            Population analysis using the SCF Density.

 **********************************************************************

 Orbital symmetries:
       Occupied  (A) (A) (A) (A) (A) (A) (A) (A) (A) (A) (A) (A)
                 (A) (A) (A) (A) (A) (A) (A) (A) (A) (A) (A) (A)
                 (A) (A) (A) (A) (A) (A) (A) (A) (A) (A) (A) (A)
                 (A) (A) (A) (A) (A) (A) (A) (A) (A) (A) (A) (A)
                 (A) (A) (A) (A) (A)
       Virtual   (A) (A) (A) (A) (A) (A) (A) (A) (A) (A) (A) (A)
                 (A) (A) (A) (A) (A) (A) (A) (A) (A) (A) (A) (A)
                 (A) (A) (A) (A) (A) (A) (A) (A) (A) (A) (A) (A)
                 (A) (A) (A) (A) (A) (A) (A) (A) (A) (A) (A) (A)
                 (A) (A) (A) (A) (A) (A) (A) (A) (A) (A) (A) (A)
                 (A) (A) (A) (A) (A) (A) (A) (A) (A) (A) (A) (A)
                 (A) (A) (A) (A) (A) (A) (A) (A) (A) (A) (A) (A)
                 (A) (A) (A) (A) (A) (A) (A) (A) (A) (A) (A) (A)
                 (A) (A) (A) (A) (A) (A) (A) (A) (A) (A) (A) (A)
                 (A) (A) (A) (A) (A) (A) (A) (A) (A) (A) (A) (A)
                 (A) (A) (A) (A) (A) (A) (A) (A) (A) (A) (A) (A)
                 (A) (A) (A) (A) (A) (A) (A) (A) (A) (A) (A) (A)
                 (A) (A) (A) (A) (A) (A) (A) (A) (A) (A) (A) (A)
                 (A) (A) (A) (A) (A) (A) (A) (A) (A) (A) (A)
 The electronic state is 1-A.
 Alpha  occ. eigenvalues -- -482.92117 -61.88260 -56.40375 -56.39962 -56.39951
 Alpha  occ. eigenvalues --  -19.18763 -14.34103 -10.26294 -10.25426 -10.25376
 Alpha  occ. eigenvalues --  -10.22768 -10.22756 -10.22406 -10.20972 -10.20389
 Alpha  occ. eigenvalues --   -8.59351  -6.54739  -6.53467  -6.53429  -2.66309
 Alpha  occ. eigenvalues --   -2.65948  -2.65920  -2.64905  -2.64905  -1.07233
 Alpha  occ. eigenvalues --   -0.93840  -0.84688  -0.80507  -0.79427  -0.73610
 Alpha  occ. eigenvalues --   -0.69239  -0.66017  -0.61697  -0.58245  -0.52625
 Alpha  occ. eigenvalues --   -0.52076  -0.50386  -0.46581  -0.45098  -0.44687
 Alpha  occ. eigenvalues --   -0.43060  -0.41666  -0.40811  -0.39032  -0.37435
 Alpha  occ. eigenvalues --   -0.36462  -0.34467  -0.32749  -0.31518  -0.29755
 Alpha  occ. eigenvalues --   -0.26319  -0.25949  -0.23568
 Alpha virt. eigenvalues --   -0.03324  -0.01140   0.00231   0.08300   0.11016
 Alpha virt. eigenvalues --    0.11440   0.13195   0.13928   0.14977   0.15174
 Alpha virt. eigenvalues --    0.15703   0.16598   0.18763   0.19179   0.20993
 Alpha virt. eigenvalues --    0.22785   0.23485   0.27554   0.28982   0.32060
 Alpha virt. eigenvalues --    0.32203   0.35297   0.40408   0.43520   0.44828
 Alpha virt. eigenvalues --    0.45358   0.46106   0.46330   0.47639   0.48416
 Alpha virt. eigenvalues --    0.50542   0.51817   0.53041   0.53927   0.54496
 Alpha virt. eigenvalues --    0.56136   0.56617   0.58258   0.59364   0.61982
 Alpha virt. eigenvalues --    0.62431   0.63696   0.64853   0.67209   0.68066
 Alpha virt. eigenvalues --    0.70636   0.74196   0.74721   0.79206   0.79851
 Alpha virt. eigenvalues --    0.80332   0.82986   0.83694   0.83977   0.85389
 Alpha virt. eigenvalues --    0.85834   0.86497   0.88496   0.89474   0.90344
 Alpha virt. eigenvalues --    0.91358   0.93499   0.95613   0.97197   1.01858
 Alpha virt. eigenvalues --    1.02935   1.04255   1.10880   1.15805   1.17963
 Alpha virt. eigenvalues --    1.18533   1.22256   1.23143   1.27290   1.31178
 Alpha virt. eigenvalues --    1.32763   1.33447   1.39545   1.41670   1.43543
 Alpha virt. eigenvalues --    1.43922   1.45523   1.52923   1.55057   1.57105
 Alpha virt. eigenvalues --    1.61422   1.63582   1.66843   1.70676   1.72560
 Alpha virt. eigenvalues --    1.76168   1.76633   1.78906   1.80260   1.82131
 Alpha virt. eigenvalues --    1.83632   1.87213   1.88532   1.90448   1.90643
 Alpha virt. eigenvalues --    1.93074   1.96256   1.98135   2.00258   2.04966
 Alpha virt. eigenvalues --    2.07147   2.09604   2.10613   2.12308   2.12676
 Alpha virt. eigenvalues --    2.15436   2.20051   2.20621   2.22309   2.25016
 Alpha virt. eigenvalues --    2.29441   2.31335   2.33017   2.33669   2.37477
 Alpha virt. eigenvalues --    2.40109   2.40839   2.45668   2.46089   2.51794
 Alpha virt. eigenvalues --    2.53026   2.54618   2.58229   2.58705   2.60843
 Alpha virt. eigenvalues --    2.64298   2.66034   2.66585   2.70254   2.70453
 Alpha virt. eigenvalues --    2.72684   2.77751   2.79767   2.81866   2.86175
 Alpha virt. eigenvalues --    2.87728   2.90585   2.96541   3.00885   3.07802
 Alpha virt. eigenvalues --    3.18989   3.21335   3.24539   3.29599   3.32534
 Alpha virt. eigenvalues --    3.39858   3.43523   3.47200   3.52532   3.61195
 Alpha virt. eigenvalues --    4.04070   4.07061   4.15442   4.23585   4.33170
 Alpha virt. eigenvalues --    4.37312   4.47446   4.52097   4.59933   4.77078
 Alpha virt. eigenvalues --    8.61808  73.17922
          Condensed to atoms (all electrons):
               1          2          3          4          5          6
     1  Br  34.969842   0.260262  -0.070299   0.005176  -0.000026  -0.000027
     2  C    0.260262   5.055512   0.438868   0.009218   0.005147   0.000239
     3  C   -0.070299   0.438868   5.027647   0.432521  -0.050786  -0.015292
     4  C    0.005176   0.009218   0.432521   4.749586   0.243136  -0.028314
     5  O   -0.000026   0.005147  -0.050786   0.243136   8.254042   0.247682
     6  C   -0.000027   0.000239  -0.015292  -0.028314   0.247682   4.731031
     7  C    0.000613   0.005283  -0.025903  -0.016841  -0.042841   0.353225
     8  C   -0.010283  -0.071796   0.358013  -0.060602  -0.016401  -0.036982
     9  C    0.000040  -0.042583  -0.057449   0.461419  -0.050181   0.002540
    10  N    0.004116  -0.014136  -0.050410  -0.004453   0.002835  -0.000105
    11  C   -0.055969   0.437673  -0.031187  -0.048111  -0.000020   0.000004
    12  H   -0.000003  -0.000356   0.002341  -0.000249  -0.040290   0.374459
    13  H    0.000000   0.000027   0.000521   0.002050  -0.029206   0.390587
    14  H   -0.000006  -0.000116   0.003776   0.000761   0.003041  -0.026699
    15  H   -0.000006  -0.000274  -0.003972   0.001268   0.000179  -0.036482
    16  H    0.003509  -0.005436  -0.032541  -0.000970   0.000005  -0.002575
    17  H    0.007036  -0.007491  -0.028869   0.001695   0.000035   0.004172
    18  H    0.000015   0.000406   0.005347  -0.056404   0.002798  -0.000136
    19  H    0.002729  -0.063215   0.003326   0.000641   0.000003  -0.000000
               7          8          9         10         11         12
     1  Br   0.000613  -0.010283   0.000040   0.004116  -0.055969  -0.000003
     2  C    0.005283  -0.071796  -0.042583  -0.014136   0.437673  -0.000356
     3  C   -0.025903   0.358013  -0.057449  -0.050410  -0.031187   0.002341
     4  C   -0.016841  -0.060602   0.461419  -0.004453  -0.048111  -0.000249
     5  O   -0.042841  -0.016401  -0.050181   0.002835  -0.000020  -0.040290
     6  C    0.353225  -0.036982   0.002540  -0.000105   0.000004   0.374459
     7  C    5.007698   0.345477  -0.000038  -0.000003  -0.000142  -0.053642
     8  C    0.345477   5.017997   0.007427  -0.000162   0.006422  -0.006158
     9  C   -0.000038   0.007427   4.868964   0.433435  -0.066689   0.000495
    10  N   -0.000003  -0.000162   0.433435   6.730133   0.435061  -0.000010
    11  C   -0.000142   0.006422  -0.066689   0.435061   4.842921  -0.000006
    12  H   -0.053642  -0.006158   0.000495  -0.000010  -0.000006   0.650997
    13  H   -0.032401   0.003758  -0.000166   0.000002  -0.000001  -0.043588
    14  H    0.363254  -0.028754   0.000005  -0.000000   0.000001  -0.000030
    15  H    0.382972  -0.036334  -0.000100  -0.000002   0.000008   0.006214
    16  H   -0.035190   0.379867  -0.000224   0.000011  -0.000106   0.002264
    17  H   -0.030523   0.381470  -0.000121  -0.000001   0.000048   0.000083
    18  H    0.000032  -0.000150   0.376158  -0.047487   0.004667   0.000027
    19  H    0.000001  -0.000130   0.004273  -0.047515   0.389762   0.000000
              13         14         15         16         17         18
     1  Br   0.000000  -0.000006  -0.000006   0.003509   0.007036   0.000015
     2  C    0.000027  -0.000116  -0.000274  -0.005436  -0.007491   0.000406
     3  C    0.000521   0.003776  -0.003972  -0.032541  -0.028869   0.005347
     4  C    0.002050   0.000761   0.001268  -0.000970   0.001695  -0.056404
     5  O   -0.029206   0.003041   0.000179   0.000005   0.000035   0.002798
     6  C    0.390587  -0.026699  -0.036482  -0.002575   0.004172  -0.000136
     7  C   -0.032401   0.363254   0.382972  -0.035190  -0.030523   0.000032
     8  C    0.003758  -0.028754  -0.036334   0.379867   0.381470  -0.000150
     9  C   -0.000166   0.000005  -0.000100  -0.000224  -0.000121   0.376158
    10  N    0.000002  -0.000000  -0.000002   0.000011  -0.000001  -0.047487
    11  C   -0.000001   0.000001   0.000008  -0.000106   0.000048   0.004667
    12  H   -0.043588  -0.000030   0.006214   0.002264   0.000083   0.000027
    13  H    0.598133  -0.001127  -0.005569  -0.000088  -0.000139  -0.000018
    14  H   -0.001127   0.620230  -0.032291  -0.007013  -0.000252  -0.000001
    15  H   -0.005569  -0.032291   0.600744   0.005103  -0.006040   0.000004
    16  H   -0.000088  -0.007013   0.005103   0.594371  -0.034100   0.000003
    17  H   -0.000139  -0.000252  -0.006040  -0.034100   0.578066   0.000003
    18  H   -0.000018  -0.000001   0.000004   0.000003   0.000003   0.598560
    19  H    0.000000  -0.000000   0.000000   0.000002  -0.000001  -0.000152
              19
     1  Br   0.002729
     2  C   -0.063215
     3  C    0.003326
     4  C    0.000641
     5  O    0.000003
     6  C   -0.000000
     7  C    0.000001
     8  C   -0.000130
     9  C    0.004273
    10  N   -0.047515
    11  C    0.389762
    12  H    0.000000
    13  H    0.000000
    14  H   -0.000000
    15  H    0.000000
    16  H    0.000002
    17  H   -0.000001
    18  H   -0.000152
    19  H    0.594935
 Mulliken charges:
               1
     1  Br  -0.116722
     2  C   -0.007232
     3  C    0.094348
     4  C    0.308473
     5  O   -0.529153
     6  C    0.042675
     7  C   -0.221032
     8  C   -0.232680
     9  C    0.062794
    10  N   -0.441309
    11  C    0.085662
    12  H    0.107450
    13  H    0.117224
    14  H    0.105219
    15  H    0.124577
    16  H    0.133109
    17  H    0.134929
    18  H    0.116327
    19  H    0.115340
 Sum of Mulliken charges =  -0.00000
 Mulliken charges with hydrogens summed into heavy atoms:
               1
     1  Br  -0.116722
     2  C   -0.007232
     3  C    0.094348
     4  C    0.308473
     5  O   -0.529153
     6  C    0.267349
     7  C    0.008765
     8  C    0.035358
     9  C    0.179121
    10  N   -0.441309
    11  C    0.201002
 Electronic spatial extent (au):  <R**2>=           2472.5811
 Charge=             -0.0000 electrons
 Dipole moment (field-independent basis, Debye):
    X=             -1.4948    Y=             -3.2726    Z=              0.4171  Tot=              3.6219
 Quadrupole moment (field-independent basis, Debye-Ang):
   XX=            -72.2143   YY=            -78.4412   ZZ=            -76.2757
   XY=              4.6238   XZ=             -1.4458   YZ=             -0.1872
 Traceless Quadrupole moment (field-independent basis, Debye-Ang):
   XX=              3.4294   YY=             -2.7975   ZZ=             -0.6319
   XY=              4.6238   XZ=             -1.4458   YZ=             -0.1872
 Octapole moment (field-independent basis, Debye-Ang**2):
  XXX=             57.6126  YYY=            -49.0300  ZZZ=              0.8616  XYY=             14.2416
  XXY=            -15.8989  XXZ=              4.8984  XZZ=             18.9939  YZZ=             -8.9289
  YYZ=              0.2263  XYZ=              1.0423
 Hexadecapole moment (field-independent basis, Debye-Ang**3):
 XXXX=          -1721.7888 YYYY=          -1110.9562 ZZZZ=           -108.1747 XXXY=             -5.2467
 XXXZ=            -11.1072 YYYX=            -44.4309 YYYZ=             -1.7250 ZZZX=              2.1050
 ZZZY=             -0.4345 XXYY=           -417.2476 XXZZ=           -319.2068 YYZZ=           -191.1040
 XXYZ=             -3.1116 YYXZ=              0.6011 ZZXY=            -11.5609
 N-N= 8.546290604573D+02 E-N=-8.864087207025D+03  KE= 2.991360154357D+03
 Calling FoFJK, ICntrl=      2127 FMM=F ISym2X=0 I1Cent= 0 IOpClX= 0 NMat=1 NMatS=1 NMatT=0.
 ***** Axes restored to original set *****
 -------------------------------------------------------------------
 Center     Atomic                   Forces (Hartrees/Bohr)
 Number     Number              X              Y              Z
 -------------------------------------------------------------------
      1       35          -0.001639247   -0.000831322    0.000312052
      2        6          -0.002016605   -0.016915401    0.002653280
      3        6          -0.011114237    0.006962606   -0.002065482
      4        6          -0.004706231   -0.000394768    0.004374702
      5        8           0.006093758    0.003077878   -0.004357956
      6        6          -0.001759735    0.017602144    0.002535204
      7        6           0.004230221   -0.002520012   -0.001678761
      8        6           0.002173843   -0.010847459    0.002922546
      9        6           0.020930843    0.014295873   -0.003513170
     10        7          -0.019072709    0.010260050   -0.000016539
     11        6          -0.001997814   -0.014944940    0.002614501
     12        1           0.001942418   -0.000832858   -0.004772894
     13        1           0.003906909   -0.004142781    0.004053708
     14        1          -0.002115506    0.000359866   -0.002673458
     15        1           0.000656607   -0.001464685    0.002935818
     16        1          -0.000289586    0.001904590   -0.003584960
     17        1           0.002085548    0.001356851    0.000490310
     18        1          -0.000770506   -0.004570472    0.000395388
     19        1           0.003462027    0.001644841   -0.000624289
 -------------------------------------------------------------------
 Cartesian Forces:  Max     0.020930843 RMS     0.006725417

 GradGradGradGradGradGradGradGradGradGradGradGradGradGradGradGradGradGrad
 Berny optimization.
 FormGI is forming the generalized inverse of G from B-inverse, IUseBI=4.
 Internal  Forces:  Max     0.019361711 RMS     0.004058062
 Search for a local minimum.
 Step number   1 out of a maximum of  114
 All quantities printed in internal units (Hartrees-Bohrs-Radians)
 Mixed Optimization -- RFO/linear search
 Second derivative matrix not updated -- first step.
 ITU=  0
     Eigenvalues ---    0.00432   0.00913   0.01291   0.01825   0.02021
     Eigenvalues ---    0.02079   0.02128   0.02170   0.02197   0.02234
     Eigenvalues ---    0.03367   0.03484   0.04768   0.05136   0.05701
     Eigenvalues ---    0.06288   0.08008   0.08341   0.09174   0.10898
     Eigenvalues ---    0.11410   0.12583   0.16000   0.16000   0.17948
     Eigenvalues ---    0.19071   0.19666   0.23236   0.23473   0.24542
     Eigenvalues ---    0.24992   0.25000   0.27679   0.27874   0.29358
     Eigenvalues ---    0.34564   0.34661   0.34663   0.34664   0.34736
     Eigenvalues ---    0.34769   0.35982   0.36093   0.39285   0.40484
     Eigenvalues ---    0.42471   0.44896   0.46395   0.47416   0.51756
     Eigenvalues ---    0.52966
 RFO step:  Lambda=-5.40789718D-03 EMin= 4.31947203D-03
 Linear search not attempted -- first point.
 Iteration  1 RMS(Cart)=  0.02386198 RMS(Int)=  0.00044428
 Iteration  2 RMS(Cart)=  0.00048233 RMS(Int)=  0.00015485
 Iteration  3 RMS(Cart)=  0.00000033 RMS(Int)=  0.00015485
 Variable       Old X    -DE/DX   Delta X   Delta X   Delta X     New X
                                 (Linear)    (Quad)   (Total)
    R1        3.60234  -0.00100   0.00000  -0.00543  -0.00543   3.59691
    R2        2.65369  -0.00925   0.00000  -0.01932  -0.01930   2.63439
    R3        2.63972  -0.00349   0.00000  -0.00763  -0.00761   2.63211
    R4        2.66421  -0.00826   0.00000  -0.01813  -0.01812   2.64609
    R5        2.88444  -0.00858   0.00000  -0.02813  -0.02811   2.85633
    R6        2.61114  -0.01191   0.00000  -0.02496  -0.02498   2.58617
    R7        2.63452   0.00199   0.00000   0.00428   0.00426   2.63878
    R8        2.69996  -0.00060   0.00000  -0.00145  -0.00139   2.69858
    R9        2.90788  -0.00801   0.00000  -0.02682  -0.02695   2.88093
   R10        2.06389   0.00486   0.00000   0.01383   0.01383   2.07773
   R11        2.06106   0.00039   0.00000   0.00111   0.00111   2.06218
   R12        2.91360  -0.00577   0.00000  -0.01848  -0.01842   2.89518
   R13        2.06051   0.00282   0.00000   0.00797   0.00797   2.06848
   R14        2.06226   0.00290   0.00000   0.00822   0.00822   2.07049
   R15        2.06224   0.00397   0.00000   0.01127   0.01127   2.07350
   R16        2.06229   0.00152   0.00000   0.00431   0.00431   2.06660
   R17        2.56353  -0.01936   0.00000  -0.03659  -0.03662   2.52692
   R18        2.03937   0.00457   0.00000   0.01246   0.01246   2.05183
   R19        2.56391  -0.01899   0.00000  -0.03603  -0.03603   2.52788
   R20        2.04110   0.00388   0.00000   0.01062   0.01062   2.05172
    A1        2.11872  -0.00638   0.00000  -0.02593  -0.02596   2.09276
    A2        2.08048  -0.00073   0.00000  -0.00380  -0.00383   2.07665
    A3        2.08397   0.00712   0.00000   0.02978   0.02980   2.11377
    A4        2.04853  -0.00863   0.00000  -0.02948  -0.02942   2.01911
    A5        2.14393   0.00243   0.00000   0.00739   0.00743   2.15136
    A6        2.09043   0.00620   0.00000   0.02242   0.02222   2.11266
    A7        2.16043  -0.00310   0.00000  -0.01511  -0.01542   2.14501
    A8        2.08940   0.00015   0.00000   0.00436   0.00430   2.09370
    A9        2.03221   0.00301   0.00000   0.01206   0.01206   2.04426
   A10        2.00892  -0.00126   0.00000  -0.00313  -0.00342   2.00550
   A11        1.91709   0.00340   0.00000   0.01683   0.01673   1.93382
   A12        1.91826  -0.00149   0.00000  -0.00653  -0.00673   1.91153
   A13        1.90147  -0.00589   0.00000  -0.06274  -0.06269   1.83878
   A14        1.91916   0.00062   0.00000   0.01355   0.01322   1.93238
   A15        1.93233   0.00210   0.00000   0.01816   0.01816   1.95049
   A16        1.87504   0.00111   0.00000   0.01982   0.01909   1.89413
   A17        1.93880  -0.00415   0.00000  -0.02504  -0.02526   1.91354
   A18        1.93210   0.00099   0.00000  -0.00503  -0.00503   1.92707
   A19        1.89264   0.00019   0.00000  -0.00160  -0.00155   1.89110
   A20        1.92827   0.00144   0.00000   0.00310   0.00284   1.93111
   A21        1.91257   0.00153   0.00000   0.01204   0.01197   1.92454
   A22        1.85728   0.00020   0.00000   0.01863   0.01853   1.87581
   A23        1.94395  -0.00191   0.00000  -0.00543  -0.00556   1.93839
   A24        1.88593   0.00064   0.00000   0.00661   0.00659   1.89252
   A25        1.92849  -0.00076   0.00000  -0.01757  -0.01743   1.91107
   A26        1.92196   0.00118   0.00000   0.00924   0.00938   1.93134
   A27        1.92365   0.00158   0.00000   0.01056   0.01038   1.93402
   A28        1.85755  -0.00067   0.00000  -0.00329  -0.00337   1.85418
   A29        2.14452   0.00207   0.00000   0.00746   0.00740   2.15192
   A30        2.09524  -0.00177   0.00000  -0.00819  -0.00817   2.08707
   A31        2.04341  -0.00029   0.00000   0.00077   0.00079   2.04420
   A32        2.04958   0.00179   0.00000   0.00132   0.00126   2.05084
   A33        2.15024  -0.00249   0.00000  -0.01336  -0.01335   2.13689
   A34        2.09972   0.00120   0.00000   0.00640   0.00640   2.10612
   A35        2.03323   0.00129   0.00000   0.00696   0.00695   2.04018
    D1        3.12509   0.00006   0.00000   0.00525   0.00512   3.13020
    D2        0.00972   0.00005   0.00000  -0.00946  -0.00942   0.00030
    D3       -0.01078  -0.00019   0.00000  -0.00486  -0.00501  -0.01579
    D4       -3.12615  -0.00021   0.00000  -0.01956  -0.01955   3.13749
    D5       -3.13512  -0.00003   0.00000  -0.00733  -0.00738   3.14069
    D6        0.00567  -0.00012   0.00000  -0.00668  -0.00672  -0.00105
    D7        0.00088   0.00019   0.00000   0.00247   0.00258   0.00346
    D8       -3.14152   0.00011   0.00000   0.00312   0.00323  -3.13828
    D9        3.10653   0.00118   0.00000   0.02824   0.02825   3.13479
   D10        0.01829  -0.00019   0.00000  -0.00251  -0.00235   0.01593
   D11       -0.06045   0.00115   0.00000   0.04227   0.04224  -0.01821
   D12        3.13449  -0.00023   0.00000   0.01151   0.01163  -3.13706
   D13       -2.95576   0.00052   0.00000   0.01406   0.01436  -2.94140
   D14        1.21424  -0.00018   0.00000   0.00164   0.00187   1.21611
   D15       -0.81153   0.00067   0.00000   0.01137   0.01163  -0.79990
   D16        0.21266   0.00073   0.00000  -0.00022  -0.00018   0.21248
   D17       -1.90052   0.00002   0.00000  -0.01264  -0.01267  -1.91319
   D18        2.35690   0.00087   0.00000  -0.00291  -0.00291   2.35398
   D19        0.43121  -0.00315   0.00000  -0.05578  -0.05541   0.37581
   D20       -2.76212  -0.00189   0.00000  -0.02613  -0.02580  -2.78792
   D21       -0.01671   0.00048   0.00000   0.01276   0.01272  -0.00399
   D22        3.11847   0.00066   0.00000   0.01951   0.01958   3.13805
   D23       -3.10879  -0.00062   0.00000  -0.01498  -0.01534  -3.12413
   D24        0.02639  -0.00045   0.00000  -0.00823  -0.00848   0.01790
   D25       -0.91865  -0.00108   0.00000   0.00810   0.00835  -0.91030
   D26        1.19508   0.00091   0.00000   0.03152   0.03133   1.22641
   D27       -3.03799  -0.00206   0.00000   0.01493   0.01534  -3.02264
   D28        1.06711   0.00125   0.00000   0.02268   0.02271   1.08983
   D29       -3.06698   0.00088   0.00000   0.00549   0.00563  -3.06135
   D30       -1.03563   0.00178   0.00000   0.02422   0.02426  -1.01137
   D31       -1.04608   0.00053   0.00000   0.01132   0.01138  -1.03469
   D32        1.10302   0.00015   0.00000  -0.00587  -0.00570   1.09732
   D33        3.13436   0.00106   0.00000   0.01286   0.01293  -3.13589
   D34       -3.11534  -0.00254   0.00000  -0.03293  -0.03311   3.13474
   D35       -0.96624  -0.00291   0.00000  -0.05012  -0.05019  -1.01644
   D36        1.06510  -0.00200   0.00000  -0.03140  -0.03156   1.03354
   D37       -0.69364  -0.00005   0.00000  -0.01933  -0.01920  -0.71285
   D38        1.39834   0.00030   0.00000  -0.00844  -0.00833   1.39001
   D39       -2.84065   0.00114   0.00000  -0.00057  -0.00037  -2.84103
   D40       -2.84494   0.00057   0.00000   0.00244   0.00249  -2.84245
   D41       -0.75296   0.00092   0.00000   0.01333   0.01336  -0.73959
   D42        1.29123   0.00176   0.00000   0.02121   0.02132   1.31256
   D43        1.39728  -0.00144   0.00000  -0.02932  -0.02938   1.36789
   D44       -2.79392  -0.00109   0.00000  -0.01843  -0.01851  -2.81244
   D45       -0.74973  -0.00025   0.00000  -0.01055  -0.01055  -0.76029
   D46        0.00639  -0.00055   0.00000  -0.01529  -0.01535  -0.00896
   D47       -3.12897  -0.00071   0.00000  -0.02182  -0.02202   3.13220
   D48        0.00162   0.00019   0.00000   0.00755   0.00761   0.00924
   D49       -3.13920   0.00028   0.00000   0.00692   0.00698  -3.13221
         Item               Value     Threshold  Converged?
 Maximum Force            0.019362     0.000450     NO 
 RMS     Force            0.004058     0.000300     NO 
 Maximum Displacement     0.089946     0.001800     NO 
 RMS     Displacement     0.024063     0.001200     NO 
 Predicted change in Energy=-2.804205D-03
 GradGradGradGradGradGradGradGradGradGradGradGradGradGradGradGradGradGrad

                          Input orientation:                          
 ---------------------------------------------------------------------
 Center     Atomic      Atomic             Coordinates (Angstroms)
 Number     Number       Type             X           Y           Z
 ---------------------------------------------------------------------
      1         35           0        1.807445    2.893260   -0.585726
      2          6           0        1.673084    1.030107   -0.220286
      3          6           0        0.419654    0.443090   -0.053783
      4          6           0        0.423132   -0.934445    0.197399
      5          8           0       -0.722430   -1.657551    0.391580
      6          6           0       -1.907227   -1.060693   -0.136884
      7          6           0       -2.055321    0.375076    0.353838
      8          6           0       -0.876461    1.214980   -0.148234
      9          6           0        1.634082   -1.624173    0.285479
     10          7           0        2.826021   -1.036642    0.136618
     11          6           0        2.839965    0.276351   -0.118887
     12          1           0       -1.877449   -1.095151   -1.235427
     13          1           0       -2.727503   -1.692546    0.207718
     14          1           0       -3.004701    0.799345    0.012064
     15          1           0       -2.074837    0.364957    1.449272
     16          1           0       -1.029071    1.510164   -1.193955
     17          1           0       -0.790407    2.143986    0.422290
     18          1           0        1.629689   -2.691688    0.483759
     19          1           0        3.812637    0.741473   -0.246835
 ---------------------------------------------------------------------
                    Distance matrix (angstroms):
                    1          2          3          4          5
     1  Br   0.000000
     2  C    1.903402   0.000000
     3  C    2.865704   1.394058   0.000000
     4  C    4.144989   2.365651   1.400253   0.000000
     5  O    5.297667   3.651900   2.432159   1.368540   0.000000
     6  C    5.443711   4.146929   2.771758   2.357596   1.428026
     7  C    4.705847   3.828797   2.509239   2.807498   2.430965
     8  C    3.195524   2.557254   1.511506   2.535435   2.926868
     9  C    4.603939   2.702317   2.421469   1.396382   2.359136
    10  N    4.123519   2.393344   2.831336   2.405829   3.611376
    11  C    2.851710   1.392854   2.426921   2.721607   4.085488
    12  H    5.468819   4.260695   3.006518   2.715049   2.073045
    13  H    6.498070   5.192416   3.812337   3.240574   2.013789
    14  H    5.281911   4.689233   3.443466   3.845831   3.374778
    15  H    5.060202   4.156532   2.913377   3.081474   2.652971
    16  H    3.213833   2.912066   2.130127   3.165576   3.555611
    17  H    2.885540   2.778924   2.141014   3.316624   3.802269
    18  H    5.689204   3.788050   3.402935   2.150740   2.571070
    19  H    2.960714   2.159097   3.411544   3.807202   5.170080
                    6          7          8          9         10
     6  C    0.000000
     7  C    1.524523   0.000000
     8  C    2.498258   1.532066   0.000000
     9  C    3.610647   4.196828   3.814672   0.000000
    10  N    4.741204   5.086023   4.342731   1.337187   0.000000
    11  C    4.931921   4.919049   3.833238   2.286844   1.337695
    12  H    1.099487   2.172319   2.742384   3.863143   4.899853
    13  H    1.091256   2.179045   3.465077   4.362814   5.592574
    14  H    2.164803   1.094594   2.174363   5.240849   6.114219
    15  H    2.139267   1.095655   2.170407   4.366593   5.263644
    16  H    2.915109   2.176529   1.097250   4.370947   4.808157
    17  H    3.439466   2.175715   1.093597   4.482844   4.824578
    18  H    3.943998   4.795958   4.684256   1.085782   2.071447
    19  H    5.998061   5.909990   4.713976   3.259714   2.069334
                   11         12         13         14         15
    11  C    0.000000
    12  H    5.038023   0.000000
    13  H    5.914382   1.778240   0.000000
    14  H    5.869480   2.532991   2.514883   0.000000
    15  H    5.159676   3.062432   2.490130   1.766042   0.000000
    16  H    4.200893   2.740279   3.886734   2.421334   3.064600
    17  H    4.118317   3.797591   4.303180   2.622869   2.422683
    18  H    3.261473   4.219544   4.478795   5.821286   4.898858
    19  H    1.085726   6.060329   6.993174   6.822498   6.138476
                   16         17         18         19
    16  H    0.000000
    17  H    1.752410   0.000000
    18  H    5.247789   5.407808   0.000000
    19  H    4.993001   4.858270   4.133476   0.000000
 Stoichiometry    C8H8BrNO
 Framework group  C1[X(C8H8BrNO)]
 Deg. of freedom    51
 Full point group                 C1      NOp   1
 Largest Abelian subgroup         C1      NOp   1
 Largest concise Abelian subgroup C1      NOp   1
                         Standard orientation:                         
 ---------------------------------------------------------------------
 Center     Atomic      Atomic             Coordinates (Angstroms)
 Number     Number       Type             X           Y           Z
 ---------------------------------------------------------------------
      1         35           0        2.348928   -0.556998    0.029287
      2          6           0        0.773632    0.510807   -0.005015
      3          6           0       -0.479479   -0.099620   -0.027129
      4          6           0       -1.577661    0.769060   -0.037110
      5          8           0       -2.873227    0.329120   -0.066515
      6          6           0       -3.063884   -1.010708    0.389298
      7          6           0       -2.125424   -1.968162   -0.336474
      8          6           0       -0.671485   -1.598879   -0.025161
      9          6           0       -1.374020    2.150494   -0.044207
     10          7           0       -0.161271    2.713758   -0.037556
     11          6           0        0.898627    1.898020   -0.012760
     12          1           0       -2.901482   -1.055802    1.475790
     13          1           0       -4.111371   -1.238941    0.185531
     14          1           0       -2.332481   -3.001966   -0.042343
     15          1           0       -2.315343   -1.887905   -1.412555
     16          1           0       -0.376077   -1.985205    0.958426
     17          1           0        0.008917   -2.054929   -0.749748
     18          1           0       -2.229997    2.818404   -0.055283
     19          1           0        1.878247    2.365932    0.001507
 ---------------------------------------------------------------------
 Rotational constants (GHZ):           1.3573777           0.5854911           0.4151828
 Standard basis: 6-31G(d,p) (6D, 7F)
 There are   220 symmetry adapted cartesian basis functions of A   symmetry.
 There are   220 symmetry adapted basis functions of A   symmetry.
   220 basis functions,   419 primitive gaussians,   220 cartesian basis functions
    53 alpha electrons       53 beta electrons
       nuclear repulsion energy       860.9328462040 Hartrees.
 NAtoms=   19 NActive=   19 NUniq=   19 SFac= 1.00D+00 NAtFMM=   60 NAOKFM=F Big=F
 Integral buffers will be    131072 words long.
 Raffenetti 2 integral format.
 Two-electron integral symmetry is turned on.
 Nuclear repulsion after empirical dispersion term =      860.8922918779 Hartrees.
 One-electron integrals computed using PRISM.
 NBasis=   220 RedAO= T EigKep=  5.95D-04  NBF=   220
 NBsUse=   220 1.00D-06 EigRej= -1.00D+00 NBFU=   220
 Initial guess from the checkpoint file:  "pyrd1_conf-1.chk"
 B after Tr=    -0.000000   -0.000000   -0.000000
         Rot=    1.000000   -0.000749   -0.000183    0.000303 Ang=  -0.09 deg.
 ExpMin= 1.43D-01 ExpMax= 5.74D+05 ExpMxC= 5.74D+03 IAcc=3 IRadAn=         5 AccDes= 0.00D+00
 Harris functional with IExCor=  402 and IRadAn=       5 diagonalized for initial guess.
 HarFok:  IExCor=  402 AccDes= 0.00D+00 IRadAn=         5 IDoV= 1 UseB2=F ITyADJ=14
 ICtDFT=  3500011 ScaDFX=  1.000000  1.000000  1.000000  1.000000
 FoFCou: FMM=F IPFlag=           0 FMFlag=      100000 FMFlg1=           0
         NFxFlg=           0 DoJE=T BraDBF=F KetDBF=T FulRan=T
         wScrn=  0.000000 ICntrl=       500 IOpCl=  0 I1Cent=   200000004 NGrid=           0
         NMat0=    1 NMatS0=      1 NMatT0=    0 NMatD0=    1 NMtDS0=    0 NMtDT0=    0
 Petite list used in FoFCou.
 Requested convergence on RMS density matrix=1.00D-08 within 128 cycles.
 Requested convergence on MAX density matrix=1.00D-06.
 Requested convergence on             energy=1.00D-06.
 No special actions if energy rises.
 Integral accuracy reduced to 1.0D-05 until final iterations.
 Initial convergence to 1.0D-05 achieved.  Increase integral accuracy.
 SCF Done:  E(RB3LYP) =  -3011.39689982     A.U. after   12 cycles
            NFock= 12  Conv=0.76D-08     -V/T= 2.0066
 Calling FoFJK, ICntrl=      2127 FMM=F ISym2X=0 I1Cent= 0 IOpClX= 0 NMat=1 NMatS=1 NMatT=0.
 ***** Axes restored to original set *****
 -------------------------------------------------------------------
 Center     Atomic                   Forces (Hartrees/Bohr)
 Number     Number              X              Y              Z
 -------------------------------------------------------------------
      1       35           0.000463660    0.002737510   -0.000777621
      2        6           0.002295617   -0.003348493    0.000893772
      3        6          -0.003710590    0.003533162   -0.001525499
      4        6          -0.003091708   -0.003990929    0.002163180
      5        8           0.004917008    0.000541114   -0.002123413
      6        6          -0.004945561    0.001930254    0.001229021
      7        6           0.000290458   -0.000422714   -0.000622041
      8        6           0.000824664   -0.001708134    0.001207819
      9        6           0.006434592   -0.000634075    0.000353718
     10        7          -0.005771669    0.000729404   -0.000078026
     11        6           0.003437124   -0.000001188    0.000071038
     12        1           0.000530701   -0.000100476    0.000008441
     13        1          -0.000134974   -0.000480701   -0.000179546
     14        1           0.000053991   -0.000489373   -0.000125005
     15        1           0.000058133   -0.000009032   -0.000159467
     16        1          -0.000345315    0.000608698    0.000065277
     17        1           0.000523340    0.000592310   -0.000486769
     18        1          -0.001436025   -0.000550302    0.000314137
     19        1          -0.000393445    0.001062966   -0.000229016
 -------------------------------------------------------------------
 Cartesian Forces:  Max     0.006434592 RMS     0.002061920

 GradGradGradGradGradGradGradGradGradGradGradGradGradGradGradGradGradGrad
 Berny optimization.
 Using GEDIIS/GDIIS optimizer.
 FormGI is forming the generalized inverse of G from B-inverse, IUseBI=4.
 Internal  Forces:  Max     0.003073785 RMS     0.000911199
 Search for a local minimum.
 Step number   2 out of a maximum of  114
 All quantities printed in internal units (Hartrees-Bohrs-Radians)
 Mixed Optimization -- En-DIIS/RFO-DIIS
 Update second derivatives using D2CorX and points    1    2
 DE= -2.87D-03 DEPred=-2.80D-03 R= 1.02D+00
 TightC=F SS=  1.41D+00  RLast= 1.91D-01 DXNew= 5.0454D-01 5.7220D-01
 Trust test= 1.02D+00 RLast= 1.91D-01 DXMaxT set to 5.05D-01
 ITU=  1  0
 Use linear search instead of GDIIS.
     Eigenvalues ---    0.00443   0.00914   0.01274   0.01752   0.02017
     Eigenvalues ---    0.02081   0.02128   0.02170   0.02199   0.02237
     Eigenvalues ---    0.03431   0.03513   0.04926   0.05230   0.05563
     Eigenvalues ---    0.06138   0.07745   0.08203   0.09137   0.10787
     Eigenvalues ---    0.11592   0.12555   0.15852   0.16006   0.17885
     Eigenvalues ---    0.19559   0.19756   0.22308   0.23529   0.24634
     Eigenvalues ---    0.24917   0.25240   0.27416   0.28040   0.29292
     Eigenvalues ---    0.34534   0.34624   0.34663   0.34678   0.34737
     Eigenvalues ---    0.34798   0.35915   0.36037   0.39197   0.40872
     Eigenvalues ---    0.43341   0.44497   0.46156   0.46843   0.52023
     Eigenvalues ---    0.54237
 RFO step:  Lambda=-4.76691380D-04 EMin= 4.43444160D-03
 Quartic linear search produced a step of  0.04996.
 Iteration  1 RMS(Cart)=  0.01198517 RMS(Int)=  0.00012162
 Iteration  2 RMS(Cart)=  0.00017054 RMS(Int)=  0.00004454
 Iteration  3 RMS(Cart)=  0.00000002 RMS(Int)=  0.00004454
 Variable       Old X    -DE/DX   Delta X   Delta X   Delta X     New X
                                 (Linear)    (Quad)   (Total)
    R1        3.59691   0.00286  -0.00027   0.01652   0.01625   3.61316
    R2        2.63439   0.00304  -0.00096   0.00678   0.00582   2.64020
    R3        2.63211  -0.00014  -0.00038  -0.00065  -0.00101   2.63110
    R4        2.64609   0.00307  -0.00091   0.00686   0.00592   2.65201
    R5        2.85633  -0.00063  -0.00140  -0.00437  -0.00575   2.85058
    R6        2.58617  -0.00234  -0.00125  -0.00538  -0.00668   2.57949
    R7        2.63878   0.00177   0.00021   0.00419   0.00439   2.64317
    R8        2.69858   0.00292  -0.00007   0.00833   0.00825   2.70682
    R9        2.88093  -0.00078  -0.00135  -0.00340  -0.00475   2.87618
   R10        2.07773   0.00001   0.00069   0.00048   0.00117   2.07890
   R11        2.06218   0.00032   0.00006   0.00101   0.00107   2.06324
   R12        2.89518   0.00080  -0.00092   0.00173   0.00086   2.89605
   R13        2.06848  -0.00020   0.00040  -0.00034   0.00006   2.06854
   R14        2.07049  -0.00016   0.00041  -0.00022   0.00019   2.07068
   R15        2.07350   0.00015   0.00056   0.00082   0.00138   2.07488
   R16        2.06660   0.00029   0.00022   0.00102   0.00123   2.06783
   R17        2.52692  -0.00246  -0.00183  -0.00630  -0.00812   2.51879
   R18        2.05183   0.00060   0.00062   0.00216   0.00278   2.05461
   R19        2.52788   0.00014  -0.00180  -0.00126  -0.00304   2.52484
   R20        2.05172   0.00013   0.00053   0.00072   0.00126   2.05298
    A1        2.09276   0.00012  -0.00130  -0.00076  -0.00206   2.09070
    A2        2.07665  -0.00085  -0.00019  -0.00415  -0.00434   2.07231
    A3        2.11377   0.00073   0.00149   0.00493   0.00641   2.12018
    A4        2.01911  -0.00105  -0.00147  -0.00335  -0.00484   2.01426
    A5        2.15136   0.00125   0.00037   0.00465   0.00505   2.15641
    A6        2.11266  -0.00019   0.00111  -0.00113  -0.00015   2.11250
    A7        2.14501  -0.00031  -0.00077  -0.00008  -0.00103   2.14399
    A8        2.09370  -0.00033   0.00021  -0.00107  -0.00082   2.09288
    A9        2.04426   0.00064   0.00060   0.00122   0.00193   2.04619
   A10        2.00550   0.00095  -0.00017   0.01088   0.01047   2.01598
   A11        1.93382  -0.00051   0.00084   0.00138   0.00207   1.93589
   A12        1.91153  -0.00039  -0.00034  -0.00912  -0.00943   1.90210
   A13        1.83878   0.00028  -0.00313   0.00148  -0.00165   1.83712
   A14        1.93238  -0.00007   0.00066  -0.00371  -0.00308   1.92930
   A15        1.95049   0.00083   0.00091   0.00911   0.01007   1.96056
   A16        1.89413  -0.00014   0.00095   0.00080   0.00169   1.89581
   A17        1.91354   0.00043  -0.00126   0.00182   0.00050   1.91404
   A18        1.92707  -0.00057  -0.00025  -0.00528  -0.00550   1.92157
   A19        1.89110   0.00004  -0.00008   0.00034   0.00026   1.89136
   A20        1.93111   0.00028   0.00014   0.00166   0.00179   1.93289
   A21        1.92454  -0.00033   0.00060   0.00018   0.00079   1.92533
   A22        1.87581   0.00013   0.00093   0.00122   0.00213   1.87794
   A23        1.93839   0.00017  -0.00028   0.00152   0.00123   1.93962
   A24        1.89252   0.00040   0.00033   0.00436   0.00467   1.89719
   A25        1.91107  -0.00055  -0.00087  -0.00403  -0.00488   1.90619
   A26        1.93134  -0.00025   0.00047  -0.00087  -0.00040   1.93094
   A27        1.93402   0.00057   0.00052   0.00560   0.00611   1.94013
   A28        1.85418  -0.00038  -0.00017  -0.00699  -0.00715   1.84703
   A29        2.15192  -0.00074   0.00037  -0.00329  -0.00295   2.14897
   A30        2.08707  -0.00111  -0.00041  -0.00815  -0.00854   2.07853
   A31        2.04420   0.00185   0.00004   0.01143   0.01149   2.05569
   A32        2.05084   0.00297   0.00006   0.01115   0.01121   2.06205
   A33        2.13689  -0.00158  -0.00067  -0.00842  -0.00908   2.12781
   A34        2.10612  -0.00039   0.00032  -0.00351  -0.00319   2.10293
   A35        2.04018   0.00197   0.00035   0.01193   0.01227   2.05245
    D1        3.13020  -0.00016   0.00026  -0.00670  -0.00645   3.12375
    D2        0.00030  -0.00039  -0.00047  -0.02312  -0.02359  -0.02329
    D3       -0.01579  -0.00008  -0.00025  -0.00202  -0.00229  -0.01808
    D4        3.13749  -0.00030  -0.00098  -0.01845  -0.01943   3.11806
    D5        3.14069   0.00010  -0.00037   0.00326   0.00289  -3.13961
    D6       -0.00105   0.00006  -0.00034   0.00219   0.00185   0.00080
    D7        0.00346   0.00001   0.00013  -0.00137  -0.00123   0.00223
    D8       -3.13828  -0.00003   0.00016  -0.00245  -0.00227  -3.14055
    D9        3.13479   0.00025   0.00141   0.00857   0.00999  -3.13841
   D10        0.01593   0.00012  -0.00012   0.00489   0.00480   0.02073
   D11       -0.01821   0.00048   0.00211   0.02464   0.02670   0.00848
   D12       -3.13706   0.00035   0.00058   0.02096   0.02151  -3.11556
   D13       -2.94140   0.00003   0.00072   0.01569   0.01645  -2.92495
   D14        1.21611  -0.00003   0.00009   0.01294   0.01307   1.22918
   D15       -0.79990   0.00049   0.00058   0.02102   0.02163  -0.77827
   D16        0.21248  -0.00020  -0.00001  -0.00157  -0.00159   0.21089
   D17       -1.91319  -0.00026  -0.00063  -0.00433  -0.00497  -1.91816
   D18        2.35398   0.00026  -0.00015   0.00375   0.00359   2.35757
   D19        0.37581  -0.00084  -0.00277  -0.03770  -0.04045   0.33536
   D20       -2.78792  -0.00072  -0.00129  -0.03415  -0.03542  -2.82334
   D21       -0.00399  -0.00011   0.00064  -0.00487  -0.00426  -0.00825
   D22        3.13805  -0.00009   0.00098  -0.00451  -0.00354   3.13450
   D23       -3.12413  -0.00022  -0.00077  -0.00833  -0.00913  -3.13326
   D24        0.01790  -0.00020  -0.00042  -0.00797  -0.00841   0.00949
   D25       -0.91030   0.00079   0.00042   0.02895   0.02945  -0.88085
   D26        1.22641   0.00011   0.00157   0.01904   0.02062   1.24703
   D27       -3.02264  -0.00009   0.00077   0.01634   0.01720  -3.00545
   D28        1.08983  -0.00072   0.00113  -0.00950  -0.00836   1.08146
   D29       -3.06135  -0.00045   0.00028  -0.00968  -0.00939  -3.07074
   D30       -1.01137  -0.00060   0.00121  -0.01099  -0.00978  -1.02115
   D31       -1.03469   0.00016   0.00057   0.00365   0.00425  -1.03045
   D32        1.09732   0.00043  -0.00028   0.00347   0.00321   1.10053
   D33       -3.13589   0.00028   0.00065   0.00215   0.00283  -3.13306
   D34        3.13474  -0.00019  -0.00165  -0.00101  -0.00266   3.13208
   D35       -1.01644   0.00008  -0.00251  -0.00119  -0.00370  -1.02013
   D36        1.03354  -0.00006  -0.00158  -0.00251  -0.00408   1.02946
   D37       -0.71285  -0.00038  -0.00096  -0.00771  -0.00862  -0.72147
   D38        1.39001   0.00007  -0.00042  -0.00178  -0.00217   1.38784
   D39       -2.84103  -0.00020  -0.00002  -0.00749  -0.00748  -2.84850
   D40       -2.84245  -0.00014   0.00012  -0.00338  -0.00322  -2.84567
   D41       -0.73959   0.00031   0.00067   0.00255   0.00323  -0.73637
   D42        1.31256   0.00004   0.00107  -0.00316  -0.00208   1.31047
   D43        1.36789  -0.00027  -0.00147  -0.00605  -0.00750   1.36040
   D44       -2.81244   0.00018  -0.00092  -0.00012  -0.00105  -2.81349
   D45       -0.76029  -0.00009  -0.00053  -0.00583  -0.00636  -0.76664
   D46       -0.00896   0.00001  -0.00077   0.00126   0.00049  -0.00848
   D47        3.13220  -0.00001  -0.00110   0.00090  -0.00023   3.13197
   D48        0.00924   0.00005   0.00038   0.00186   0.00225   0.01148
   D49       -3.13221   0.00009   0.00035   0.00289   0.00326  -3.12896
         Item               Value     Threshold  Converged?
 Maximum Force            0.003074     0.000450     NO 
 RMS     Force            0.000911     0.000300     NO 
 Maximum Displacement     0.055774     0.001800     NO 
 RMS     Displacement     0.011970     0.001200     NO 
 Predicted change in Energy=-2.507735D-04
 GradGradGradGradGradGradGradGradGradGradGradGradGradGradGradGradGradGrad

                          Input orientation:                          
 ---------------------------------------------------------------------
 Center     Atomic      Atomic             Coordinates (Angstroms)
 Number     Number       Type             X           Y           Z
 ---------------------------------------------------------------------
      1         35           0        1.813916    2.895798   -0.603156
      2          6           0        1.676420    1.026924   -0.223485
      3          6           0        0.417688    0.441334   -0.066426
      4          6           0        0.423113   -0.938868    0.187544
      5          8           0       -0.720148   -1.663946    0.362066
      6          6           0       -1.917346   -1.058184   -0.139442
      7          6           0       -2.052904    0.372906    0.360681
      8          6           0       -0.876568    1.211566   -0.150694
      9          6           0        1.637982   -1.624138    0.291817
     10          7           0        2.823301   -1.030818    0.151891
     11          6           0        2.845414    0.279234   -0.109646
     12          1           0       -1.897143   -1.082493   -1.239093
     13          1           0       -2.730693   -1.698060    0.208551
     14          1           0       -3.005469    0.798473    0.029440
     15          1           0       -2.060514    0.356513    1.456289
     16          1           0       -1.040183    1.511948   -1.194036
     17          1           0       -0.779235    2.142492    0.416126
     18          1           0        1.626713   -2.692092    0.495458
     19          1           0        3.815956    0.751311   -0.233886
 ---------------------------------------------------------------------
                    Distance matrix (angstroms):
                    1          2          3          4          5
     1  Br   0.000000
     2  C    1.912000   0.000000
     3  C    2.874357   1.397136   0.000000
     4  C    4.155022   2.367290   1.403385   0.000000
     5  O    5.305130   3.650643   2.431148   1.365006   0.000000
     6  C    5.456310   4.155706   2.776017   2.366201   1.432390
     7  C    4.716595   3.831038   2.508173   2.807381   2.434134
     8  C    3.206254   2.560691   1.508462   2.535339   2.925057
     9  C    4.611047   2.700952   2.425620   1.398705   2.359513
    10  N    4.123987   2.385486   2.828757   2.402214   3.605698
    11  C    2.855512   1.392317   2.433516   2.727570   4.087995
    12  H    5.477516   4.272172   3.009259   2.727547   2.070535
    13  H    6.512746   5.199503   3.816401   3.243964   2.016685
    14  H    5.293905   4.694278   3.443072   3.846886   3.375921
    15  H    5.069565   4.151598   2.909869   3.075082   2.660105
    16  H    3.226463   2.925261   2.131457   3.171199   3.551082
    17  H    2.886319   2.771973   2.135280   3.315520   3.807281
    18  H    5.697939   3.788196   3.405262   2.148780   2.565664
    19  H    2.956915   2.157240   3.416483   3.813882   5.173477
                    6          7          8          9         10
     6  C    0.000000
     7  C    1.522010   0.000000
     8  C    2.497020   1.532521   0.000000
     9  C    3.625831   4.197091   3.815757   0.000000
    10  N    4.749670   5.078525   4.336921   1.332888   0.000000
    11  C    4.947066   4.921738   3.837197   2.289518   1.336086
    12  H    1.100105   2.168346   2.736584   3.890267   4.921393
    13  H    1.091821   2.184362   3.468826   4.370093   5.594218
    14  H    2.158636   1.094627   2.176077   5.243999   6.110308
    15  H    2.137339   1.095757   2.171459   4.354061   5.241926
    16  H    2.913273   2.177192   1.097981   4.383534   4.817021
    17  H    3.442133   2.180996   1.094250   4.477264   4.808116
    18  H    3.953873   4.790820   4.682144   1.087255   2.075980
    19  H    6.012815   5.911026   4.715776   3.265378   2.076095
                   11         12         13         14         15
    11  C    0.000000
    12  H    5.061799   0.000000
    13  H    5.924855   1.780280   0.000000
    14  H    5.875525   2.524995   2.517987   0.000000
    15  H    5.150365   3.059822   2.495448   1.767531   0.000000
    16  H    4.218217   2.732680   3.889630   2.422455   3.065995
    17  H    4.109288   3.793415   4.312901   2.629074   2.431735
    18  H    3.268052   4.244648   4.478548   5.818791   4.879839
    19  H    1.086390   6.083813   7.003840   6.826669   6.127434
                   16         17         18         19
    16  H    0.000000
    17  H    1.748800   0.000000
    18  H    5.257440   5.400748   0.000000
    19  H    5.008248   4.844964   4.145088   0.000000
 Stoichiometry    C8H8BrNO
 Framework group  C1[X(C8H8BrNO)]
 Deg. of freedom    51
 Full point group                 C1      NOp   1
 Largest Abelian subgroup         C1      NOp   1
 Largest concise Abelian subgroup C1      NOp   1
                         Standard orientation:                         
 ---------------------------------------------------------------------
 Center     Atomic      Atomic             Coordinates (Angstroms)
 Number     Number       Type             X           Y           Z
 ---------------------------------------------------------------------
      1         35           0        2.354421   -0.558356    0.033210
      2          6           0        0.771562    0.513399   -0.007322
      3          6           0       -0.482889   -0.101547   -0.020852
      4          6           0       -1.581508    0.771650   -0.028010
      5          8           0       -2.874565    0.334439   -0.037656
      6          6           0       -3.070919   -1.019928    0.385282
      7          6           0       -2.131796   -1.961834   -0.354567
      8          6           0       -0.678096   -1.597263   -0.034467
      9          6           0       -1.373190    2.154629   -0.046637
     10          7           0       -0.160917    2.708685   -0.049112
     11          6           0        0.901946    1.899510   -0.022993
     12          1           0       -2.904898   -1.083431    1.470932
     13          1           0       -4.121348   -1.235647    0.180011
     14          1           0       -2.342062   -2.999013   -0.074824
     15          1           0       -2.320714   -1.863811   -1.429456
     16          1           0       -0.384798   -1.999493    0.944180
     17          1           0        0.009821   -2.043679   -0.758942
     18          1           0       -2.233956    2.818752   -0.058723
     19          1           0        1.885501    2.360774   -0.013089
 ---------------------------------------------------------------------
 Rotational constants (GHZ):           1.3571081           0.5830402           0.4140083
 Standard basis: 6-31G(d,p) (6D, 7F)
 There are   220 symmetry adapted cartesian basis functions of A   symmetry.
 There are   220 symmetry adapted basis functions of A   symmetry.
   220 basis functions,   419 primitive gaussians,   220 cartesian basis functions
    53 alpha electrons       53 beta electrons
       nuclear repulsion energy       859.9745706625 Hartrees.
 NAtoms=   19 NActive=   19 NUniq=   19 SFac= 1.00D+00 NAtFMM=   60 NAOKFM=F Big=F
 Integral buffers will be    131072 words long.
 Raffenetti 2 integral format.
 Two-electron integral symmetry is turned on.
 Nuclear repulsion after empirical dispersion term =      859.9340434765 Hartrees.
 One-electron integrals computed using PRISM.
 NBasis=   220 RedAO= T EigKep=  6.01D-04  NBF=   220
 NBsUse=   220 1.00D-06 EigRej= -1.00D+00 NBFU=   220
 Initial guess from the checkpoint file:  "pyrd1_conf-1.chk"
 B after Tr=     0.000000   -0.000000   -0.000000
         Rot=    1.000000   -0.000654    0.000005    0.000287 Ang=  -0.08 deg.
 ExpMin= 1.43D-01 ExpMax= 5.74D+05 ExpMxC= 5.74D+03 IAcc=3 IRadAn=         5 AccDes= 0.00D+00
 Harris functional with IExCor=  402 and IRadAn=       5 diagonalized for initial guess.
 HarFok:  IExCor=  402 AccDes= 0.00D+00 IRadAn=         5 IDoV= 1 UseB2=F ITyADJ=14
 ICtDFT=  3500011 ScaDFX=  1.000000  1.000000  1.000000  1.000000
 FoFCou: FMM=F IPFlag=           0 FMFlag=      100000 FMFlg1=           0
         NFxFlg=           0 DoJE=T BraDBF=F KetDBF=T FulRan=T
         wScrn=  0.000000 ICntrl=       500 IOpCl=  0 I1Cent=   200000004 NGrid=           0
         NMat0=    1 NMatS0=      1 NMatT0=    0 NMatD0=    1 NMtDS0=    0 NMtDT0=    0
 Petite list used in FoFCou.
 Requested convergence on RMS density matrix=1.00D-08 within 128 cycles.
 Requested convergence on MAX density matrix=1.00D-06.
 Requested convergence on             energy=1.00D-06.
 No special actions if energy rises.
 Integral accuracy reduced to 1.0D-05 until final iterations.
 Initial convergence to 1.0D-05 achieved.  Increase integral accuracy.
 SCF Done:  E(RB3LYP) =  -3011.39719612     A.U. after   11 cycles
            NFock= 11  Conv=0.65D-08     -V/T= 2.0066
 Calling FoFJK, ICntrl=      2127 FMM=F ISym2X=0 I1Cent= 0 IOpClX= 0 NMat=1 NMatS=1 NMatT=0.
 ***** Axes restored to original set *****
 -------------------------------------------------------------------
 Center     Atomic                   Forces (Hartrees/Bohr)
 Number     Number              X              Y              Z
 -------------------------------------------------------------------
      1       35          -0.000085960    0.000256967   -0.000032201
      2        6          -0.000028926   -0.000601336    0.000133654
      3        6           0.000645663    0.000867296   -0.000245557
      4        6          -0.002396182   -0.000581795    0.000544232
      5        8           0.002046822   -0.000393397   -0.000817253
      6        6          -0.001153211    0.000245137   -0.000398822
      7        6           0.000020278   -0.000010585    0.000233292
      8        6           0.000244239    0.000053967   -0.000165444
      9        6           0.001534918   -0.000665948    0.000341380
     10        7          -0.000547542   -0.001051753    0.000209787
     11        6           0.000728600    0.001278486   -0.000323425
     12        1          -0.000118081   -0.000189815    0.000367591
     13        1           0.000154141    0.000247453   -0.000050690
     14        1           0.000188729   -0.000093788    0.000140157
     15        1          -0.000037291    0.000287267   -0.000184527
     16        1          -0.000286912    0.000069567    0.000234519
     17        1          -0.000145803    0.000071078   -0.000108228
     18        1          -0.000291242    0.000308189    0.000066020
     19        1          -0.000472242   -0.000096990    0.000055519
 -------------------------------------------------------------------
 Cartesian Forces:  Max     0.002396182 RMS     0.000627681

 GradGradGradGradGradGradGradGradGradGradGradGradGradGradGradGradGradGrad
 Berny optimization.
 Using GEDIIS/GDIIS optimizer.
 FormGI is forming the generalized inverse of G from B-inverse, IUseBI=4.
 Internal  Forces:  Max     0.001136310 RMS     0.000273611
 Search for a local minimum.
 Step number   3 out of a maximum of  114
 All quantities printed in internal units (Hartrees-Bohrs-Radians)
 Mixed Optimization -- En-DIIS/RFO-DIIS
 Swapping is turned off.
 Update second derivatives using D2CorX and points    1    2    3
 DE= -2.96D-04 DEPred=-2.51D-04 R= 1.18D+00
 TightC=F SS=  1.41D+00  RLast= 1.02D-01 DXNew= 8.4853D-01 3.0475D-01
 Trust test= 1.18D+00 RLast= 1.02D-01 DXMaxT set to 5.05D-01
 ITU=  1  1  0
     Eigenvalues ---    0.00440   0.00876   0.01240   0.01509   0.01991
     Eigenvalues ---    0.02093   0.02126   0.02173   0.02198   0.02238
     Eigenvalues ---    0.03332   0.03522   0.04912   0.05169   0.05503
     Eigenvalues ---    0.06237   0.07801   0.08194   0.09298   0.10954
     Eigenvalues ---    0.11631   0.12558   0.15630   0.16029   0.17978
     Eigenvalues ---    0.19501   0.19956   0.22421   0.23597   0.24756
     Eigenvalues ---    0.24962   0.25326   0.27671   0.28009   0.29461
[...]
   XX=    29.3189   YX=     2.4816   ZX=     0.2539
   XY=     2.2559   YY=    35.7156   ZY=    -0.1493
   XZ=     0.1135   YZ=    -1.3242   ZZ=    25.0198
   Eigenvalues:    24.9385    28.5827    36.5331
     15  H    Isotropic =    29.9584   Anisotropy =     8.7785
   XX=    29.5936   YX=     0.2193   ZX=     1.9963
   XY=     0.1450   YY=    26.3312   ZY=     2.0219
   XZ=     3.3808   YZ=     2.9625   ZZ=    33.9504
   Eigenvalues:    25.4836    28.5808    35.8107
     16  H    Isotropic =    29.3058   Anisotropy =     7.0013
   XX=    30.1655   YX=     1.1588   ZX=     2.4204
   XY=     0.0744   YY=    28.5313   ZY=    -3.4323
   XZ=     1.8946   YZ=    -5.9519   ZZ=    29.2207
   Eigenvalues:    23.5980    30.3462    33.9733
     17  H    Isotropic =    28.9706   Anisotropy =     8.7319
   XX=    34.3487   YX=     1.2769   ZX=    -1.6899
   XY=     0.3169   YY=    27.2388   ZY=     2.8989
   XZ=    -2.3989   YZ=     5.3784   ZZ=    25.3241
   Eigenvalues:    21.6852    30.4346    34.7918
     18  H    Isotropic =    22.9201   Anisotropy =     8.2111
   XX=    21.5575   YX=     2.2838   ZX=    -0.0379
   XY=     2.8728   YY=    27.4206   ZY=    -0.1878
   XZ=    -0.0658   YZ=     0.0200   ZZ=    19.7822
   Eigenvalues:    19.7806    20.5855    28.3942
     19  H    Isotropic =    22.8390   Anisotropy =    11.3562
   XX=    20.1932   YX=    -1.5191   ZX=     0.0185
   XY=    -2.0237   YY=    30.0934   ZY=    -0.2455
   XZ=     0.3501   YZ=    -0.3636   ZZ=    18.2305
   Eigenvalues:    18.2114    19.8958    30.4098
 End of Minotr F.D. properties file   721 does not exist.
 End of Minotr F.D. properties file   722 does not exist.
 End of Minotr F.D. properties file   788 does not exist.

 **********************************************************************

            Population analysis using the SCF Density.

 **********************************************************************

 Orbital symmetries:
       Occupied  (A) (A) (A) (A) (A) (A) (A) (A) (A) (A) (A) (A)
                 (A) (A) (A) (A) (A) (A) (A) (A) (A) (A) (A) (A)
                 (A) (A) (A) (A) (A) (A) (A) (A) (A) (A) (A) (A)
                 (A) (A) (A) (A) (A) (A) (A) (A) (A) (A) (A) (A)
                 (A) (A) (A) (A) (A)
       Virtual   (A) (A) (A) (A) (A) (A) (A) (A) (A) (A) (A) (A)
                 (A) (A) (A) (A) (A) (A) (A) (A) (A) (A) (A) (A)
                 (A) (A) (A) (A) (A) (A) (A) (A) (A) (A) (A) (A)
                 (A) (A) (A) (A) (A) (A) (A) (A) (A) (A) (A) (A)
                 (A) (A) (A) (A) (A) (A) (A) (A) (A) (A) (A) (A)
                 (A) (A) (A) (A) (A) (A) (A) (A) (A) (A) (A) (A)
                 (A) (A) (A) (A) (A) (A) (A) (A) (A) (A) (A) (A)
                 (A) (A) (A) (A) (A) (A) (A) (A) (A) (A) (A) (A)
                 (A) (A) (A) (A) (A) (A) (A) (A) (A) (A) (A) (A)
                 (A) (A) (A) (A) (A) (A) (A) (A) (A) (A) (A) (A)
                 (A) (A) (A) (A) (A) (A) (A) (A) (A) (A) (A) (A)
                 (A) (A) (A) (A) (A) (A) (A) (A) (A) (A) (A) (A)
                 (A) (A) (A) (A) (A) (A) (A) (A) (A) (A) (A) (A)
                 (A) (A) (A) (A) (A) (A) (A) (A) (A) (A) (A) (A)
                 (A) (A) (A) (A) (A) (A) (A) (A) (A) (A) (A) (A)
                 (A) (A) (A) (A) (A) (A) (A) (A) (A) (A) (A) (A)
                 (A) (A) (A) (A) (A) (A) (A) (A) (A) (A) (A) (A)
                 (A) (A) (A) (A) (A) (A) (A) (A) (A) (A) (A) (A)
                 (A) (A) (A) (A) (A) (A) (A) (A) (A) (A) (A) (A)
                 (A) (A) (A) (A) (A) (A) (A) (A) (A) (A) (A) (A)
                 (A) (A) (A) (A) (A) (A) (A) (A) (A) (A) (A) (A)
                 (A) (A) (A) (A) (A) (A) (A) (A) (A) (A) (A) (A)
                 (A) (A) (A) (A) (A) (A) (A) (A) (A) (A) (A) (A)
                 (A) (A) (A) (A) (A) (A) (A) (A) (A) (A) (A) (A)
                 (A) (A) (A) (A) (A) (A) (A) (A) (A) (A) (A) (A)
                 (A) (A) (A) (A) (A) (A) (A) (A) (A) (A) (A) (A)
                 (A) (A) (A) (A) (A) (A) (A) (A) (A) (A) (A) (A)
                 (A) (A) (A) (A) (A) (A) (A) (A) (A) (A) (A) (A)
                 (A) (A) (A) (A) (A) (A) (A) (A) (A) (A) (A) (A)
                 (A) (A) (A) (A) (A)
 The electronic state is 1-A.
 Alpha  occ. eigenvalues -- -485.38216 -63.36685 -57.18632 -57.18396 -57.18387
 Alpha  occ. eigenvalues --  -19.66894 -14.75853 -10.61954 -10.61001 -10.60869
 Alpha  occ. eigenvalues --  -10.58103 -10.58046 -10.57861 -10.56342 -10.55832
 Alpha  occ. eigenvalues --   -9.03320  -6.85727  -6.84855  -6.84825  -2.89104
 Alpha  occ. eigenvalues --   -2.88791  -2.88758  -2.87945  -2.87944  -1.20516
 Alpha  occ. eigenvalues --   -1.06074  -0.95449  -0.90991  -0.89578  -0.83114
 Alpha  occ. eigenvalues --   -0.78765  -0.75417  -0.70412  -0.66509  -0.60960
 Alpha  occ. eigenvalues --   -0.60044  -0.58691  -0.54476  -0.52579  -0.52241
 Alpha  occ. eigenvalues --   -0.50021  -0.49284  -0.48574  -0.45413  -0.44990
 Alpha  occ. eigenvalues --   -0.43300  -0.41480  -0.39691  -0.38635  -0.36128
 Alpha  occ. eigenvalues --   -0.33069  -0.32213  -0.29088
 Alpha virt. eigenvalues --   -0.00553   0.01416   0.03316   0.05647   0.09221
 Alpha virt. eigenvalues --    0.09476   0.10470   0.11807   0.12093   0.12609
 Alpha virt. eigenvalues --    0.13660   0.14530   0.15267   0.16840   0.17842
 Alpha virt. eigenvalues --    0.18453   0.20130   0.21239   0.21694   0.22770
 Alpha virt. eigenvalues --    0.23461   0.24286   0.24988   0.25255   0.26883
 Alpha virt. eigenvalues --    0.27251   0.27810   0.29709   0.30648   0.31143
 Alpha virt. eigenvalues --    0.31585   0.31857   0.33304   0.34494   0.34901
 Alpha virt. eigenvalues --    0.36880   0.37290   0.37794   0.38618   0.39710
 Alpha virt. eigenvalues --    0.40334   0.41182   0.42504   0.42954   0.43530
 Alpha virt. eigenvalues --    0.43877   0.45191   0.45704   0.46182   0.46635
 Alpha virt. eigenvalues --    0.47596   0.48517   0.48646   0.50092   0.50413
 Alpha virt. eigenvalues --    0.51350   0.52597   0.53085   0.54284   0.57400
 Alpha virt. eigenvalues --    0.58582   0.59684   0.60385   0.61097   0.61961
 Alpha virt. eigenvalues --    0.63757   0.65374   0.67492   0.68084   0.69289
 Alpha virt. eigenvalues --    0.69625   0.71378   0.71606   0.73526   0.74652
 Alpha virt. eigenvalues --    0.76106   0.77171   0.78264   0.79015   0.79337
 Alpha virt. eigenvalues --    0.81493   0.84758   0.84965   0.86127   0.88676
 Alpha virt. eigenvalues --    0.89278   0.90831   0.91785   0.92706   0.95324
 Alpha virt. eigenvalues --    0.97418   0.98423   0.99511   1.01634   1.04674
 Alpha virt. eigenvalues --    1.06589   1.07593   1.09836   1.10490   1.13649
 Alpha virt. eigenvalues --    1.13843   1.14686   1.15923   1.17986   1.20171
 Alpha virt. eigenvalues --    1.22202   1.23156   1.24681   1.25044   1.25728
 Alpha virt. eigenvalues --    1.29664   1.32375   1.32598   1.33971   1.34999
 Alpha virt. eigenvalues --    1.39048   1.39448   1.41668   1.42645   1.44086
 Alpha virt. eigenvalues --    1.44328   1.45170   1.47704   1.49630   1.50349
 Alpha virt. eigenvalues --    1.52852   1.53821   1.55886   1.56483   1.57220
 Alpha virt. eigenvalues --    1.57743   1.58743   1.59169   1.59775   1.61432
 Alpha virt. eigenvalues --    1.62280   1.63757   1.64814   1.66141   1.66857
 Alpha virt. eigenvalues --    1.68366   1.69669   1.70782   1.72148   1.72811
 Alpha virt. eigenvalues --    1.73789   1.74904   1.76347   1.77597   1.78706
 Alpha virt. eigenvalues --    1.80459   1.81922   1.83461   1.84342   1.85924
 Alpha virt. eigenvalues --    1.87664   1.91056   1.92246   1.94075   1.94209
 Alpha virt. eigenvalues --    1.96292   1.97634   2.00153   2.02396   2.03743
 Alpha virt. eigenvalues --    2.04642   2.04968   2.07168   2.08187   2.11652
 Alpha virt. eigenvalues --    2.15266   2.16235   2.19148   2.20897   2.21488
 Alpha virt. eigenvalues --    2.24582   2.25975   2.27439   2.31638   2.33562
 Alpha virt. eigenvalues --    2.34604   2.37803   2.38010   2.41005   2.41071
 Alpha virt. eigenvalues --    2.43705   2.45452   2.46826   2.50411   2.53223
 Alpha virt. eigenvalues --    2.53541   2.55632   2.56289   2.57037   2.58881
 Alpha virt. eigenvalues --    2.59850   2.61042   2.62671   2.63432   2.65830
 Alpha virt. eigenvalues --    2.66871   2.67345   2.68172   2.70011   2.72380
 Alpha virt. eigenvalues --    2.73781   2.74591   2.78514   2.81003   2.81939
 Alpha virt. eigenvalues --    2.83476   2.85938   2.87877   2.88443   2.88740
 Alpha virt. eigenvalues --    2.90897   2.92307   2.92715   2.94181   2.95812
 Alpha virt. eigenvalues --    2.98688   3.01079   3.01632   3.03387   3.04982
 Alpha virt. eigenvalues --    3.06496   3.08195   3.09710   3.11103   3.12996
 Alpha virt. eigenvalues --    3.14028   3.14819   3.16757   3.17329   3.18291
 Alpha virt. eigenvalues --    3.19071   3.20295   3.22026   3.23490   3.24560
 Alpha virt. eigenvalues --    3.25765   3.28564   3.29247   3.29959   3.32125
 Alpha virt. eigenvalues --    3.33877   3.34353   3.36419   3.36971   3.37400
 Alpha virt. eigenvalues --    3.39057   3.41153   3.42041   3.43676   3.44546
 Alpha virt. eigenvalues --    3.45995   3.47230   3.48435   3.49553   3.52151
 Alpha virt. eigenvalues --    3.53103   3.54105   3.55556   3.59256   3.59955
 Alpha virt. eigenvalues --    3.61384   3.64998   3.67644   3.69756   3.73597
 Alpha virt. eigenvalues --    3.76345   3.80522   3.81965   3.84570   3.87539
 Alpha virt. eigenvalues --    3.88686   3.92815   3.93785   3.97285   4.00572
 Alpha virt. eigenvalues --    4.00993   4.03935   4.05672   4.08572   4.08859
 Alpha virt. eigenvalues --    4.09971   4.14694   4.16077   4.16571   4.19745
 Alpha virt. eigenvalues --    4.21943   4.22924   4.24122   4.26874   4.30473
 Alpha virt. eigenvalues --    4.31956   4.35222   4.38820   4.40240   4.42959
 Alpha virt. eigenvalues --    4.43834   4.47198   4.48820   4.50006   4.53406
 Alpha virt. eigenvalues --    4.55256   4.58691   4.62848   4.65019   4.68116
 Alpha virt. eigenvalues --    4.73257   4.79003   4.80688   4.82190   4.84773
 Alpha virt. eigenvalues --    4.88947   4.90177   5.02044   5.03227   5.08814
 Alpha virt. eigenvalues --    5.11629   5.17646   5.19240   5.23966   5.32717
 Alpha virt. eigenvalues --    5.36489   5.40372   5.46665   5.51858   5.58293
 Alpha virt. eigenvalues --    5.69550   5.77281   5.87970   5.92379   5.97699
 Alpha virt. eigenvalues --    6.30545   6.47260   6.65857   6.79218   6.87517
 Alpha virt. eigenvalues --    7.16466   7.37274   7.86081  22.48119  22.53079
 Alpha virt. eigenvalues --   22.57472  22.71180  22.85535  22.94477  23.06223
 Alpha virt. eigenvalues --   23.40265  32.52293  44.42729
          Condensed to atoms (all electrons):
               1          2          3          4          5          6
     1  Br  34.902483   0.384539  -0.151056   0.014941  -0.000276  -0.000520
     2  C    0.384539   5.045665   0.295962   0.031457   0.004118  -0.003190
     3  C   -0.151056   0.295962   5.694087   0.234390  -0.088073  -0.015542
     4  C    0.014941   0.031457   0.234390   5.051019   0.338947  -0.049047
     5  O   -0.000276   0.004118  -0.088073   0.338947   7.949727   0.227539
     6  C   -0.000520  -0.003190  -0.015542  -0.049047   0.227539   4.953334
     7  C    0.003264   0.009960  -0.000187  -0.039952  -0.035445   0.238465
     8  C   -0.005131  -0.075570   0.193637  -0.057810  -0.007692  -0.028902
     9  C    0.002149  -0.045038  -0.008061   0.433668  -0.050113   0.005896
    10  N    0.007946  -0.016579  -0.083481  -0.042337   0.004281  -0.000983
    11  C   -0.065260   0.468981  -0.038112  -0.036717   0.000095   0.000440
    12  H    0.000024   0.000912   0.000146  -0.003215  -0.045319   0.440345
    13  H   -0.000000   0.000099  -0.004004   0.007536  -0.033525   0.418707
    14  H   -0.000083  -0.000533   0.013290   0.001659   0.004670  -0.034931
    15  H    0.000065   0.001595  -0.006758  -0.003217   0.002013  -0.038771
    16  H    0.000896  -0.000535  -0.063174  -0.004485   0.000245  -0.008886
    17  H    0.002496  -0.010110  -0.053338   0.001926  -0.000320   0.009480
    18  H    0.000101  -0.000615   0.007133  -0.089723   0.009142  -0.000277
    19  H   -0.001636  -0.079692   0.010982  -0.002256   0.000031  -0.000010
               7          8          9         10         11         12
     1  Br   0.003264  -0.005131   0.002149   0.007946  -0.065260   0.000024
     2  C    0.009960  -0.075570  -0.045038  -0.016579   0.468981   0.000912
     3  C   -0.000187   0.193637  -0.008061  -0.083481  -0.038112   0.000146
     4  C   -0.039952  -0.057810   0.433668  -0.042337  -0.036717  -0.003215
     5  O   -0.035445  -0.007692  -0.050113   0.004281   0.000095  -0.045319
     6  C    0.238465  -0.028902   0.005896  -0.000983   0.000440   0.440345
     7  C    5.234039   0.220626  -0.001446  -0.000174   0.000030  -0.073713
     8  C    0.220626   5.295313   0.004514  -0.000521   0.010078  -0.002010
     9  C   -0.001446   0.004514   4.927263   0.517642  -0.123566   0.003991
    10  N   -0.000174  -0.000521   0.517642   6.405201   0.482943  -0.000040
    11  C    0.000030   0.010078  -0.123566   0.482943   4.940146  -0.000136
    12  H   -0.073713  -0.002010   0.003991  -0.000040  -0.000136   0.556891
    13  H   -0.038927   0.009385  -0.000599   0.000021  -0.000005  -0.030772
    14  H    0.424529  -0.058356  -0.000076  -0.000005  -0.000013   0.001310
    15  H    0.417510  -0.038317   0.000603  -0.000010   0.000084   0.008048
    16  H   -0.027460   0.443414  -0.000378   0.000112   0.000066  -0.000039
    17  H   -0.041438   0.448623   0.000297   0.000006   0.000715   0.000186
    18  H    0.000098   0.000150   0.441238  -0.030058   0.005244   0.000128
    19  H    0.000009   0.000095   0.007027  -0.034004   0.444017  -0.000002
              13         14         15         16         17         18
     1  Br  -0.000000  -0.000083   0.000065   0.000896   0.002496   0.000101
     2  C    0.000099  -0.000533   0.001595  -0.000535  -0.010110  -0.000615
     3  C   -0.004004   0.013290  -0.006758  -0.063174  -0.053338   0.007133
     4  C    0.007536   0.001659  -0.003217  -0.004485   0.001926  -0.089723
     5  O   -0.033525   0.004670   0.002013   0.000245  -0.000320   0.009142
     6  C    0.418707  -0.034931  -0.038771  -0.008886   0.009480  -0.000277
     7  C   -0.038927   0.424529   0.417510  -0.027460  -0.041438   0.000098
     8  C    0.009385  -0.058356  -0.038317   0.443414   0.448623   0.000150
     9  C   -0.000599  -0.000076   0.000603  -0.000378   0.000297   0.441238
    10  N    0.000021  -0.000005  -0.000010   0.000112   0.000006  -0.030058
    11  C   -0.000005  -0.000013   0.000084   0.000066   0.000715   0.005244
    12  H   -0.030772   0.001310   0.008048  -0.000039   0.000186   0.000128
    13  H    0.531204  -0.002175  -0.006544  -0.000089  -0.000252  -0.000192
    14  H   -0.002175   0.521498  -0.015706  -0.005563  -0.002362  -0.000012
    15  H   -0.006544  -0.015706   0.518833   0.004345  -0.003881   0.000051
    16  H   -0.000089  -0.005563   0.004345   0.503110  -0.025711   0.000019
    17  H   -0.000252  -0.002362  -0.003881  -0.025711   0.499306   0.000018
    18  H   -0.000192  -0.000012   0.000051   0.000019   0.000018   0.501526
    19  H    0.000000  -0.000000  -0.000002  -0.000006  -0.000005  -0.000044
              19
     1  Br  -0.001636
     2  C   -0.079692
     3  C    0.010982
     4  C   -0.002256
     5  O    0.000031
     6  C   -0.000010
     7  C    0.000009
     8  C    0.000095
     9  C    0.007027
    10  N   -0.034004
    11  C    0.444017
    12  H   -0.000002
    13  H    0.000000
    14  H   -0.000000
    15  H   -0.000002
    16  H   -0.000006
    17  H   -0.000005
    18  H   -0.000044
    19  H    0.496873
 Mulliken charges:
               1
     1  Br  -0.094944
     2  C   -0.011425
     3  C    0.062159
     4  C    0.213217
     5  O   -0.280047
     6  C   -0.113147
     7  C   -0.289789
     8  C   -0.351524
     9  C   -0.115008
    10  N   -0.209961
    11  C   -0.089029
    12  H    0.143265
    13  H    0.150133
    14  H    0.152860
    15  H    0.160059
    16  H    0.184120
    17  H    0.174365
    18  H    0.156074
    19  H    0.158622
 Sum of Mulliken charges =  -0.00000
 Mulliken charges with hydrogens summed into heavy atoms:
               1
     1  Br  -0.094944
     2  C   -0.011425
     3  C    0.062159
     4  C    0.213217
     5  O   -0.280047
     6  C    0.180251
     7  C    0.023129
     8  C    0.006961
     9  C    0.041065
    10  N   -0.209961
    11  C    0.069593
 Electronic spatial extent (au):  <R**2>=           2440.8495
 Charge=             -0.0000 electrons
 Dipole moment (field-independent basis, Debye):
    X=             -1.7382    Y=             -3.4158    Z=              0.2860  Tot=              3.8433
 Quadrupole moment (field-independent basis, Debye-Ang):
   XX=            -73.4610   YY=            -79.1844   ZZ=            -77.6832
   XY=              5.2508   XZ=             -0.9813   YZ=             -0.0871
 Traceless Quadrupole moment (field-independent basis, Debye-Ang):
   XX=              3.3152   YY=             -2.4082   ZZ=             -0.9070
   XY=              5.2508   XZ=             -0.9813   YZ=             -0.0871
 Octapole moment (field-independent basis, Debye-Ang**2):
  XXX=             54.5699  YYY=            -50.9953  ZZZ=              1.4951  XYY=             12.8957
  XXY=            -15.6799  XXZ=              3.0230  XZZ=             18.2796  YZZ=            -10.1078
  YYZ=              1.1319  XYZ=              1.0174
 Hexadecapole moment (field-independent basis, Debye-Ang**3):
 XXXX=          -1722.4799 YYYY=          -1128.2226 ZZZZ=           -117.3670 XXXY=             -0.6591
 XXXZ=             -4.6447 YYYX=            -41.8334 YYYZ=             -0.2631 ZZZX=              1.3971
 ZZZY=             -0.6597 XXYY=           -416.9432 XXZZ=           -320.3074 YYZZ=           -197.4035
 XXYZ=             -3.1442 YYXZ=              0.0255 ZZXY=            -10.4886
 N-N= 8.596844125712D+02 E-N=-8.894976803754D+03  KE= 3.008143381801D+03
 Unable to Open any file for archive entry.
 1\1\GINC-COMPUTE-0-28\SP\RM062X\def2TZVP\C8H8Br1N1O1\ZTAN64\14-Aug-202
 4\0\\# M062X/def2tzvp int=(grid=ultrafine) nmr=giao guess=read geom=ch
 eck\\pyrd1.xyz\\0,1\Br,0,1.8174116388,2.9016278513,-0.5850999681\C,0,1
 .6797426914,1.0290357507,-0.2174717943\C,0,0.419670868,0.440638343,-0.
 0841472971\C,0,0.4221443819,-0.9417948181,0.1623684703\O,0,-0.71542246
 84,-1.6769329895,0.3082905774\C,0,-1.9293257018,-1.0572783113,-0.14002
 12863\C,0,-2.0397647031,0.3721295312,0.3706864516\C,0,-0.8763083715,1.
 2070351403,-0.1735911201\C,0,1.6397945476,-1.6230303286,0.2894918251\N
 ,0,2.8247082002,-1.0268564967,0.1711275705\C,0,2.8488688085,0.28532587
 04,-0.0879793704\H,0,-1.9536031118,-1.0777799832,-1.2388473183\H,0,-2.
 7313283648,-1.694208358,0.2371936561\H,0,-3.0001117518,0.8019443753,0.
 069920337\H,0,-2.014127451,0.3560449915,1.4658152731\H,0,-1.0585672335
 ,1.4848087364,-1.2198877327\H,0,-0.7780259564,2.1496716156,0.372972254
 1\H,0,1.6252602797,-2.6904807568,0.4937691744\H,0,3.8192836981,0.75999
 98365,-0.1945897023\\Version=ES64L-G16RevC.01\State=1-A\HF=-3013.81554
 25\RMSD=5.009e-09\Dipole=-1.4808802,0.2780753,-0.1264747\Quadrupole=3.
 6609103,-2.7429797,-0.9179306,3.0130752,-0.1188497,0.8166064\PG=C01 [X
 (C8H8Br1N1O1)]\\@
 The archive entry for this job was punched.


 TWO ROADS DIVERGED IN A WOOD, AND I--
 I TOOK THE ONE LESS TRAVELED BY,
 AND THAT HAS MADE ALL THE DIFFERENCE.

                       -- ROBERT FROST
 Job cpu time:       0 days  0 hours 30 minutes 40.9 seconds.
 Elapsed time:       0 days  0 hours  2 minutes  1.6 seconds.
 File lengths (MBytes):  RWF=     97 Int=      0 D2E=      0 Chk=     16 Scr=      1
 Normal termination of Gaussian 16 at Wed Aug 14 19:05:05 2024.
 
 
-----Kestrel cluster job statistics-----
Time info:

real	10m22.909s
user	162m52.573s
sys	0m16.026s
 
Disk space usage:
16M	/scratch/362961.kestrel.chem.wisc.edu
