 Entering Gaussian System, Link 0=/share/apps/gaussian/g16/g16
 Initial command:
 /share/apps/gaussian/g16/l1.exe "/scratch/362981.kestrel.chem.wisc.edu/Gau-106365.inp" -scrdir="/scratch/362981.kestrel.chem.wisc.edu/"
 Entering Link 1 = /share/apps/gaussian/g16/l1.exe PID=    106366.
  
 Copyright (c) 1988-2019, Gaussian, Inc.  All Rights Reserved.
  
 This is part of the Gaussian(R) 16 program.  It is based on
 the Gaussian(R) 09 system (copyright 2009, Gaussian, Inc.),
 the Gaussian(R) 03 system (copyright 2003, Gaussian, Inc.),
 the Gaussian(R) 98 system (copyright 1998, Gaussian, Inc.),
 the Gaussian(R) 94 system (copyright 1995, Gaussian, Inc.),
 the Gaussian 92(TM) system (copyright 1992, Gaussian, Inc.),
 the Gaussian 90(TM) system (copyright 1990, Gaussian, Inc.),
 the Gaussian 88(TM) system (copyright 1988, Gaussian, Inc.),
 the Gaussian 86(TM) system (copyright 1986, Carnegie Mellon
 University), and the Gaussian 82(TM) system (copyright 1983,
 Carnegie Mellon University). Gaussian is a federally registered
 trademark of Gaussian, Inc.
  
 This software contains proprietary and confidential information,
 including trade secrets, belonging to Gaussian, Inc.
  
 This software is provided under written license and may be
 used, copied, transmitted, or stored only in accord with that
 written license.
  
 The following legend is applicable only to US Government
 contracts under FAR:
  
                    RESTRICTED RIGHTS LEGEND
  
 Use, reproduction and disclosure by the US Government is
 subject to restrictions as set forth in subparagraphs (a)
 and (c) of the Commercial Computer Software - Restricted
 Rights clause in FAR 52.227-19.
  
 Gaussian, Inc.
 340 Quinnipiac St., Bldg. 40, Wallingford CT 06492
  
  
 ---------------------------------------------------------------
 Warning -- This program may not be used in any manner that
 competes with the business of Gaussian, Inc. or will provide
 assistance to any competitor of Gaussian, Inc.  The licensee
 of this program is prohibited from giving any competitor of
 Gaussian, Inc. access to this program.  By using this program,
 the user acknowledges that Gaussian, Inc. is engaged in the
 business of creating and licensing software in the field of
 computational chemistry and represents and warrants to the
 licensee that it is not a competitor of Gaussian, Inc. and that
 it will not use this program in any manner prohibited above.
 ---------------------------------------------------------------
  

 Cite this work as:
 Gaussian 16, Revision C.01,
 M. J. Frisch, G. W. Trucks, H. B. Schlegel, G. E. Scuseria, 
 M. A. Robb, J. R. Cheeseman, G. Scalmani, V. Barone, 
 G. A. Petersson, H. Nakatsuji, X. Li, M. Caricato, A. V. Marenich, 
 J. Bloino, B. G. Janesko, R. Gomperts, B. Mennucci, H. P. Hratchian, 
 J. V. Ortiz, A. F. Izmaylov, J. L. Sonnenberg, D. Williams-Young, 
 F. Ding, F. Lipparini, F. Egidi, J. Goings, B. Peng, A. Petrone, 
 T. Henderson, D. Ranasinghe, V. G. Zakrzewski, J. Gao, N. Rega, 
 G. Zheng, W. Liang, M. Hada, M. Ehara, K. Toyota, R. Fukuda, 
 J. Hasegawa, M. Ishida, T. Nakajima, Y. Honda, O. Kitao, H. Nakai, 
 T. Vreven, K. Throssell, J. A. Montgomery, Jr., J. E. Peralta, 
 F. Ogliaro, M. J. Bearpark, J. J. Heyd, E. N. Brothers, K. N. Kudin, 
 V. N. Staroverov, T. A. Keith, R. Kobayashi, J. Normand, 
 K. Raghavachari, A. P. Rendell, J. C. Burant, S. S. Iyengar, 
 J. Tomasi, M. Cossi, J. M. Millam, M. Klene, C. Adamo, R. Cammi, 
 J. W. Ochterski, R. L. Martin, K. Morokuma, O. Farkas, 
 J. B. Foresman, and D. J. Fox, Gaussian, Inc., Wallingford CT, 2019.
 
 ******************************************
 Gaussian 16:  ES64L-G16RevC.01  3-Jul-2019
                14-Aug-2024 
 ******************************************
 %nprocs=16
 Will use up to   16 processors via shared memory.
 %mem=16GB
 %chk=pyrdz1_conf-1.chk
 ----------------------------------------------------------------------
 # B3LYP gen 6D pseudo=read symmetry=loose empiricaldispersion=GD3BJ in
 t=(grid=ultrafine) opt freq=noraman
 ----------------------------------------------------------------------
 1/18=20,19=15,26=4,38=1/1,3;
 2/9=110,12=2,17=4,18=3,40=1/2;
 3/5=7,8=2,11=2,16=1,17=8,25=1,30=1,71=1,74=-5,75=-5,124=41/1,2,3;
 4//1;
 5/5=2,38=5/2;
 6/7=2,8=2,9=2,10=2,28=1/1;
 7//1,2,3,16;
 1/18=20,19=15,26=4/3(2);
 2/9=110/2;
 99//99;
 2/9=110/2;
 3/5=7,6=1,8=2,11=2,16=1,17=8,25=1,30=1,71=1,74=-5,75=-5,82=7,124=41/1,2,3;
 4/5=5,16=3,69=1/1;
 5/5=2,38=5/2;
 7//1,2,3,16;
 1/18=20,19=15,26=4/3(-5);
 2/9=110/2;
 6/7=2,8=2,9=2,10=2,19=2,28=1/1;
 99/9=1/99;
 ----------
 pyrdz1.xyz
 ----------
 Symbolic Z-matrix:
 Charge =  0 Multiplicity = 1
 C                    -3.8855    1.8105    0.2831 
 C                    -3.3221    0.4751    0.8055 
 C                    -4.1287   -0.7229    0.2689 
 C                    -1.8284    0.3332    0.5128 
 N                    -1.4569    0.302    -0.797 
 N                    -0.1606    0.1764   -1.126 
 C                     0.7976    0.0752   -0.1597 
 C                     2.2108   -0.0458   -0.6319 
 C                     2.6456    0.6852   -1.7499 
 C                     3.9605    0.5938   -2.206 
 C                     4.867    -0.2345   -1.551 
 I                     6.8388   -0.3753   -2.2301 
 C                     4.4563   -0.9704   -0.4433 
 C                     3.1421   -0.8807    0.0144 
 F                     2.7867   -1.6275    1.0861 
 C                     0.4539    0.1113    1.197 
 C                    -0.8902    0.2405    1.543 
 H                    -4.9271    1.9446    0.5761 
 H                    -3.3221    2.6574    0.6768 
 H                    -3.8404    1.8648   -0.8056 
 H                    -3.4448    0.4804    1.8905 
 H                    -4.0941   -0.7728   -0.8203 
 H                    -5.1771   -0.6603    0.5621 
 H                    -3.7365   -1.6658    0.6521 
 H                     1.956     1.3366   -2.2685 
 H                     4.2774    1.1645   -3.0669 
 H                     5.1538   -1.6184    0.0646 
 H                     1.209     0.045     1.9664 
 H                    -1.1881    0.2678    2.5805 
 

 GradGradGradGradGradGradGradGradGradGradGradGradGradGradGradGradGradGrad
 Berny optimization.
 Initialization pass.
                           ----------------------------
                           !    Initial Parameters    !
                           ! (Angstroms and Degrees)  !
 --------------------------                            --------------------------
 ! Name  Definition              Value          Derivative Info.                !
 --------------------------------------------------------------------------------
 ! R1    R(1,2)                  1.5407         estimate D2E/DX2                !
 ! R2    R(1,18)                 1.0903         estimate D2E/DX2                !
 ! R3    R(1,19)                 1.0907         estimate D2E/DX2                !
 ! R4    R(1,20)                 1.091          estimate D2E/DX2                !
 ! R5    R(2,3)                  1.5407         estimate D2E/DX2                !
 ! R6    R(2,4)                  1.5287         estimate D2E/DX2                !
 ! R7    R(2,21)                 1.0919         estimate D2E/DX2                !
 ! R8    R(3,22)                 1.0909         estimate D2E/DX2                !
 ! R9    R(3,23)                 1.0904         estimate D2E/DX2                !
 ! R10   R(3,24)                 1.0907         estimate D2E/DX2                !
 ! R11   R(4,5)                  1.3618         estimate D2E/DX2                !
 ! R12   R(4,17)                 1.3965         estimate D2E/DX2                !
 ! R13   R(5,6)                  1.3433         estimate D2E/DX2                !
 ! R14   R(6,7)                  1.3646         estimate D2E/DX2                !
 ! R15   R(7,8)                  1.4949         estimate D2E/DX2                !
 ! R16   R(7,16)                 1.4            estimate D2E/DX2                !
 ! R17   R(8,9)                  1.4048         estimate D2E/DX2                !
 ! R18   R(8,14)                 1.4079         estimate D2E/DX2                !
 ! R19   R(9,10)                 1.3948         estimate D2E/DX2                !
 ! R20   R(9,25)                 1.0811         estimate D2E/DX2                !
 ! R21   R(10,11)                1.3917         estimate D2E/DX2                !
 ! R22   R(10,26)                1.0804         estimate D2E/DX2                !
 ! R23   R(11,12)                2.0902         estimate D2E/DX2                !
 ! R24   R(11,13)                1.3918         estimate D2E/DX2                !
 ! R25   R(13,14)                1.3945         estimate D2E/DX2                !
 ! R26   R(13,27)                1.0791         estimate D2E/DX2                !
 ! R27   R(14,15)                1.3537         estimate D2E/DX2                !
 ! R28   R(16,17)                1.3939         estimate D2E/DX2                !
 ! R29   R(16,28)                1.0801         estimate D2E/DX2                !
 ! R30   R(17,29)                1.0798         estimate D2E/DX2                !
 ! A1    A(2,1,18)             111.3977         estimate D2E/DX2                !
 ! A2    A(2,1,19)             111.2067         estimate D2E/DX2                !
 ! A3    A(2,1,20)             111.4931         estimate D2E/DX2                !
 ! A4    A(18,1,19)            107.5157         estimate D2E/DX2                !
 ! A5    A(18,1,20)            107.5501         estimate D2E/DX2                !
 ! A6    A(19,1,20)            107.4697         estimate D2E/DX2                !
 ! A7    A(1,2,3)              111.3728         estimate D2E/DX2                !
 ! A8    A(1,2,4)              111.8914         estimate D2E/DX2                !
 ! A9    A(1,2,21)             106.9553         estimate D2E/DX2                !
 ! A10   A(3,2,4)              111.8809         estimate D2E/DX2                !
 ! A11   A(3,2,21)             106.919          estimate D2E/DX2                !
 ! A12   A(4,2,21)             107.4877         estimate D2E/DX2                !
 ! A13   A(2,3,22)             111.5127         estimate D2E/DX2                !
 ! A14   A(2,3,23)             111.4115         estimate D2E/DX2                !
 ! A15   A(2,3,24)             111.1966         estimate D2E/DX2                !
 ! A16   A(22,3,23)            107.5531         estimate D2E/DX2                !
 ! A17   A(22,3,24)            107.4473         estimate D2E/DX2                !
 ! A18   A(23,3,24)            107.5102         estimate D2E/DX2                !
 ! A19   A(2,4,5)              116.9254         estimate D2E/DX2                !
 ! A20   A(2,4,17)             121.4238         estimate D2E/DX2                !
 ! A21   A(5,4,17)             121.6508         estimate D2E/DX2                !
 ! A22   A(4,5,6)              120.0637         estimate D2E/DX2                !
 ! A23   A(5,6,7)              120.7388         estimate D2E/DX2                !
 ! A24   A(6,7,8)              116.4958         estimate D2E/DX2                !
 ! A25   A(6,7,16)             120.7913         estimate D2E/DX2                !
 ! A26   A(8,7,16)             122.7015         estimate D2E/DX2                !
 ! A27   A(7,8,9)              120.1242         estimate D2E/DX2                !
 ! A28   A(7,8,14)             121.8932         estimate D2E/DX2                !
 ! A29   A(9,8,14)             117.9826         estimate D2E/DX2                !
 ! A30   A(8,9,10)             121.1952         estimate D2E/DX2                !
 ! A31   A(8,9,25)             119.8597         estimate D2E/DX2                !
 ! A32   A(10,9,25)            118.9443         estimate D2E/DX2                !
 ! A33   A(9,10,11)            119.9445         estimate D2E/DX2                !
 ! A34   A(9,10,26)            120.1642         estimate D2E/DX2                !
 ! A35   A(11,10,26)           119.8913         estimate D2E/DX2                !
 ! A36   A(10,11,12)           120.1085         estimate D2E/DX2                !
 ! A37   A(10,11,13)           119.8046         estimate D2E/DX2                !
 ! A38   A(12,11,13)           120.0869         estimate D2E/DX2                !
 ! A39   A(11,13,14)           120.3503         estimate D2E/DX2                !
 ! A40   A(11,13,27)           120.0908         estimate D2E/DX2                !
 ! A41   A(14,13,27)           119.5584         estimate D2E/DX2                !
 ! A42   A(8,14,13)            120.7222         estimate D2E/DX2                !
 ! A43   A(8,14,15)            121.1253         estimate D2E/DX2                !
 ! A44   A(13,14,15)           118.1492         estimate D2E/DX2                !
 ! A45   A(7,16,17)            118.6626         estimate D2E/DX2                !
 ! A46   A(7,16,28)            121.1382         estimate D2E/DX2                !
 ! A47   A(17,16,28)           120.1988         estimate D2E/DX2                !
 ! A48   A(4,17,16)            118.0902         estimate D2E/DX2                !
 ! A49   A(4,17,29)            121.4535         estimate D2E/DX2                !
 ! A50   A(16,17,29)           120.4562         estimate D2E/DX2                !
 ! D1    D(18,1,2,3)            59.2068         estimate D2E/DX2                !
 ! D2    D(18,1,2,4)          -174.7388         estimate D2E/DX2                !
 ! D3    D(18,1,2,21)          -57.2821         estimate D2E/DX2                !
 ! D4    D(19,1,2,3)           179.1255         estimate D2E/DX2                !
 ! D5    D(19,1,2,4)           -54.8201         estimate D2E/DX2                !
 ! D6    D(19,1,2,21)           62.6366         estimate D2E/DX2                !
 ! D7    D(20,1,2,3)           -60.9499         estimate D2E/DX2                !
 ! D8    D(20,1,2,4)            65.1045         estimate D2E/DX2                !
 ! D9    D(20,1,2,21)         -177.4389         estimate D2E/DX2                !
 ! D10   D(1,2,3,22)            60.9299         estimate D2E/DX2                !
 ! D11   D(1,2,3,23)           -59.2535         estimate D2E/DX2                !
 ! D12   D(1,2,3,24)          -179.1676         estimate D2E/DX2                !
 ! D13   D(4,2,3,22)           -65.1303         estimate D2E/DX2                !
 ! D14   D(4,2,3,23)           174.6863         estimate D2E/DX2                !
 ! D15   D(4,2,3,24)            54.7722         estimate D2E/DX2                !
 ! D16   D(21,2,3,22)          177.441          estimate D2E/DX2                !
 ! D17   D(21,2,3,23)           57.2577         estimate D2E/DX2                !
 ! D18   D(21,2,3,24)          -62.6565         estimate D2E/DX2                !
 ! D19   D(1,2,4,5)            -63.019          estimate D2E/DX2                !
 ! D20   D(1,2,4,17)           116.9597         estimate D2E/DX2                !
 ! D21   D(3,2,4,5)             62.7572         estimate D2E/DX2                !
 ! D22   D(3,2,4,17)          -117.264          estimate D2E/DX2                !
 ! D23   D(21,2,4,5)           179.8441         estimate D2E/DX2                !
 ! D24   D(21,2,4,17)           -0.1772         estimate D2E/DX2                !
 ! D25   D(2,4,5,6)           -179.8675         estimate D2E/DX2                !
 ! D26   D(17,4,5,6)             0.1538         estimate D2E/DX2                !
 ! D27   D(2,4,17,16)          179.9186         estimate D2E/DX2                !
 ! D28   D(2,4,17,29)           -0.1164         estimate D2E/DX2                !
 ! D29   D(5,4,17,16)           -0.1037         estimate D2E/DX2                !
 ! D30   D(5,4,17,29)          179.8613         estimate D2E/DX2                !
 ! D31   D(4,5,6,7)              0.1744         estimate D2E/DX2                !
 ! D32   D(5,6,7,8)           -179.3547         estimate D2E/DX2                !
 ! D33   D(5,6,7,16)            -0.5486         estimate D2E/DX2                !
 ! D34   D(6,7,8,9)             38.1521         estimate D2E/DX2                !
 ! D35   D(6,7,8,14)          -141.8853         estimate D2E/DX2                !
 ! D36   D(16,7,8,9)          -140.629          estimate D2E/DX2                !
 ! D37   D(16,7,8,14)           39.3335         estimate D2E/DX2                !
 ! D38   D(6,7,16,17)            0.585          estimate D2E/DX2                !
 ! D39   D(6,7,16,28)         -179.1709         estimate D2E/DX2                !
 ! D40   D(8,7,16,17)          179.3152         estimate D2E/DX2                !
 ! D41   D(8,7,16,28)           -0.4408         estimate D2E/DX2                !
 ! D42   D(7,8,9,10)           179.7108         estimate D2E/DX2                !
 ! D43   D(7,8,9,25)             0.0369         estimate D2E/DX2                !
 ! D44   D(14,8,9,10)           -0.2532         estimate D2E/DX2                !
 ! D45   D(14,8,9,25)         -179.927          estimate D2E/DX2                !
 ! D46   D(7,8,14,13)         -179.7043         estimate D2E/DX2                !
 ! D47   D(7,8,14,15)            0.9601         estimate D2E/DX2                !
 ! D48   D(9,8,14,13)            0.259          estimate D2E/DX2                !
 ! D49   D(9,8,14,15)         -179.0766         estimate D2E/DX2                !
 ! D50   D(8,9,10,11)            0.0825         estimate D2E/DX2                !
 ! D51   D(8,9,10,26)         -179.9223         estimate D2E/DX2                !
 ! D52   D(25,9,10,11)         179.7592         estimate D2E/DX2                !
 ! D53   D(25,9,10,26)          -0.2456         estimate D2E/DX2                !
 ! D54   D(9,10,11,12)        -179.9977         estimate D2E/DX2                !
 ! D55   D(9,10,11,13)           0.0889         estimate D2E/DX2                !
 ! D56   D(26,10,11,12)          0.0072         estimate D2E/DX2                !
 ! D57   D(26,10,11,13)       -179.9063         estimate D2E/DX2                !
 ! D58   D(10,11,13,14)         -0.0823         estimate D2E/DX2                !
 ! D59   D(10,11,13,27)        179.648          estimate D2E/DX2                !
 ! D60   D(12,11,13,14)       -179.9957         estimate D2E/DX2                !
 ! D61   D(12,11,13,27)         -0.2655         estimate D2E/DX2                !
 ! D62   D(11,13,14,8)          -0.0955         estimate D2E/DX2                !
 ! D63   D(11,13,14,15)        179.2594         estimate D2E/DX2                !
 ! D64   D(27,13,14,8)        -179.8272         estimate D2E/DX2                !
 ! D65   D(27,13,14,15)         -0.4723         estimate D2E/DX2                !
 ! D66   D(7,16,17,4)           -0.2587         estimate D2E/DX2                !
 ! D67   D(7,16,17,29)         179.776          estimate D2E/DX2                !
 ! D68   D(28,16,17,4)         179.4996         estimate D2E/DX2                !
 ! D69   D(28,16,17,29)         -0.4657         estimate D2E/DX2                !
 --------------------------------------------------------------------------------
 Trust Radius=3.00D-01 FncErr=1.00D-07 GrdErr=1.00D-06 EigMax=2.50D+02 EigMin=1.00D-04
 Number of steps in this run=    159 maximum allowed number of steps=    174.
 GradGradGradGradGradGradGradGradGradGradGradGradGradGradGradGradGradGrad

                          Input orientation:                          
 ---------------------------------------------------------------------
 Center     Atomic      Atomic             Coordinates (Angstroms)
 Number     Number       Type             X           Y           Z
 ---------------------------------------------------------------------
      1          6           0       -3.885500    1.810500    0.283100
      2          6           0       -3.322100    0.475100    0.805500
      3          6           0       -4.128700   -0.722900    0.268900
      4          6           0       -1.828400    0.333200    0.512800
      5          7           0       -1.456900    0.302000   -0.797000
      6          7           0       -0.160600    0.176400   -1.126000
      7          6           0        0.797600    0.075200   -0.159700
      8          6           0        2.210800   -0.045800   -0.631900
      9          6           0        2.645600    0.685200   -1.749900
     10          6           0        3.960500    0.593800   -2.206000
     11          6           0        4.867000   -0.234500   -1.551000
     12         53           0        6.838800   -0.375300   -2.230100
     13          6           0        4.456300   -0.970400   -0.443300
     14          6           0        3.142100   -0.880700    0.014400
     15          9           0        2.786700   -1.627500    1.086100
     16          6           0        0.453900    0.111300    1.197000
     17          6           0       -0.890200    0.240500    1.543000
     18          1           0       -4.927100    1.944600    0.576100
     19          1           0       -3.322100    2.657400    0.676800
     20          1           0       -3.840400    1.864800   -0.805600
     21          1           0       -3.444800    0.480400    1.890500
     22          1           0       -4.094100   -0.772800   -0.820300
     23          1           0       -5.177100   -0.660300    0.562100
     24          1           0       -3.736500   -1.665800    0.652100
     25          1           0        1.956000    1.336600   -2.268500
     26          1           0        4.277400    1.164500   -3.066900
     27          1           0        5.153800   -1.618400    0.064600
     28          1           0        1.209000    0.045000    1.966400
     29          1           0       -1.188100    0.267800    2.580500
 ---------------------------------------------------------------------
                    Distance matrix (angstroms):
                    1          2          3          4          5
     1  C    0.000000
     2  C    1.540654   0.000000
     3  C    2.545086   1.540697   0.000000
     4  C    2.542998   1.528708   2.542875   0.000000
     5  N    3.056188   2.465145   3.053699   1.361823   0.000000
     6  N    4.304733   3.716853   4.301198   2.343461   1.343283
     7  C    5.013857   4.250113   5.008901   2.722994   2.353797
     8  C    6.438008   5.740247   6.438879   4.215343   3.687851
     9  C    6.932147   6.495202   7.207596   5.025972   4.229109
    10  C    8.320799   7.881592   8.561191   6.400871   5.605234
    11  C    9.173451   8.550905   9.190930   7.029220   6.391249
    12  I   11.229626  10.638700  11.253972   9.118433   8.445777
    13  C    8.823077   8.009524   8.618046   6.489295   6.058881
    14  C    7.530068   6.652061   7.276964   5.140800   4.817463
    15  F    7.548702   6.466614   7.022028   5.046996   5.027641
    16  C    4.748988   3.813633   4.749472   2.392961   2.768313
    17  C    3.608888   2.552074   3.611004   1.396469   2.408429
    18  H    1.090304   2.188168   2.801316   3.493216   4.077478
    19  H    1.090715   2.186092   3.499059   2.767660   3.346486
    20  H    1.090986   2.189873   2.816711   2.851687   2.850174
    21  H    2.132397   1.091929   2.131956   2.128961   3.347571
    22  H    2.816815   2.190083   1.090891   2.851980   2.847905
    23  H    2.801950   2.188470   1.090425   3.493317   4.075912
    24  H    3.499003   2.186026   1.090744   2.766993   3.341961
    25  H    6.392055   6.168468   6.906773   4.802512   3.857926
    26  H    8.847189   8.557053   9.238634   7.126437   6.227242
    27  H    9.670266   8.761995   9.327833   7.263659   6.937697
    28  H    5.648400   4.697184   5.653514   3.379617   3.848305
    29  H    3.864445   2.783443   3.869381   2.165559   3.388352
                    6          7          8          9         10
     6  N    0.000000
     7  C    1.364597   0.000000
     8  C    2.432498   1.494907   0.000000
     9  C    2.919398   2.513153   1.404755   0.000000
    10  C    4.280664   3.802660   2.438920   1.394756   0.000000
    11  C    5.062235   4.311803   2.817046   2.412473   1.391707
    12  I    7.107391   6.402000   4.907260   4.351802   3.037161
    13  C    4.805933   3.815730   2.435719   2.779721   2.408246
    14  C    3.650452   2.537860   1.407864   2.410666   2.788208
    15  F    4.102928   2.899608   2.405194   3.662156   4.141244
    16  C    2.403784   1.400024   2.540916   3.717140   4.910138
    17  C    2.767668   2.403160   3.798468   4.852095   6.140775
    18  H    5.361268   6.066980   7.508034   8.021356   9.410323
    19  H    4.404603   4.933499   6.295472   6.737350   8.099706
    20  H    4.061315   5.013073   6.348038   6.659681   8.026868
    21  H    4.469637   4.729214   6.214918   7.098410   8.463607
    22  H    4.057937   5.008415   6.349471   6.957979   8.286395
    23  H    5.358640   6.062920   7.508949   8.267427   9.629687
    24  H    4.398000   4.924242   6.296303   7.213044   8.515770
    25  H    2.670462   2.716626   2.157409   1.081118   2.138616
    26  H    4.943610   4.663410   3.415390   2.151044   1.080404
    27  H    5.734255   4.679217   3.408729   3.858763   3.387243
    28  H    3.384672   2.165748   2.786218   4.035413   5.028007
    29  H    3.847370   3.389513   4.687257   5.798607   7.037396
                   11         12         13         14         15
    11  C    0.000000
    12  I    2.090215   0.000000
    13  C    1.391841   3.036956   0.000000
    14  C    2.417298   4.354170   1.394510   0.000000
    15  F    3.636261   5.383744   2.357628   1.353721   0.000000
    16  C    5.210234   7.262833   4.458684   3.099843   2.911646
    17  C    6.553153   8.622815   5.830671   4.455687   4.149431
    18  H   10.256580  12.316375   9.878492   8.567953   8.516027
    19  H    8.965910  10.995055   8.655580   7.398838   7.472973
    20  H    8.987853  11.004207   8.775241   7.547548   7.726134
    21  H    9.024468  11.111435   8.365335   6.982807   6.627360
    22  H    9.006942  11.030587   8.560988   7.284982   7.190986
    23  H   10.272801  12.339346   9.690686   8.340122   8.039413
    24  H    8.995692  11.036731   8.294905   6.952567   6.537734
    25  H    3.384831   5.174342   3.860713   3.396305   4.552943
    26  H    2.145410   3.103544   3.387194   3.868612   5.221576
    27  H    2.146531   3.106472   1.079061   2.143282   2.578121
    28  H    5.082439   7.034338   4.169250   2.898983   2.461975
    29  H    7.347505   9.380116   6.521944   5.162805   4.650207
                   16         17         18         19         20
    16  C    0.000000
    17  C    1.393920   0.000000
    18  H    5.718537   4.487250   0.000000
    19  H    4.583820   3.536361   1.759048   0.000000
    20  H    5.052344   4.105844   1.759653   1.759079   0.000000
    21  H    3.977064   2.589264   2.463482   2.495486   3.056471
    22  H    5.053260   4.108155   3.166715   3.821461   2.649814
    23  H    5.718971   4.489000   2.616907   3.802803   3.167570
    24  H    4.584152   3.539648   3.802406   4.343086   3.821102
    25  H    3.970813   4.881580   7.472515   6.186893   6.001444
    26  H    5.823163   6.986347   9.929896   8.602118   8.455920
    27  H    5.134516   6.493929  10.704258   9.513051   9.684295
    28  H    1.080069   2.150379   6.572149   5.386889   6.040869
    29  H    2.152842   1.079767   4.561732   3.726690   4.588113
                   21         22         23         24         25
    21  H    0.000000
    22  H    3.056229   0.000000
    23  H    2.463068   1.759709   0.000000
    24  H    2.494975   1.758775   1.759107   0.000000
    25  H    6.870153   6.568909   7.929755   7.067451   0.000000
    26  H    9.201966   8.881574  10.290146   9.277077   2.460886
    27  H    9.037411   9.328544  10.387153   8.909817   4.939768
    28  H    4.674739   6.046269   6.576609   5.395571   4.490058
    29  H    2.369387   4.592725   4.565899   3.735221   5.877117
                   26         27         28         29
    26  H    0.000000
    27  H    4.280059   0.000000
    28  H    6.000206   4.684569   0.000000
    29  H    7.910050   7.078644   2.484521   0.000000
 Stoichiometry    C13H12FIN2
 Framework group  C1[X(C13H12FIN2)]
 Deg. of freedom    81
 Full point group                 C1      NOp   1
 Largest Abelian subgroup         C1      NOp   1
 Largest concise Abelian subgroup C1      NOp   1
                         Standard orientation:                         
 ---------------------------------------------------------------------
 Center     Atomic      Atomic             Coordinates (Angstroms)
 Number     Number       Type             X           Y           Z
 ---------------------------------------------------------------------
      1          6           0       -6.546839   -1.303437   -0.814926
      2          6           0       -6.036864   -0.047316   -0.083010
      3          6           0       -6.573482    0.018570    1.359712
      4          6           0       -4.512630    0.059962   -0.129378
      5          7           0       -3.805855   -0.929346    0.484055
      6          7           0       -2.462977   -0.896362    0.483954
      7          6           0       -1.790390    0.123783   -0.123546
      8          6           0       -0.297585    0.058039   -0.079289
      9          6           0        0.357997   -1.177108   -0.213309
     10          6           0        1.749705   -1.263521   -0.181320
     11          6           0        2.513502   -0.112462   -0.012420
     12         53           0        4.599494   -0.236031    0.036205
     13          6           0        1.884201    1.121264    0.125866
     14          6           0        0.492877    1.210039    0.094337
     15          9           0       -0.072868    2.430185    0.248406
     16          6           0       -2.483282    1.153888   -0.770734
     17          6           0       -3.876886    1.124237   -0.772241
     18          1           0       -7.636122   -1.324508   -0.857112
     19          1           0       -6.177839   -1.339474   -1.840694
     20          1           0       -6.219176   -2.217038   -0.316708
     21          1           0       -6.442890    0.816817   -0.612846
     22          1           0       -6.247416   -0.840677    1.947436
     23          1           0       -7.663616    0.035313    1.378583
     24          1           0       -6.222589    0.916234    1.870394
     25          1           0       -0.219364   -2.080982   -0.349256
     26          1           0        2.236690   -2.222109   -0.287279
     27          1           0        2.471716    2.015948    0.262750
     28          1           0       -1.956435    1.956977   -1.264726
     29          1           0       -4.440425    1.905811   -1.259543
 ---------------------------------------------------------------------
 Rotational constants (GHZ):           1.3809072           0.0918521           0.0882742
 General basis read from cards:  (6D, 7F)
 ======================================================================================================
                                       Pseudopotential Parameters
 ======================================================================================================
  Center     Atomic      Valence      Angular      Power
  Number     Number     Electrons     Momentum     of R      Exponent        Coefficient   SO-Coeffient
 ======================================================================================================
    1          6
                                   No pseudopotential on this center.
    2          6
                                   No pseudopotential on this center.
    3          6
                                   No pseudopotential on this center.
    4          6
                                   No pseudopotential on this center.
    5          7
                                   No pseudopotential on this center.
    6          7
                                   No pseudopotential on this center.
    7          6
                                   No pseudopotential on this center.
    8          6
                                   No pseudopotential on this center.
    9          6
                                   No pseudopotential on this center.
   10          6
                                   No pseudopotential on this center.
   11          6
                                   No pseudopotential on this center.
   12         53            7
                                      F and up 
                                                     0        1.0715702       -0.07476210    0.00000000
                                                     1       44.1936028      -30.08112240    0.00000000
                                                     2       12.9367609      -75.37227210    0.00000000
                                                     2        3.1956412      -22.05637580    0.00000000
                                                     2        0.8589806       -1.69795850    0.00000000
                                      S - F
                                                     0      127.9202670        2.93800360    0.00000000
                                                     1       78.6211465       41.24712670    0.00000000
                                                     2       36.5146237      287.86800950    0.00000000
                                                     2        9.9065681      114.37585060    0.00000000
                                                     2        1.9420086       37.65477140    0.00000000
                                      P - F
                                                     0       13.0035304        2.22226300    0.00000000
                                                     1       76.0331404       39.40908310    0.00000000
                                                     2       24.1961684      177.40750020    0.00000000
                                                     2        6.4053433       77.98894620    0.00000000
                                                     2        1.5851786       25.75476410    0.00000000
                                      D - F
                                                     0       40.4278108        7.05243600    0.00000000
                                                     1       28.9084375       33.30416350    0.00000000
                                                     2       15.6268936      186.94538750    0.00000000
                                                     2        4.1442856       71.96883610    0.00000000
                                                     2        0.9377235        9.36306570    0.00000000
   13          6
                                   No pseudopotential on this center.
   14          6
                                   No pseudopotential on this center.
   15          9
                                   No pseudopotential on this center.
   16          6
                                   No pseudopotential on this center.
   17          6
                                   No pseudopotential on this center.
   18          1
                                   No pseudopotential on this center.
   19          1
                                   No pseudopotential on this center.
   20          1
                                   No pseudopotential on this center.
   21          1
                                   No pseudopotential on this center.
   22          1
                                   No pseudopotential on this center.
   23          1
                                   No pseudopotential on this center.
   24          1
                                   No pseudopotential on this center.
   25          1
                                   No pseudopotential on this center.
   26          1
                                   No pseudopotential on this center.
   27          1
                                   No pseudopotential on this center.
   28          1
                                   No pseudopotential on this center.
   29          1
                                   No pseudopotential on this center.
 ======================================================================================================
 There are   308 symmetry adapted cartesian basis functions of A   symmetry.
 There are   308 symmetry adapted basis functions of A   symmetry.
   308 basis functions,   544 primitive gaussians,   308 cartesian basis functions
    60 alpha electrons       60 beta electrons
       nuclear repulsion energy      1074.2970631172 Hartrees.
 NAtoms=   29 NActive=   29 NUniq=   29 SFac= 1.00D+00 NAtFMM=   60 NAOKFM=F Big=F
 Integral buffers will be    131072 words long.
 Raffenetti 2 integral format.
 Two-electron integral symmetry is turned on.
 Nuclear repulsion after empirical dispersion term =     1074.2334118260 Hartrees.
 One-electron integrals computed using PRISM.
   1 Symmetry operations used in ECPInt.
 ECPInt:  NShTT=    5460 NPrTT=   29729 LenC2=    4592 LenP2D=   15796.
 LDataN:  DoStor=T MaxTD1= 5 Len=  102
 NBasis=   308 RedAO= T EigKep=  4.30D-04  NBF=   308
 NBsUse=   308 1.00D-06 EigRej= -1.00D+00 NBFU=   308
 Defaulting to unpruned grid for atomic number  53.
 ExpMin= 1.05D-01 ExpMax= 7.00D+03 ExpMxC= 1.05D+03 IAcc=3 IRadAn=         5 AccDes= 0.00D+00
 Harris functional with IExCor=  402 and IRadAn=       5 diagonalized for initial guess.
 HarFok:  IExCor=  402 AccDes= 0.00D+00 IRadAn=         5 IDoV= 1 UseB2=F ITyADJ=14
 ICtDFT=  3500011 ScaDFX=  1.000000  1.000000  1.000000  1.000000
 Defaulting to unpruned grid for atomic number  53.
 FoFCou: FMM=F IPFlag=           0 FMFlag=      100000 FMFlg1=           0
         NFxFlg=           0 DoJE=T BraDBF=F KetDBF=T FulRan=T
         wScrn=  0.000000 ICntrl=       500 IOpCl=  0 I1Cent=   200000004 NGrid=           0
         NMat0=    1 NMatS0=      1 NMatT0=    0 NMatD0=    1 NMtDS0=    0 NMtDT0=    0
 Petite list used in FoFCou.
 Requested convergence on RMS density matrix=1.00D-08 within 128 cycles.
 Requested convergence on MAX density matrix=1.00D-06.
 Requested convergence on             energy=1.00D-06.
 No special actions if energy rises.
 Integral accuracy reduced to 1.0D-05 until final iterations.
 Defaulting to unpruned grid for atomic number  53.
 Defaulting to unpruned grid for atomic number  53.
 Defaulting to unpruned grid for atomic number  53.
 Defaulting to unpruned grid for atomic number  53.
 Defaulting to unpruned grid for atomic number  53.
 Defaulting to unpruned grid for atomic number  53.
 Defaulting to unpruned grid for atomic number  53.
 Defaulting to unpruned grid for atomic number  53.
 Defaulting to unpruned grid for atomic number  53.
 Defaulting to unpruned grid for atomic number  53.
 Defaulting to unpruned grid for atomic number  53.
 Defaulting to unpruned grid for atomic number  53.
 Defaulting to unpruned grid for atomic number  53.
 Defaulting to unpruned grid for atomic number  53.
 Defaulting to unpruned grid for atomic number  53.
 Defaulting to unpruned grid for atomic number  53.
 Initial convergence to 1.0D-05 achieved.  Increase integral accuracy.
 SCF Done:  E(RB3LYP) =  -723.383608873     A.U. after   15 cycles
            NFock= 15  Conv=0.62D-08     -V/T= 2.0212

 **********************************************************************

            Population analysis using the SCF Density.

 **********************************************************************

 Orbital symmetries:
       Occupied  (A) (A) (A) (A) (A) (A) (A) (A) (A) (A) (A) (A)
                 (A) (A) (A) (A) (A) (A) (A) (A) (A) (A) (A) (A)
                 (A) (A) (A) (A) (A) (A) (A) (A) (A) (A) (A) (A)
                 (A) (A) (A) (A) (A) (A) (A) (A) (A) (A) (A) (A)
                 (A) (A) (A) (A) (A) (A) (A) (A) (A) (A) (A) (A)
       Virtual   (A) (A) (A) (A) (A) (A) (A) (A) (A) (A) (A) (A)
                 (A) (A) (A) (A) (A) (A) (A) (A) (A) (A) (A) (A)
                 (A) (A) (A) (A) (A) (A) (A) (A) (A) (A) (A) (A)
                 (A) (A) (A) (A) (A) (A) (A) (A) (A) (A) (A) (A)
                 (A) (A) (A) (A) (A) (A) (A) (A) (A) (A) (A) (A)
                 (A) (A) (A) (A) (A) (A) (A) (A) (A) (A) (A) (A)
                 (A) (A) (A) (A) (A) (A) (A) (A) (A) (A) (A) (A)
                 (A) (A) (A) (A) (A) (A) (A) (A) (A) (A) (A) (A)
                 (A) (A) (A) (A) (A) (A) (A) (A) (A) (A) (A) (A)
                 (A) (A) (A) (A) (A) (A) (A) (A) (A) (A) (A) (A)
                 (A) (A) (A) (A) (A) (A) (A) (A) (A) (A) (A) (A)
                 (A) (A) (A) (A) (A) (A) (A) (A) (A) (A) (A) (A)
                 (A) (A) (A) (A) (A) (A) (A) (A) (A) (A) (A) (A)
                 (A) (A) (A) (A) (A) (A) (A) (A) (A) (A) (A) (A)
                 (A) (A) (A) (A) (A) (A) (A) (A) (A) (A) (A) (A)
                 (A) (A) (A) (A) (A) (A) (A) (A) (A) (A) (A) (A)
                 (A) (A) (A) (A) (A) (A) (A) (A) (A) (A) (A) (A)
                 (A) (A) (A) (A) (A) (A) (A) (A) (A) (A) (A) (A)
                 (A) (A) (A) (A) (A) (A) (A) (A) (A) (A) (A) (A)
                 (A) (A) (A) (A) (A) (A) (A) (A) (A) (A) (A) (A)
                 (A) (A) (A) (A) (A) (A) (A) (A)
 The electronic state is 1-A.
 Alpha  occ. eigenvalues --  -24.72652 -14.37020 -14.36800 -10.29437 -10.25356
 Alpha  occ. eigenvalues --  -10.24753 -10.23851 -10.22402 -10.22220 -10.22000
 Alpha  occ. eigenvalues --  -10.21552 -10.21326 -10.21039 -10.20435 -10.17686
 Alpha  occ. eigenvalues --  -10.17637  -1.23534  -1.00597  -0.88605  -0.84631
 Alpha  occ. eigenvalues --   -0.82894  -0.78906  -0.76732  -0.76562  -0.69947
 Alpha  occ. eigenvalues --   -0.68631  -0.67005  -0.65071  -0.63249  -0.60926
 Alpha  occ. eigenvalues --   -0.58565  -0.54634  -0.52396  -0.52020  -0.50219
 Alpha  occ. eigenvalues --   -0.48453  -0.47475  -0.45835  -0.45137  -0.44768
 Alpha  occ. eigenvalues --   -0.43423  -0.42920  -0.41577  -0.40853  -0.40303
 Alpha  occ. eigenvalues --   -0.38633  -0.38369  -0.38106  -0.36047  -0.35222
 Alpha  occ. eigenvalues --   -0.34644  -0.33878  -0.31593  -0.30785  -0.30301
 Alpha  occ. eigenvalues --   -0.27792  -0.27526  -0.26479  -0.23983  -0.23336
 Alpha virt. eigenvalues --   -0.05555  -0.05057  -0.03368  -0.01800   0.00181
 Alpha virt. eigenvalues --    0.08354   0.10211   0.11056   0.11258   0.13204
 Alpha virt. eigenvalues --    0.14385   0.14723   0.15058   0.15531   0.15710
 Alpha virt. eigenvalues --    0.16822   0.18245   0.18934   0.19183   0.19871
 Alpha virt. eigenvalues --    0.20461   0.22512   0.23202   0.25572   0.26578
 Alpha virt. eigenvalues --    0.28075   0.29483   0.30285   0.30547   0.31064
 Alpha virt. eigenvalues --    0.34006   0.35288   0.36984   0.38294   0.40175
 Alpha virt. eigenvalues --    0.44948   0.46810   0.48686   0.48874   0.49743
 Alpha virt. eigenvalues --    0.50589   0.50860   0.52316   0.52858   0.53350
 Alpha virt. eigenvalues --    0.54599   0.55373   0.56644   0.57033   0.57777
 Alpha virt. eigenvalues --    0.57937   0.58949   0.59085   0.59496   0.60707
 Alpha virt. eigenvalues --    0.62387   0.63332   0.63579   0.64328   0.65572
 Alpha virt. eigenvalues --    0.66759   0.67985   0.68267   0.69384   0.72525
 Alpha virt. eigenvalues --    0.73468   0.75290   0.76371   0.77949   0.78864
 Alpha virt. eigenvalues --    0.79621   0.80611   0.81598   0.82152   0.82785
 Alpha virt. eigenvalues --    0.84240   0.85530   0.86265   0.86436   0.87386
 Alpha virt. eigenvalues --    0.89143   0.89614   0.89813   0.91184   0.92086
 Alpha virt. eigenvalues --    0.92248   0.94393   0.95265   0.96220   0.96638
 Alpha virt. eigenvalues --    0.99727   1.01468   1.02715   1.03555   1.05517
 Alpha virt. eigenvalues --    1.09306   1.10381   1.11475   1.15053   1.18178
 Alpha virt. eigenvalues --    1.19732   1.20879   1.23192   1.23471   1.25834
 Alpha virt. eigenvalues --    1.27794   1.29169   1.33022   1.34439   1.35004
 Alpha virt. eigenvalues --    1.35671   1.38100   1.38962   1.39387   1.40363
 Alpha virt. eigenvalues --    1.42311   1.42959   1.44312   1.46487   1.50306
 Alpha virt. eigenvalues --    1.51561   1.53502   1.55049   1.57281   1.61365
 Alpha virt. eigenvalues --    1.65831   1.68627   1.70125   1.71330   1.73521
 Alpha virt. eigenvalues --    1.75663   1.76691   1.77988   1.80044   1.80417
 Alpha virt. eigenvalues --    1.81785   1.82020   1.83440   1.83844   1.85417
 Alpha virt. eigenvalues --    1.86948   1.88969   1.90460   1.91518   1.91562
 Alpha virt. eigenvalues --    1.92894   1.96146   1.97258   2.00319   2.01510
 Alpha virt. eigenvalues --    2.04462   2.04906   2.05326   2.05560   2.06271
 Alpha virt. eigenvalues --    2.08714   2.09485   2.11270   2.11558   2.12116
 Alpha virt. eigenvalues --    2.13879   2.14254   2.15503   2.16473   2.19823
 Alpha virt. eigenvalues --    2.21107   2.25074   2.26942   2.28368   2.29257
 Alpha virt. eigenvalues --    2.29927   2.30504   2.31327   2.32950   2.34026
 Alpha virt. eigenvalues --    2.34527   2.38040   2.38899   2.41911   2.42295
 Alpha virt. eigenvalues --    2.43276   2.45491   2.45639   2.46713   2.50091
 Alpha virt. eigenvalues --    2.50619   2.53241   2.55782   2.57524   2.58350
 Alpha virt. eigenvalues --    2.58639   2.61083   2.61666   2.62890   2.65219
 Alpha virt. eigenvalues --    2.65842   2.67385   2.69167   2.70858   2.72177
 Alpha virt. eigenvalues --    2.73311   2.76108   2.76966   2.77830   2.81341
 Alpha virt. eigenvalues --    2.86176   2.89295   2.90331   2.90607   2.91297
 Alpha virt. eigenvalues --    2.95391   2.98085   3.02771   3.04364   3.09601
 Alpha virt. eigenvalues --    3.15654   3.18875   3.19911   3.22225   3.23297
 Alpha virt. eigenvalues --    3.28467   3.29960   3.33150   3.35894   3.43279
 Alpha virt. eigenvalues --    3.44086   3.47379   3.49218   3.54025   3.68352
 Alpha virt. eigenvalues --    3.75144   3.79197   4.07006   4.08943   4.11557
 Alpha virt. eigenvalues --    4.14067   4.21866   4.26824   4.29080   4.37595
 Alpha virt. eigenvalues --    4.39977   4.44876   4.50364   4.64999   4.70249
 Alpha virt. eigenvalues --    4.75673   5.53245  10.06822
          Condensed to atoms (all electrons):
               1          2          3          4          5          6
     1  C    4.939682   0.365743  -0.048159  -0.037894  -0.005221   0.000069
     2  C    0.365743   4.932882   0.366145   0.368628  -0.075718   0.005140
     3  C   -0.048159   0.366145   4.938377  -0.037698  -0.005289   0.000058
     4  C   -0.037894   0.368628  -0.037698   4.780737   0.323972  -0.043514
     5  N   -0.005221  -0.075718  -0.005289   0.323972   6.923957   0.243770
     6  N    0.000069   0.005140   0.000058  -0.043514   0.243770   6.908120
     7  C    0.000025  -0.000102   0.000026  -0.026102  -0.040999   0.349632
     8  C    0.000000   0.000004  -0.000000   0.000490   0.005644  -0.077362
     9  C   -0.000000  -0.000000  -0.000000   0.000060   0.000013   0.001643
    10  C    0.000000  -0.000000  -0.000000   0.000000   0.000001   0.000416
    11  C    0.000000  -0.000000   0.000000   0.000000  -0.000000   0.000013
    12  I    0.000000  -0.000000  -0.000000   0.000000   0.000000   0.000000
    13  C   -0.000000   0.000000   0.000000  -0.000000   0.000001  -0.000129
    14  C    0.000000   0.000000  -0.000000  -0.000015  -0.000042   0.001475
    15  F    0.000000   0.000000  -0.000000   0.000002  -0.000000  -0.000021
    16  C   -0.000241   0.006183  -0.000236  -0.033254  -0.043711  -0.039744
    17  C    0.001420  -0.062552   0.001340   0.494101  -0.030540  -0.042428
    18  H    0.376306  -0.028004  -0.004047   0.004640   0.000190   0.000002
    19  H    0.377742  -0.032145   0.005021  -0.001877   0.000100  -0.000044
    20  H    0.388273  -0.031253  -0.004905  -0.008407   0.006741  -0.000158
    21  H   -0.044528   0.388841  -0.044248  -0.048229   0.004053  -0.000170
    22  H   -0.004937  -0.031203   0.388500  -0.008469   0.006718  -0.000157
    23  H   -0.004040  -0.028120   0.376297   0.004679   0.000192   0.000002
    24  H    0.005019  -0.032065   0.378163  -0.001919   0.000110  -0.000043
    25  H    0.000000  -0.000000  -0.000000   0.000032  -0.000354   0.010211
    26  H   -0.000000  -0.000000   0.000000  -0.000000   0.000000  -0.000004
    27  H    0.000000  -0.000000   0.000000  -0.000000  -0.000000   0.000000
    28  H    0.000003  -0.000116   0.000002   0.004033  -0.000121   0.004696
    29  H    0.000087  -0.005981   0.000084  -0.034923   0.004686  -0.000133
               7          8          9         10         11         12
     1  C    0.000025   0.000000  -0.000000   0.000000   0.000000   0.000000
     2  C   -0.000102   0.000004  -0.000000  -0.000000  -0.000000  -0.000000
     3  C    0.000026  -0.000000  -0.000000  -0.000000   0.000000  -0.000000
     4  C   -0.026102   0.000490   0.000060   0.000000   0.000000   0.000000
     5  N   -0.040999   0.005644   0.000013   0.000001  -0.000000   0.000000
     6  N    0.349632  -0.077362   0.001643   0.000416   0.000013   0.000000
     7  C    4.885869   0.309795  -0.050520   0.006445  -0.000263   0.000025
     8  C    0.309795   5.105949   0.472111  -0.009339  -0.045190   0.001067
     9  C   -0.050520   0.472111   4.889231   0.500554  -0.024967   0.001021
    10  C    0.006445  -0.009339   0.500554   4.847449   0.481482  -0.067162
    11  C   -0.000263  -0.045190  -0.024967   0.481482   5.353969   0.269249
    12  I    0.000025   0.001067   0.001021  -0.067162   0.269249   6.679202
    13  C    0.008622  -0.052468  -0.046224  -0.023557   0.426674  -0.069485
    14  C   -0.047068   0.422158  -0.019451  -0.043858  -0.003628  -0.000076
    15  F   -0.004571  -0.054222   0.002754  -0.000107   0.003534  -0.000052
    16  C    0.456658  -0.060847   0.007807  -0.000171  -0.000008  -0.000000
    17  C   -0.029182   0.006070  -0.000077   0.000001   0.000000   0.000000
    18  H   -0.000000  -0.000000   0.000000  -0.000000  -0.000000  -0.000000
    19  H   -0.000006  -0.000000   0.000000  -0.000000  -0.000000  -0.000000
    20  H    0.000004  -0.000000  -0.000000  -0.000000  -0.000000  -0.000000
    21  H   -0.000003  -0.000000   0.000000  -0.000000   0.000000   0.000000
    22  H    0.000004  -0.000000  -0.000000  -0.000000  -0.000000  -0.000000
    23  H   -0.000000  -0.000000  -0.000000   0.000000  -0.000000   0.000000
    24  H   -0.000006  -0.000000   0.000000   0.000000  -0.000000   0.000000
    25  H   -0.009862  -0.041045   0.378100  -0.041858   0.006239  -0.000272
    26  H   -0.000168   0.003684  -0.027640   0.372645  -0.042649  -0.001705
    27  H   -0.000155   0.006322   0.000565   0.004199  -0.041532  -0.003519
    28  H   -0.031932  -0.009082  -0.000243   0.000008  -0.000013   0.000000
    29  H    0.003587  -0.000096   0.000003  -0.000000   0.000000  -0.000000
              13         14         15         16         17         18
     1  C   -0.000000   0.000000   0.000000  -0.000241   0.001420   0.376306
     2  C    0.000000   0.000000   0.000000   0.006183  -0.062552  -0.028004
     3  C    0.000000  -0.000000  -0.000000  -0.000236   0.001340  -0.004047
     4  C   -0.000000  -0.000015   0.000002  -0.033254   0.494101   0.004640
     5  N    0.000001  -0.000042  -0.000000  -0.043711  -0.030540   0.000190
     6  N   -0.000129   0.001475  -0.000021  -0.039744  -0.042428   0.000002
     7  C    0.008622  -0.047068  -0.004571   0.456658  -0.029182  -0.000000
     8  C   -0.052468   0.422158  -0.054222  -0.060847   0.006070  -0.000000
     9  C   -0.046224  -0.019451   0.002754   0.007807  -0.000077   0.000000
    10  C   -0.023557  -0.043858  -0.000107  -0.000171   0.000001  -0.000000
    11  C    0.426674  -0.003628   0.003534  -0.000008   0.000000  -0.000000
    12  I   -0.069485  -0.000076  -0.000052  -0.000000   0.000000  -0.000000
    13  C    5.038281   0.462022  -0.046080   0.000108  -0.000001   0.000000
    14  C    0.462022   4.629723   0.306236  -0.008377   0.000247   0.000000
    15  F   -0.046080   0.306236   9.070825   0.001972   0.000138   0.000000
    16  C    0.000108  -0.008377   0.001972   4.979102   0.484095   0.000003
    17  C   -0.000001   0.000247   0.000138   0.484095   4.955654  -0.000086
    18  H    0.000000   0.000000   0.000000   0.000003  -0.000086   0.613083
    19  H    0.000000  -0.000000  -0.000000  -0.000031   0.001221  -0.032048
    20  H    0.000000   0.000000  -0.000000   0.000027   0.000254  -0.030773
    21  H   -0.000000  -0.000000   0.000000   0.000428  -0.003915  -0.004558
    22  H   -0.000000   0.000000  -0.000000   0.000027   0.000253  -0.000271
    23  H   -0.000000   0.000000   0.000000   0.000003  -0.000083   0.003294
    24  H   -0.000000   0.000000  -0.000000  -0.000032   0.001229  -0.000050
    25  H    0.000022   0.003978  -0.000015   0.000649   0.000006  -0.000000
    26  H    0.004077   0.000933   0.000000   0.000001  -0.000000   0.000000
    27  H    0.359425  -0.024249  -0.000816   0.000005  -0.000000  -0.000000
    28  H   -0.000011   0.001406   0.007651   0.360551  -0.039898  -0.000000
    29  H   -0.000000  -0.000010  -0.000001  -0.042856   0.367176  -0.000019
              19         20         21         22         23         24
     1  C    0.377742   0.388273  -0.044528  -0.004937  -0.004040   0.005019
     2  C   -0.032145  -0.031253   0.388841  -0.031203  -0.028120  -0.032065
     3  C    0.005021  -0.004905  -0.044248   0.388500   0.376297   0.378163
     4  C   -0.001877  -0.008407  -0.048229  -0.008469   0.004679  -0.001919
     5  N    0.000100   0.006741   0.004053   0.006718   0.000192   0.000110
     6  N   -0.000044  -0.000158  -0.000170  -0.000157   0.000002  -0.000043
     7  C   -0.000006   0.000004  -0.000003   0.000004  -0.000000  -0.000006
     8  C   -0.000000  -0.000000  -0.000000  -0.000000  -0.000000  -0.000000
     9  C    0.000000  -0.000000   0.000000  -0.000000  -0.000000   0.000000
    10  C   -0.000000  -0.000000  -0.000000  -0.000000   0.000000   0.000000
    11  C   -0.000000  -0.000000   0.000000  -0.000000  -0.000000  -0.000000
    12  I   -0.000000  -0.000000   0.000000  -0.000000   0.000000   0.000000
    13  C    0.000000   0.000000  -0.000000  -0.000000  -0.000000  -0.000000
    14  C   -0.000000   0.000000  -0.000000   0.000000   0.000000   0.000000
    15  F   -0.000000  -0.000000   0.000000  -0.000000   0.000000  -0.000000
    16  C   -0.000031   0.000027   0.000428   0.000027   0.000003  -0.000032
    17  C    0.001221   0.000254  -0.003915   0.000253  -0.000083   0.001229
    18  H   -0.032048  -0.030773  -0.004558  -0.000271   0.003294  -0.000050
    19  H    0.614441  -0.029777  -0.003225   0.000010  -0.000049  -0.000202
    20  H   -0.029777   0.569053   0.005413   0.004399  -0.000276   0.000010
    21  H   -0.003225   0.005413   0.658882   0.005405  -0.004601  -0.003233
    22  H    0.000010   0.004399   0.005405   0.568237  -0.030847  -0.029615
    23  H   -0.000049  -0.000276  -0.004601  -0.030847   0.613544  -0.031989
    24  H   -0.000202   0.000010  -0.003233  -0.029615  -0.031989   0.612271
    25  H   -0.000000  -0.000000   0.000000  -0.000000  -0.000000   0.000000
    26  H    0.000000   0.000000   0.000000  -0.000000  -0.000000  -0.000000
    27  H    0.000000   0.000000   0.000000   0.000000   0.000000   0.000000
    28  H    0.000001   0.000000  -0.000011   0.000000  -0.000000   0.000001
    29  H    0.000021  -0.000015   0.004346  -0.000014  -0.000018   0.000021
              25         26         27         28         29
     1  C    0.000000  -0.000000   0.000000   0.000003   0.000087
     2  C   -0.000000  -0.000000  -0.000000  -0.000116  -0.005981
     3  C   -0.000000   0.000000   0.000000   0.000002   0.000084
     4  C    0.000032  -0.000000  -0.000000   0.004033  -0.034923
     5  N   -0.000354   0.000000  -0.000000  -0.000121   0.004686
     6  N    0.010211  -0.000004   0.000000   0.004696  -0.000133
     7  C   -0.009862  -0.000168  -0.000155  -0.031932   0.003587
     8  C   -0.041045   0.003684   0.006322  -0.009082  -0.000096
     9  C    0.378100  -0.027640   0.000565  -0.000243   0.000003
    10  C   -0.041858   0.372645   0.004199   0.000008  -0.000000
    11  C    0.006239  -0.042649  -0.041532  -0.000013   0.000000
    12  I   -0.000272  -0.001705  -0.003519   0.000000  -0.000000
    13  C    0.000022   0.004077   0.359425  -0.000011  -0.000000
    14  C    0.003978   0.000933  -0.024249   0.001406  -0.000010
    15  F   -0.000015   0.000000  -0.000816   0.007651  -0.000001
    16  C    0.000649   0.000001   0.000005   0.360551  -0.042856
    17  C    0.000006  -0.000000  -0.000000  -0.039898   0.367176
    18  H   -0.000000   0.000000  -0.000000  -0.000000  -0.000019
    19  H   -0.000000   0.000000   0.000000   0.000001   0.000021
    20  H   -0.000000   0.000000   0.000000   0.000000  -0.000015
    21  H    0.000000   0.000000   0.000000  -0.000011   0.004346
    22  H   -0.000000  -0.000000   0.000000   0.000000  -0.000014
    23  H   -0.000000  -0.000000   0.000000  -0.000000  -0.000018
    24  H    0.000000  -0.000000   0.000000   0.000001   0.000021
    25  H    0.572996  -0.005722   0.000011  -0.000029   0.000000
    26  H   -0.005722   0.587321  -0.000172   0.000000   0.000000
    27  H    0.000011  -0.000172   0.582450   0.000006   0.000000
    28  H   -0.000029   0.000000   0.000006   0.596884  -0.006408
    29  H    0.000000   0.000000   0.000000  -0.006408   0.604484
 Mulliken charges:
               1
     1  C   -0.309350
     2  C   -0.106305
     3  C   -0.309432
     4  C    0.300928
     5  N   -0.318153
     6  N   -0.321339
     7  C    0.220245
     8  C    0.016355
     9  C   -0.084740
    10  C   -0.027148
    11  C   -0.382909
    12  I    0.191706
    13  C   -0.061277
    14  C    0.318594
    15  F   -0.287226
    16  C   -0.068109
    17  C   -0.104444
    18  H    0.102338
    19  H    0.100848
    20  H    0.131390
    21  H    0.089353
    22  H    0.131960
    23  H    0.102012
    24  H    0.102331
    25  H    0.126913
    26  H    0.109398
    27  H    0.117458
    28  H    0.112622
    29  H    0.105981
 Sum of Mulliken charges =  -0.00000
 Mulliken charges with hydrogens summed into heavy atoms:
               1
     1  C    0.025225
     2  C   -0.016952
     3  C    0.026870
     4  C    0.300928
     5  N   -0.318153
     6  N   -0.321339
     7  C    0.220245
     8  C    0.016355
     9  C    0.042173
    10  C    0.082250
    11  C   -0.382909
    12  I    0.191706
    13  C    0.056181
    14  C    0.318594
    15  F   -0.287226
    16  C    0.044513
    17  C    0.001537
 Electronic spatial extent (au):  <R**2>=           7115.8369
 Charge=             -0.0000 electrons
 Dipole moment (field-independent basis, Debye):
    X=             -1.2668    Y=              1.8378    Z=             -2.0644  Tot=              3.0404
 Quadrupole moment (field-independent basis, Debye-Ang):
   XX=           -100.2866   YY=           -110.5575   ZZ=           -114.1821
   XY=             -8.1349   XZ=              6.0087   YZ=              0.6656
 Traceless Quadrupole moment (field-independent basis, Debye-Ang):
   XX=              8.0555   YY=             -2.2155   ZZ=             -5.8400
   XY=             -8.1349   XZ=              6.0087   YZ=              0.6656
 Octapole moment (field-independent basis, Debye-Ang**2):
  XXX=            233.9496  YYY=             -2.2402  ZZZ=              5.2478  XYY=            112.7031
  XXY=             29.8308  XXZ=            -15.4585  XZZ=             99.8769  YZZ=              4.8351
  YYZ=             -6.7628  XYZ=              2.0740
 Hexadecapole moment (field-independent basis, Debye-Ang**3):
 XXXX=          -9572.6427 YYYY=           -785.8139 ZZZZ=           -345.0250 XXXY=           -171.5568
 XXXZ=             77.2021 YYYX=            -95.4064 YYYZ=              0.4505 ZZZX=             10.7354
 ZZZY=              1.8599 XXYY=          -1863.1855 XXZZ=          -1819.3225 YYZZ=           -187.8635
 XXYZ=             -2.8563 YYXZ=             23.5060 ZZXY=            -33.8390
 N-N= 1.074233411826D+03 E-N=-3.826048655977D+03  KE= 7.083921204044D+02
   1 Symmetry operations used in ECPInt.
 ECPInt:  NShTT=    5460 NPrTT=   29729 LenC2=    4592 LenP2D=   15796.
 LDataN:  DoStor=T MaxTD1= 6 Len=  172
 Calling FoFJK, ICntrl=      2127 FMM=F ISym2X=0 I1Cent= 0 IOpClX= 0 NMat=1 NMatS=1 NMatT=0.
 Defaulting to unpruned grid for atomic number  53.
 Defaulting to unpruned grid for atomic number  53.
 Defaulting to unpruned grid for atomic number  53.
 Defaulting to unpruned grid for atomic number  53.
 Defaulting to unpruned grid for atomic number  53.
 Defaulting to unpruned grid for atomic number  53.
 Defaulting to unpruned grid for atomic number  53.
 Defaulting to unpruned grid for atomic number  53.
 Defaulting to unpruned grid for atomic number  53.
 Defaulting to unpruned grid for atomic number  53.
 Defaulting to unpruned grid for atomic number  53.
 Defaulting to unpruned grid for atomic number  53.
 Defaulting to unpruned grid for atomic number  53.
 Defaulting to unpruned grid for atomic number  53.
 Defaulting to unpruned grid for atomic number  53.
 Defaulting to unpruned grid for atomic number  53.
 ***** Axes restored to original set *****
 -------------------------------------------------------------------
 Center     Atomic                   Forces (Hartrees/Bohr)
 Number     Number              X              Y              Z
 -------------------------------------------------------------------
      1        6           0.003207021   -0.000152828   -0.002276692
      2        6          -0.001491020    0.000030848   -0.005326467
      3        6           0.003122791   -0.000537353   -0.002206288
      4        6          -0.004222374   -0.000201306   -0.011028586
      5        7           0.011977769    0.000204072    0.012667318
      6        7          -0.002115398    0.000806743    0.010259437
      7        6          -0.009672089    0.000260493   -0.008664757
      8        6          -0.011408780   -0.000908779    0.006727053
      9        6           0.007251403   -0.005193107    0.001917361
     10        6          -0.002957012    0.002232552   -0.001937156
     11        6          -0.016010056    0.001025839    0.005500222
     12       53           0.011812512   -0.001098605   -0.003599930
     13        6           0.000845123   -0.004854155    0.005894643
     14        6           0.004190867    0.008029766   -0.011549026
     15        9          -0.000369885    0.004228229   -0.003960271
     16        6          -0.008163029   -0.000305945    0.004039185
     17        6           0.012639447   -0.001460870   -0.009354735
     18        1          -0.002681986   -0.002004438    0.001972476
     19        1           0.001828101    0.001733698    0.001330460
     20        1           0.001802788   -0.001813750   -0.001909319
     21        1           0.002762413   -0.000237239    0.003997335
     22        1           0.002140370    0.001480541   -0.001936949
     23        1          -0.002179794    0.002490601    0.001995691
     24        1           0.001456618   -0.002000036    0.001285323
     25        1          -0.003845242   -0.000603606    0.001034033
     26        1          -0.000476516    0.001856039   -0.001787144
     27        1           0.000006708   -0.002867982    0.003220447
     28        1           0.002901604   -0.000756257    0.000599005
     29        1          -0.002352353    0.000616836    0.003097329
 -------------------------------------------------------------------
 Cartesian Forces:  Max     0.016010056 RMS     0.005140833

 GradGradGradGradGradGradGradGradGradGradGradGradGradGradGradGradGradGrad
 Berny optimization.
 FormGI is forming the generalized inverse of G from B-inverse, IUseBI=4.
 Internal  Forces:  Max     0.017801383 RMS     0.003923419
 Search for a local minimum.
 Step number   1 out of a maximum of  159
 All quantities printed in internal units (Hartrees-Bohrs-Radians)
 Mixed Optimization -- RFO/linear search
 Second derivative matrix not updated -- first step.
 ITU=  0
     Eigenvalues ---    0.00230   0.00230   0.00386   0.00833   0.01339
     Eigenvalues ---    0.01641   0.01653   0.02025   0.02071   0.02093
     Eigenvalues ---    0.02114   0.02128   0.02135   0.02137   0.02152
     Eigenvalues ---    0.02163   0.02176   0.02179   0.02188   0.02198
     Eigenvalues ---    0.03543   0.04839   0.05345   0.05349   0.05380
     Eigenvalues ---    0.05381   0.05633   0.14344   0.16000   0.16000
     Eigenvalues ---    0.16000   0.16000   0.16000   0.16000   0.16000
     Eigenvalues ---    0.16000   0.16000   0.16000   0.16000   0.17085
     Eigenvalues ---    0.18455   0.22370   0.22473   0.23490   0.24486
     Eigenvalues ---    0.24606   0.24996   0.24998   0.24999   0.25000
     Eigenvalues ---    0.25000   0.25000   0.28457   0.28461   0.29543
     Eigenvalues ---    0.32918   0.34591   0.34699   0.34710   0.34727
     Eigenvalues ---    0.34730   0.34764   0.34778   0.35860   0.35946
     Eigenvalues ---    0.35986   0.36023   0.36108   0.41754   0.41887
     Eigenvalues ---    0.43288   0.44187   0.45099   0.46102   0.46200
     Eigenvalues ---    0.46522   0.46924   0.50563   0.51600   0.54237
     Eigenvalues ---    0.55309
 RFO step:  Lambda=-8.47026768D-03 EMin= 2.30000000D-03
 Linear search not attempted -- first point.
 Iteration  1 RMS(Cart)=  0.10231242 RMS(Int)=  0.00233562
 Iteration  2 RMS(Cart)=  0.00422040 RMS(Int)=  0.00010766
 Iteration  3 RMS(Cart)=  0.00000621 RMS(Int)=  0.00010761
 Iteration  4 RMS(Cart)=  0.00000000 RMS(Int)=  0.00010761
 Variable       Old X    -DE/DX   Delta X   Delta X   Delta X     New X
                                 (Linear)    (Quad)   (Total)
    R1        2.91141  -0.00316   0.00000  -0.01078  -0.01078   2.90063
    R2        2.06038   0.00285   0.00000   0.00799   0.00799   2.06836
    R3        2.06115   0.00277   0.00000   0.00779   0.00779   2.06894
    R4        2.06166   0.00189   0.00000   0.00532   0.00532   2.06698
    R5        2.91150  -0.00319   0.00000  -0.01089  -0.01089   2.90060
    R6        2.88884  -0.01042   0.00000  -0.03429  -0.03429   2.85455
    R7        2.06345   0.00366   0.00000   0.01033   0.01033   2.07378
    R8        2.06149   0.00193   0.00000   0.00544   0.00544   2.06692
    R9        2.06061   0.00278   0.00000   0.00779   0.00779   2.06840
   R10        2.06121   0.00270   0.00000   0.00760   0.00760   2.06881
   R11        2.57347  -0.01619   0.00000  -0.03109  -0.03112   2.54236
   R12        2.63894  -0.00080   0.00000  -0.00096  -0.00097   2.63797
   R13        2.53844  -0.01780   0.00000  -0.03243  -0.03245   2.50599
   R14        2.57871  -0.01645   0.00000  -0.03183  -0.03183   2.54689
   R15        2.82497  -0.01097   0.00000  -0.03250  -0.03250   2.79247
   R16        2.64566  -0.00181   0.00000  -0.00304  -0.00301   2.64265
   R17        2.65460  -0.00490   0.00000  -0.01174  -0.01174   2.64286
   R18        2.66048  -0.00903   0.00000  -0.02126  -0.02121   2.63927
   R19        2.63571  -0.00228   0.00000  -0.00460  -0.00466   2.63105
   R20        2.04302   0.00159   0.00000   0.00434   0.00434   2.04736
   R21        2.62994   0.00468   0.00000   0.01098   0.01093   2.64088
   R22        2.04167   0.00226   0.00000   0.00616   0.00616   2.04782
   R23        3.94993   0.01239   0.00000   0.08154   0.08154   4.03147
   R24        2.63020   0.00187   0.00000   0.00490   0.00490   2.63510
   R25        2.63524  -0.00626   0.00000  -0.01343  -0.01338   2.62187
   R26        2.03913   0.00324   0.00000   0.00877   0.00877   2.04790
   R27        2.55816  -0.00537   0.00000  -0.00975  -0.00975   2.54841
   R28        2.63413  -0.01129   0.00000  -0.02212  -0.02210   2.61203
   R29        2.04103   0.00250   0.00000   0.00679   0.00679   2.04783
   R30        2.04046   0.00364   0.00000   0.00987   0.00987   2.05034
    A1        1.94426  -0.00300   0.00000  -0.01779  -0.01788   1.92638
    A2        1.94092   0.00024   0.00000   0.00224   0.00225   1.94318
    A3        1.94592  -0.00278   0.00000  -0.01735  -0.01745   1.92848
    A4        1.87650   0.00167   0.00000   0.01157   0.01159   1.88809
    A5        1.87710   0.00290   0.00000   0.01570   0.01551   1.89261
    A6        1.87570   0.00134   0.00000   0.00787   0.00787   1.88357
    A7        1.94382   0.00103   0.00000  -0.00115  -0.00190   1.94192
    A8        1.95287  -0.00145   0.00000  -0.02175  -0.02205   1.93082
    A9        1.86672   0.00102   0.00000   0.02559   0.02543   1.89215
   A10        1.95269  -0.00146   0.00000  -0.02169  -0.02199   1.93070
   A11        1.86609   0.00105   0.00000   0.02610   0.02594   1.89203
   A12        1.87601   0.00001   0.00000  -0.00232  -0.00193   1.87409
   A13        1.94626  -0.00281   0.00000  -0.01757  -0.01767   1.92859
   A14        1.94450  -0.00305   0.00000  -0.01809  -0.01818   1.92632
   A15        1.94075   0.00024   0.00000   0.00225   0.00226   1.94301
   A16        1.87716   0.00295   0.00000   0.01589   0.01570   1.89285
   A17        1.87531   0.00136   0.00000   0.00798   0.00799   1.88329
   A18        1.87641   0.00171   0.00000   0.01181   0.01183   1.88824
   A19        2.04073  -0.00565   0.00000  -0.02226  -0.02225   2.01848
   A20        2.11924   0.00457   0.00000   0.01726   0.01727   2.13652
   A21        2.12321   0.00108   0.00000   0.00500   0.00496   2.12817
   A22        2.09551   0.00300   0.00000   0.00619   0.00612   2.10163
   A23        2.10729  -0.00182   0.00000  -0.01222  -0.01224   2.09505
   A24        2.03324  -0.00657   0.00000  -0.02607  -0.02611   2.00712
   A25        2.10821   0.00597   0.00000   0.02413   0.02413   2.13234
   A26        2.14155   0.00060   0.00000   0.00167   0.00162   2.14317
   A27        2.09656   0.00086   0.00000   0.00511   0.00504   2.10161
   A28        2.12744   0.00118   0.00000   0.00637   0.00631   2.13375
   A29        2.05919  -0.00204   0.00000  -0.01147  -0.01145   2.04774
   A30        2.11526   0.00159   0.00000   0.00604   0.00598   2.12123
   A31        2.09195  -0.00447   0.00000  -0.02483  -0.02482   2.06712
   A32        2.07597   0.00288   0.00000   0.01884   0.01884   2.09481
   A33        2.09343  -0.00297   0.00000  -0.00927  -0.00936   2.08407
   A34        2.09726   0.00016   0.00000  -0.00325  -0.00320   2.09406
   A35        2.09250   0.00281   0.00000   0.01251   0.01256   2.10506
   A36        2.09629   0.00024   0.00000  -0.00145  -0.00143   2.09486
   A37        2.09098   0.00154   0.00000   0.01067   0.01064   2.10162
   A38        2.09591  -0.00177   0.00000  -0.00922  -0.00921   2.08671
   A39        2.10051  -0.00707   0.00000  -0.02864  -0.02857   2.07194
   A40        2.09598   0.00643   0.00000   0.03147   0.03144   2.12742
   A41        2.08669   0.00065   0.00000  -0.00283  -0.00287   2.08382
   A42        2.10700   0.00895   0.00000   0.03263   0.03271   2.13971
   A43        2.11404  -0.00716   0.00000  -0.02664  -0.02672   2.08732
   A44        2.06209  -0.00179   0.00000  -0.00586  -0.00594   2.05615
   A45        2.07105  -0.00619   0.00000  -0.02053  -0.02048   2.05057
   A46        2.11426   0.00137   0.00000   0.00004   0.00001   2.11427
   A47        2.09786   0.00482   0.00000   0.02050   0.02048   2.11834
   A48        2.06106  -0.00205   0.00000  -0.00257  -0.00257   2.05850
   A49        2.11976  -0.00046   0.00000  -0.00749  -0.00750   2.11226
   A50        2.10236   0.00250   0.00000   0.01006   0.01005   2.11240
    D1        1.03335   0.00121   0.00000   0.01165   0.01173   1.04508
    D2       -3.04977  -0.00104   0.00000  -0.03495  -0.03482  -3.08459
    D3       -0.99976  -0.00121   0.00000  -0.03413  -0.03418  -1.03394
    D4        3.12633   0.00147   0.00000   0.01585   0.01588  -3.14098
    D5       -0.95679  -0.00078   0.00000  -0.03074  -0.03067  -0.98747
    D6        1.09321  -0.00095   0.00000  -0.02993  -0.03003   1.06319
    D7       -1.06378   0.00146   0.00000   0.01565   0.01563  -1.04815
    D8        1.13629  -0.00080   0.00000  -0.03094  -0.03092   1.10537
    D9       -3.09689  -0.00096   0.00000  -0.03013  -0.03028  -3.12717
   D10        1.06343  -0.00145   0.00000  -0.01552  -0.01550   1.04793
   D11       -1.03417  -0.00120   0.00000  -0.01139  -0.01147  -1.04564
   D12       -3.12706  -0.00147   0.00000  -0.01571  -0.01574   3.14039
   D13       -1.13674   0.00080   0.00000   0.03111   0.03109  -1.10565
   D14        3.04885   0.00106   0.00000   0.03524   0.03511   3.08396
   D15        0.95595   0.00079   0.00000   0.03092   0.03085   0.98680
   D16        3.09693   0.00094   0.00000   0.02994   0.03009   3.12702
   D17        0.99934   0.00120   0.00000   0.03407   0.03412   1.03345
   D18       -1.09356   0.00093   0.00000   0.02975   0.02986  -1.06370
   D19       -1.09989   0.00051   0.00000   0.02125   0.02105  -1.07884
   D20        2.04133   0.00041   0.00000   0.01606   0.01588   2.05721
   D21        1.09532  -0.00040   0.00000  -0.01436  -0.01418   1.08114
   D22       -2.04664  -0.00050   0.00000  -0.01955  -0.01934  -2.06599
   D23        3.13887   0.00008   0.00000   0.00377   0.00376  -3.14055
   D24       -0.00309  -0.00003   0.00000  -0.00141  -0.00140  -0.00449
   D25       -3.13928   0.00023   0.00000   0.00652   0.00667  -3.13261
   D26        0.00268   0.00034   0.00000   0.01172   0.01180   0.01449
   D27        3.14017   0.00007   0.00000   0.00278   0.00287  -3.14014
   D28       -0.00203  -0.00013   0.00000  -0.00376  -0.00368  -0.00571
   D29       -0.00181  -0.00004   0.00000  -0.00266  -0.00262  -0.00443
   D30        3.13917  -0.00024   0.00000  -0.00920  -0.00917   3.13000
   D31        0.00304  -0.00045   0.00000  -0.01429  -0.01425  -0.01120
   D32       -3.13033   0.00059   0.00000   0.02196   0.02189  -3.10844
   D33       -0.00958   0.00024   0.00000   0.00783   0.00776  -0.00181
   D34        0.66588  -0.00236   0.00000  -0.13548  -0.13542   0.53046
   D35       -2.47637  -0.00198   0.00000  -0.11978  -0.11964  -2.59600
   D36       -2.45444  -0.00208   0.00000  -0.12133  -0.12148  -2.57592
   D37        0.68650  -0.00169   0.00000  -0.10563  -0.10570   0.58080
   D38        0.01021   0.00002   0.00000   0.00118   0.00121   0.01142
   D39       -3.12712  -0.00009   0.00000  -0.00292  -0.00282  -3.12994
   D40        3.12964  -0.00043   0.00000  -0.01417  -0.01433   3.11531
   D41       -0.00769  -0.00054   0.00000  -0.01827  -0.01836  -0.02605
   D42        3.13654   0.00022   0.00000   0.00868   0.00866  -3.13799
   D43        0.00064  -0.00015   0.00000  -0.00345  -0.00333  -0.00269
   D44       -0.00442  -0.00016   0.00000  -0.00643  -0.00637  -0.01079
   D45       -3.14032  -0.00052   0.00000  -0.01855  -0.01836   3.12450
   D46       -3.13643  -0.00024   0.00000  -0.00974  -0.00967   3.13708
   D47        0.01676  -0.00064   0.00000  -0.02289  -0.02278  -0.00602
   D48        0.00452   0.00014   0.00000   0.00565   0.00566   0.01018
   D49       -3.12548  -0.00026   0.00000  -0.00750  -0.00745  -3.13292
   D50        0.00144   0.00009   0.00000   0.00304   0.00304   0.00448
   D51       -3.14024   0.00007   0.00000   0.00254   0.00251  -3.13772
   D52        3.13739   0.00043   0.00000   0.01491   0.01508  -3.13072
   D53       -0.00429   0.00041   0.00000   0.01442   0.01455   0.01026
   D54       -3.14155   0.00005   0.00000   0.00199   0.00199  -3.13956
   D55        0.00155   0.00003   0.00000   0.00142   0.00144   0.00299
   D56        0.00012   0.00007   0.00000   0.00249   0.00253   0.00265
   D57       -3.13996   0.00005   0.00000   0.00191   0.00198  -3.13798
   D58       -0.00144  -0.00007   0.00000  -0.00223  -0.00224  -0.00368
   D59        3.13545  -0.00006   0.00000  -0.00195  -0.00194   3.13350
   D60       -3.14152  -0.00009   0.00000  -0.00281  -0.00280   3.13887
   D61       -0.00463  -0.00009   0.00000  -0.00253  -0.00250  -0.00713
   D62       -0.00167  -0.00003   0.00000  -0.00141  -0.00144  -0.00311
   D63        3.12867   0.00032   0.00000   0.01121   0.01130   3.13997
   D64       -3.13858  -0.00004   0.00000  -0.00178  -0.00182  -3.14040
   D65       -0.00824   0.00031   0.00000   0.01084   0.01092   0.00267
   D66       -0.00451  -0.00009   0.00000  -0.00352  -0.00353  -0.00805
   D67        3.13768   0.00011   0.00000   0.00296   0.00303   3.14071
   D68        3.13286   0.00001   0.00000   0.00049   0.00045   3.13331
   D69       -0.00813   0.00021   0.00000   0.00697   0.00701  -0.00111
         Item               Value     Threshold  Converged?
 Maximum Force            0.017801     0.000450     NO 
 RMS     Force            0.003923     0.000300     NO 
 Maximum Displacement     0.337744     0.001800     NO 
 RMS     Displacement     0.103305     0.001200     NO 
 Predicted change in Energy=-4.674416D-03
 GradGradGradGradGradGradGradGradGradGradGradGradGradGradGradGradGradGrad

                          Input orientation:                          
 ---------------------------------------------------------------------
 Center     Atomic      Atomic             Coordinates (Angstroms)
 Number     Number       Type             X           Y           Z
 ---------------------------------------------------------------------
      1          6           0       -3.795596    1.824934    0.296336
      2          6           0       -3.293961    0.468112    0.809626
      3          6           0       -4.073127   -0.690743    0.172464
      4          6           0       -1.812778    0.317166    0.554464
      5          7           0       -1.439030    0.340912   -0.737718
      6          7           0       -0.162291    0.206106   -1.069885
      7          6           0        0.772332    0.056985   -0.110360
      8          6           0        2.162433   -0.039596   -0.602214
      9          6           0        2.544898    0.615759   -1.777012
     10          6           0        3.846914    0.537207   -2.263899
     11          6           0        4.795338   -0.217415   -1.568181
     12         53           0        6.796990   -0.348273   -2.294475
     13          6           0        4.442630   -0.889640   -0.398498
     14          6           0        3.136879   -0.789814    0.059776
     15          9           0        2.815230   -1.448774    1.191559
     16          6           0        0.447195    0.039992    1.249642
     17          6           0       -0.886624    0.169246    1.588413
     18          1           0       -4.855971    1.954202    0.534858
     19          1           0       -3.240170    2.652396    0.749629
     20          1           0       -3.674301    1.892555   -0.788612
     21          1           0       -3.444832    0.431183    1.895973
     22          1           0       -3.958089   -0.677453   -0.915158
     23          1           0       -5.138654   -0.609100    0.409162
     24          1           0       -3.715330   -1.659064    0.536951
     25          1           0        1.799100    1.189697   -2.313824
     26          1           0        4.116696    1.058172   -3.175016
     27          1           0        5.156654   -1.487381    0.155840
     28          1           0        1.213673   -0.070238    2.007721
     29          1           0       -1.203311    0.162765    2.626139
 ---------------------------------------------------------------------
                    Distance matrix (angstroms):
                    1          2          3          4          5
     1  C    0.000000
     2  C    1.534950   0.000000
     3  C    2.533969   1.534933   0.000000
     4  C    2.504309   1.510562   2.504193   0.000000
     5  N    2.970689   2.418930   2.971736   1.345357   0.000000
     6  N    4.205719   3.661771   4.200287   2.318394   1.326111
     7  C    4.914978   4.189289   4.910964   2.681880   2.316099
     8  C    6.307295   5.658913   6.317146   4.155416   3.624042
     9  C    6.779582   6.387861   7.021799   4.951189   4.126421
    10  C    8.162169   7.774537   8.376800   6.326429   5.505358
    11  C    9.025062   8.459354   9.050058   6.961220   6.314169
[...]
 Alpha virt. eigenvalues --    2.88352   2.89901   2.90554   2.91850   2.93446
 Alpha virt. eigenvalues --    2.95072   2.96317   2.97302   2.97619   2.98108
 Alpha virt. eigenvalues --    3.00072   3.00358   3.01585   3.02421   3.02835
 Alpha virt. eigenvalues --    3.05283   3.06022   3.06885   3.08287   3.09457
 Alpha virt. eigenvalues --    3.10192   3.10719   3.11491   3.11679   3.13445
 Alpha virt. eigenvalues --    3.13816   3.14796   3.16085   3.16917   3.17363
 Alpha virt. eigenvalues --    3.18620   3.19449   3.19916   3.20085   3.21400
 Alpha virt. eigenvalues --    3.22834   3.23452   3.23865   3.24854   3.26769
 Alpha virt. eigenvalues --    3.27387   3.27702   3.29511   3.31126   3.31839
 Alpha virt. eigenvalues --    3.32165   3.32730   3.34055   3.34616   3.35419
 Alpha virt. eigenvalues --    3.35877   3.36817   3.36933   3.38087   3.39280
 Alpha virt. eigenvalues --    3.40979   3.41806   3.41890   3.42564   3.43861
 Alpha virt. eigenvalues --    3.46192   3.46711   3.47833   3.49329   3.51115
 Alpha virt. eigenvalues --    3.51309   3.52436   3.52638   3.53303   3.55001
 Alpha virt. eigenvalues --    3.56004   3.56323   3.57818   3.58282   3.59292
 Alpha virt. eigenvalues --    3.60379   3.61410   3.62594   3.63497   3.64500
 Alpha virt. eigenvalues --    3.65082   3.67029   3.67953   3.70751   3.73053
 Alpha virt. eigenvalues --    3.73312   3.76608   3.79277   3.80934   3.81628
 Alpha virt. eigenvalues --    3.84032   3.86683   3.90351   3.91316   3.93388
 Alpha virt. eigenvalues --    3.94229   3.95529   3.96235   3.98371   3.98752
 Alpha virt. eigenvalues --    4.00004   4.01253   4.01429   4.03900   4.05455
 Alpha virt. eigenvalues --    4.06830   4.07627   4.08628   4.08788   4.10778
 Alpha virt. eigenvalues --    4.11915   4.13675   4.15725   4.16197   4.17195
 Alpha virt. eigenvalues --    4.18428   4.19862   4.22933   4.24144   4.25489
 Alpha virt. eigenvalues --    4.26508   4.28806   4.29252   4.29932   4.33414
 Alpha virt. eigenvalues --    4.34633   4.35316   4.37274   4.40810   4.41761
 Alpha virt. eigenvalues --    4.42841   4.45868   4.48025   4.52842   4.53176
 Alpha virt. eigenvalues --    4.54005   4.55031   4.59706   4.60296   4.62750
 Alpha virt. eigenvalues --    4.62905   4.64604   4.65181   4.67444   4.68987
 Alpha virt. eigenvalues --    4.71126   4.77792   4.78371   4.80139   4.80723
 Alpha virt. eigenvalues --    4.83527   4.86966   4.89070   4.89630   4.92612
 Alpha virt. eigenvalues --    4.96739   5.00122   5.03098   5.03317   5.04324
 Alpha virt. eigenvalues --    5.06285   5.08856   5.11413   5.14581   5.21047
 Alpha virt. eigenvalues --    5.24252   5.30342   5.30840   5.35882   5.38811
 Alpha virt. eigenvalues --    5.47526   5.55322   5.60472   5.64974   5.69618
 Alpha virt. eigenvalues --    5.71108   5.80264   5.95235   6.42345   6.89727
 Alpha virt. eigenvalues --    6.90991   6.99401   7.05996   7.09529   7.22195
 Alpha virt. eigenvalues --    7.38277   7.53894   8.36217   8.54459   8.73953
 Alpha virt. eigenvalues --    8.96807   9.01018  15.26748  22.20177  22.46110
 Alpha virt. eigenvalues --   22.47990  22.55448  22.62914  22.67113  22.72004
 Alpha virt. eigenvalues --   22.83192  22.89208  22.93972  23.02249  23.29319
 Alpha virt. eigenvalues --   23.51577  32.43535  32.62541  57.51438
          Condensed to atoms (all electrons):
               1          2          3          4          5          6
     1  C    5.102946   0.257505  -0.060968  -0.013137  -0.019575   0.001255
     2  C    0.257505   5.246230   0.256442   0.174051  -0.022231   0.005123
     3  C   -0.060968   0.256442   5.100872  -0.011709  -0.019086   0.000981
     4  C   -0.013137   0.174051  -0.011709   5.126667   0.472421  -0.052314
     5  N   -0.019575  -0.022231  -0.019086   0.472421   6.595829   0.305203
     6  N    0.001255   0.005123   0.000981  -0.052314   0.305203   6.619816
     7  C    0.000304  -0.003518   0.000796  -0.049410  -0.065457   0.469848
     8  C   -0.000029  -0.000839   0.000052  -0.005732   0.007292  -0.120727
     9  C    0.000005  -0.000070  -0.000003   0.001249  -0.000943   0.029908
    10  C   -0.000000   0.000004   0.000000   0.000139  -0.000198  -0.004438
    11  C    0.000000  -0.000001   0.000000  -0.000044  -0.000000   0.000807
    12  I    0.000000  -0.000000   0.000000  -0.000001   0.000002   0.000000
    13  C   -0.000000   0.000001  -0.000000   0.000059   0.000036  -0.000811
    14  C   -0.000001   0.000019   0.000001  -0.001576  -0.000361  -0.002814
    15  F    0.000000   0.000003  -0.000000   0.000266  -0.000004  -0.000147
    16  C   -0.003405   0.018568  -0.004308  -0.012658  -0.018059  -0.072178
    17  C   -0.001690  -0.059760  -0.001239   0.352642  -0.068211  -0.046623
    18  H    0.413958  -0.050355  -0.004125   0.013389   0.000760   0.000028
    19  H    0.406011  -0.048132   0.010538   0.002641   0.000345  -0.000279
    20  H    0.407379  -0.008646  -0.010819  -0.027189   0.009316  -0.000871
    21  H   -0.054004   0.495500  -0.052860  -0.105486   0.003245  -0.000517
    22  H   -0.011122  -0.008854   0.407618  -0.026929   0.008987  -0.000897
    23  H   -0.004110  -0.050596   0.414533   0.013321   0.000695   0.000033
    24  H    0.010625  -0.047298   0.405830   0.002512   0.000398  -0.000202
    25  H    0.000002  -0.000031  -0.000000   0.000458  -0.001758   0.025930
    26  H   -0.000000   0.000000  -0.000000   0.000001   0.000004  -0.000153
    27  H   -0.000000   0.000000  -0.000000   0.000002  -0.000000   0.000018
    28  H    0.000010   0.000029  -0.000005   0.003245  -0.001028   0.004911
    29  H    0.000867  -0.009058   0.000866  -0.003006   0.005785  -0.001322
               7          8          9         10         11         12
     1  C    0.000304  -0.000029   0.000005  -0.000000   0.000000   0.000000
     2  C   -0.003518  -0.000839  -0.000070   0.000004  -0.000001  -0.000000
     3  C    0.000796   0.000052  -0.000003   0.000000   0.000000   0.000000
     4  C   -0.049410  -0.005732   0.001249   0.000139  -0.000044  -0.000001
     5  N   -0.065457   0.007292  -0.000943  -0.000198  -0.000000   0.000002
     6  N    0.469848  -0.120727   0.029908  -0.004438   0.000807   0.000000
     7  C    4.995213   0.335368  -0.167162   0.044246  -0.026241  -0.000454
     8  C    0.335368   5.347527   0.162647   0.176220  -0.245761  -0.015314
     9  C   -0.167162   0.162647   5.616154  -0.103577   0.383057   0.048896
    10  C    0.044246   0.176220  -0.103577   5.795217  -0.207071  -0.184680
    11  C   -0.026241  -0.245761   0.383057  -0.207071   6.085331   0.446007
    12  I   -0.000454  -0.015314   0.048896  -0.184680   0.446007   6.804151
    13  C    0.037721   0.161458  -0.293865   0.318862  -0.225632  -0.183656
    14  C   -0.077987   0.290990   0.102452  -0.231474   0.326736   0.046367
    15  F   -0.016872  -0.055588   0.007699   0.000802   0.007812  -0.000208
    16  C    0.407848  -0.040237   0.047840  -0.005310   0.001966   0.000046
    17  C   -0.020912   0.011658  -0.001113  -0.000099   0.000127   0.000005
    18  H   -0.000031   0.000000  -0.000000   0.000000  -0.000000  -0.000000
    19  H    0.000201   0.000014  -0.000001  -0.000000  -0.000000  -0.000000
    20  H    0.000222  -0.000015  -0.000003  -0.000000   0.000000  -0.000000
    21  H   -0.000162  -0.000007   0.000003  -0.000000   0.000000   0.000000
    22  H    0.000260  -0.000012  -0.000004  -0.000000   0.000000  -0.000000
    23  H   -0.000038   0.000000  -0.000000   0.000000  -0.000000  -0.000000
    24  H    0.000093  -0.000001   0.000001   0.000000   0.000000   0.000000
    25  H   -0.006247  -0.032800   0.417256  -0.045313   0.007276   0.000002
    26  H    0.000806   0.015302  -0.054787   0.452344  -0.092144  -0.023348
    27  H    0.001281   0.025703  -0.009904   0.024898  -0.093943  -0.023138
    28  H   -0.006323   0.001724  -0.001567   0.000200  -0.000165   0.000002
    29  H   -0.000017   0.000438   0.000104  -0.000002   0.000000  -0.000000
              13         14         15         16         17         18
     1  C   -0.000000  -0.000001   0.000000  -0.003405  -0.001690   0.413958
     2  C    0.000001   0.000019   0.000003   0.018568  -0.059760  -0.050355
     3  C   -0.000000   0.000001  -0.000000  -0.004308  -0.001239  -0.004125
     4  C    0.000059  -0.001576   0.000266  -0.012658   0.352642   0.013389
     5  N    0.000036  -0.000361  -0.000004  -0.018059  -0.068211   0.000760
     6  N   -0.000811  -0.002814  -0.000147  -0.072178  -0.046623   0.000028
     7  C    0.037721  -0.077987  -0.016872   0.407848  -0.020912  -0.000031
     8  C    0.161458   0.290990  -0.055588  -0.040237   0.011658   0.000000
     9  C   -0.293865   0.102452   0.007699   0.047840  -0.001113  -0.000000
    10  C    0.318862  -0.231474   0.000802  -0.005310  -0.000099   0.000000
    11  C   -0.225632   0.326736   0.007812   0.001966   0.000127  -0.000000
    12  I   -0.183656   0.046367  -0.000208   0.000046   0.000005  -0.000000
    13  C    5.815219   0.039122  -0.044456  -0.006320  -0.000743   0.000000
    14  C    0.039122   5.153804   0.218563  -0.042770   0.006067  -0.000000
    15  F   -0.044456   0.218563   9.076961   0.006979   0.000444  -0.000000
    16  C   -0.006320  -0.042770   0.006979   5.173488   0.362536   0.000180
    17  C   -0.000743   0.006067   0.000444   0.362536   5.233124  -0.001075
    18  H    0.000000  -0.000000  -0.000000   0.000180  -0.001075   0.537465
    19  H   -0.000000  -0.000000  -0.000000  -0.000713   0.001941  -0.023226
    20  H    0.000000   0.000001  -0.000000  -0.000070   0.003125  -0.025050
    21  H   -0.000000  -0.000000   0.000000   0.003230   0.008147  -0.004344
    22  H    0.000000   0.000001  -0.000000  -0.000132   0.003379   0.000017
    23  H    0.000000   0.000000   0.000000   0.000180  -0.001088   0.001525
    24  H   -0.000000  -0.000001   0.000000  -0.000532   0.001364  -0.000162
    25  H    0.000309  -0.000979  -0.000047   0.002825  -0.000052  -0.000000
    26  H    0.024555  -0.007107   0.000016  -0.000064  -0.000000   0.000000
    27  H    0.447387  -0.060927   0.002221  -0.000086  -0.000014   0.000000
    28  H    0.000294  -0.010459   0.010663   0.379881  -0.027635   0.000000
    29  H   -0.000005  -0.000123  -0.000056  -0.025357   0.376074  -0.000101
              19         20         21         22         23         24
     1  C    0.406011   0.407379  -0.054004  -0.011122  -0.004110   0.010625
     2  C   -0.048132  -0.008646   0.495500  -0.008854  -0.050596  -0.047298
     3  C    0.010538  -0.010819  -0.052860   0.407618   0.414533   0.405830
     4  C    0.002641  -0.027189  -0.105486  -0.026929   0.013321   0.002512
     5  N    0.000345   0.009316   0.003245   0.008987   0.000695   0.000398
     6  N   -0.000279  -0.000871  -0.000517  -0.000897   0.000033  -0.000202
     7  C    0.000201   0.000222  -0.000162   0.000260  -0.000038   0.000093
     8  C    0.000014  -0.000015  -0.000007  -0.000012   0.000000  -0.000001
     9  C   -0.000001  -0.000003   0.000003  -0.000004  -0.000000   0.000001
    10  C   -0.000000  -0.000000  -0.000000  -0.000000   0.000000   0.000000
    11  C   -0.000000   0.000000   0.000000   0.000000  -0.000000   0.000000
    12  I   -0.000000  -0.000000   0.000000  -0.000000  -0.000000   0.000000
    13  C   -0.000000   0.000000  -0.000000   0.000000   0.000000  -0.000000
    14  C   -0.000000   0.000001  -0.000000   0.000001   0.000000  -0.000001
    15  F   -0.000000  -0.000000   0.000000  -0.000000   0.000000   0.000000
    16  C   -0.000713  -0.000070   0.003230  -0.000132   0.000180  -0.000532
    17  C    0.001941   0.003125   0.008147   0.003379  -0.001088   0.001364
    18  H   -0.023226  -0.025050  -0.004344   0.000017   0.001525  -0.000162
    19  H    0.535871  -0.022186  -0.004725  -0.000068  -0.000164  -0.000401
    20  H   -0.022186   0.494337   0.007196   0.004103  -0.000007  -0.000078
    21  H   -0.004725   0.007196   0.582732   0.007173  -0.004450  -0.004737
    22  H   -0.000068   0.004103   0.007173   0.494160  -0.025175  -0.022045
    23  H   -0.000164  -0.000007  -0.004450  -0.025175   0.537369  -0.023196
    24  H   -0.000401  -0.000078  -0.004737  -0.022045  -0.023196   0.534826
    25  H    0.000000  -0.000003   0.000001  -0.000002  -0.000000   0.000000
    26  H    0.000000   0.000000  -0.000000   0.000000   0.000000  -0.000000
    27  H    0.000000   0.000000  -0.000000   0.000000   0.000000   0.000000
    28  H    0.000002   0.000001  -0.000081   0.000001   0.000001   0.000005
    29  H    0.000206  -0.000110   0.001340  -0.000105  -0.000099   0.000197
              25         26         27         28         29
     1  C    0.000002  -0.000000  -0.000000   0.000010   0.000867
     2  C   -0.000031   0.000000   0.000000   0.000029  -0.009058
     3  C   -0.000000  -0.000000  -0.000000  -0.000005   0.000866
     4  C    0.000458   0.000001   0.000002   0.003245  -0.003006
     5  N   -0.001758   0.000004  -0.000000  -0.001028   0.005785
     6  N    0.025930  -0.000153   0.000018   0.004911  -0.001322
     7  C   -0.006247   0.000806   0.001281  -0.006323  -0.000017
     8  C   -0.032800   0.015302   0.025703   0.001724   0.000438
     9  C    0.417256  -0.054787  -0.009904  -0.001567   0.000104
    10  C   -0.045313   0.452344   0.024898   0.000200  -0.000002
    11  C    0.007276  -0.092144  -0.093943  -0.000165   0.000000
    12  I    0.000002  -0.023348  -0.023138   0.000002  -0.000000
    13  C    0.000309   0.024555   0.447387   0.000294  -0.000005
    14  C   -0.000979  -0.007107  -0.060927  -0.010459  -0.000123
    15  F   -0.000047   0.000016   0.002221   0.010663  -0.000056
    16  C    0.002825  -0.000064  -0.000086   0.379881  -0.025357
    17  C   -0.000052  -0.000000  -0.000014  -0.027635   0.376074
    18  H   -0.000000   0.000000   0.000000   0.000000  -0.000101
    19  H    0.000000   0.000000   0.000000   0.000002   0.000206
    20  H   -0.000003   0.000000   0.000000   0.000001  -0.000110
    21  H    0.000001  -0.000000  -0.000000  -0.000081   0.001340
    22  H   -0.000002   0.000000   0.000000   0.000001  -0.000105
    23  H   -0.000000   0.000000   0.000000   0.000001  -0.000099
    24  H    0.000000  -0.000000   0.000000   0.000005   0.000197
    25  H    0.446836  -0.003263   0.000025  -0.000068   0.000009
    26  H   -0.003263   0.497093   0.000455  -0.000000   0.000000
    27  H    0.000025   0.000455   0.491987   0.000087   0.000000
    28  H   -0.000068  -0.000000   0.000087   0.473449  -0.004016
    29  H    0.000009   0.000000   0.000000  -0.004016   0.493783
 Mulliken charges:
               1
     1  C   -0.432827
     2  C   -0.144086
     3  C   -0.433405
     4  C    0.146126
     5  N   -0.193408
     6  N   -0.159571
     7  C    0.146623
     8  C   -0.019331
     9  C   -0.184275
    10  C   -0.030769
    11  C   -0.368116
    12  I    0.085322
    13  C   -0.089536
    14  C    0.252459
    15  F   -0.215050
    16  C   -0.173365
    17  C   -0.130378
    18  H    0.141148
    19  H    0.142125
    20  H    0.169367
    21  H    0.122806
    22  H    0.169647
    23  H    0.141266
    24  H    0.142802
    25  H    0.189633
    26  H    0.190292
    27  H    0.193947
    28  H    0.176845
    29  H    0.163710
 Sum of Mulliken charges =  -0.00000
 Mulliken charges with hydrogens summed into heavy atoms:
               1
     1  C    0.019813
     2  C   -0.021281
     3  C    0.020310
     4  C    0.146126
     5  N   -0.193408
     6  N   -0.159571
     7  C    0.146623
     8  C   -0.019331
     9  C    0.005358
    10  C    0.159523
    11  C   -0.368116
    12  I    0.085322
    13  C    0.104411
    14  C    0.252459
    15  F   -0.215050
    16  C    0.003479
    17  C    0.033332
 Electronic spatial extent (au):  <R**2>=           7052.9436
 Charge=              0.0000 electrons
 Dipole moment (field-independent basis, Debye):
    X=             -1.6011    Y=              2.0484    Z=             -0.9280  Tot=              2.7605
 Quadrupole moment (field-independent basis, Debye-Ang):
   XX=           -100.5815   YY=           -112.3504   ZZ=           -117.1503
   XY=             -9.2733   XZ=              2.8331   YZ=             -0.0483
 Traceless Quadrupole moment (field-independent basis, Debye-Ang):
   XX=              9.4459   YY=             -2.3230   ZZ=             -7.1229
   XY=             -9.2733   XZ=              2.8331   YZ=             -0.0483
 Octapole moment (field-independent basis, Debye-Ang**2):
  XXX=            232.2793  YYY=             -2.7747  ZZZ=              3.5377  XYY=            112.1673
  XXY=             34.5231  XXZ=             -7.2264  XZZ=            102.9888  YZZ=              0.1323
  YYZ=             -4.6207  XYZ=              2.3498
 Hexadecapole moment (field-independent basis, Debye-Ang**3):
 XXXX=          -9572.3458 YYYY=           -870.9869 ZZZZ=           -330.7560 XXXY=           -220.3030
 XXXZ=             38.8008 YYYX=           -135.1646 YYYZ=             -4.3873 ZZZX=              3.3146
 ZZZY=              3.6110 XXYY=          -1876.3506 XXZZ=          -1841.7834 YYZZ=           -207.3923
 XXYZ=             -5.3338 YYXZ=             14.7161 ZZXY=            -31.5192
 N-N= 1.080282431246D+03 E-N=-3.840471361355D+03  KE= 7.115524842773D+02
 Unable to Open any file for archive entry.
 1\1\GINC-COMPUTE-0-35\SP\RM062X\Gen\C13H12F1I1N2\ZTAN64\14-Aug-2024\0\
 \# M062X gen pseudo=read int=(grid=ultrafine) nmr=giao guess=read geom
 =check\\pyrdz1.xyz\\0,1\C,0,-3.7782870053,1.8700728929,0.3861958148\C,
 0,-3.313268202,0.4656930397,0.804012436\C,0,-4.0969005928,-0.624650848
 7,0.0552389311\C,0,-1.8259240685,0.3056561228,0.5674652782\N,0,-1.4153
 484418,0.4318032984,-0.7041547547\N,0,-0.1358474703,0.3002937892,-1.01
 45501543\C,0,0.7850287346,0.0428113539,-0.0664535678\C,0,2.1779280114,
 -0.0543557737,-0.5659241878\C,0,2.4958214093,0.4488384914,-1.839937968
 5\C,0,3.781952099,0.3862724668,-2.362892035\C,0,4.7949155628,-0.199401
 7598,-1.6036432326\I,0,6.7817251304,-0.3026701823,-2.3809276891\C,0,4.
 5304997307,-0.7198677701,-0.3419517538\C,0,3.2323290363,-0.6372901712,
 0.1465401038\F,0,3.0153722908,-1.1725372301,1.3723248669\C,0,0.4192871
 007,-0.0878217361,1.2845502709\C,0,-0.9186381883,0.0458563277,1.600291
 4002\H,0,-4.8525197283,1.985785887,0.5605452663\H,0,-3.2538097109,2.64
 71874064,0.9509056996\H,0,-3.5766729257,2.0283743638,-0.6764380421\H,0
 ,-3.4883332946,0.3449956204,1.8807533393\H,0,-3.9068648923,-0.54877346
 19,-1.0186225309\H,0,-5.1714930592,-0.5129878131,0.2300644648\H,0,-3.7
 984756877,-1.6253094681,0.3830396484\H,0,1.6917932942,0.8909300678,-2.
 4155284809\H,0,3.9896670197,0.7900658405,-3.3460309727\H,0,5.292085577
 3,-1.1890163991,0.2674104593\H,0,1.1617276093,-0.2784361931,2.04591121
 22\H,0,-1.2648493388,-0.0416181613,2.6255061786\\Version=ES64L-G16RevC
 .01\State=1-A\HF=-723.2669263\RMSD=3.785e-09\Dipole=-0.3509562,0.06872
 66,1.0255162\Quadrupole=2.3969551,-4.8233423,2.4263872,-0.3377969,-8.6
 120325,-0.6448831\PG=C01 [X(C13H12F1I1N2)]\\@
 The archive entry for this job was punched.


     ON THE SURVIVAL OF THE FITTEST -
 "STRONG REPRESENTATIVES FROM EACH PAST ERA THRIVE TODAY,
 SUCH AS PROGRAMMING IN THE THIRTY YEAR OLD LANGUAGE KNOWN
 AS FORTRAN, AND EVEN IN THE ANCIENT SCRIPT KNOWN AS DIRECT
 MACHINE CODE. SOME PEOPLE MIGHT LOOK ON SUCH RELICS AS LIVING
 FOSSILS; OTHERS WOULD POINT OUT THAT EVEN A VERY OLD SPECIES
 MIGHT STILL BE FILLING A PARTICULAR ECOLOGICAL NICHE."
     -- ALAN KAY, SCI.AM. SEPTEMBER 1984
 Job cpu time:       0 days  1 hours 26 minutes 15.7 seconds.
 Elapsed time:       0 days  0 hours  5 minutes 40.9 seconds.
 File lengths (MBytes):  RWF=    189 Int=      0 D2E=      0 Chk=     31 Scr=      1
 Normal termination of Gaussian 16 at Wed Aug 14 20:19:22 2024.
 
 
-----Kestrel cluster job statistics-----
Time info:

real	26m26.794s
user	416m38.708s
sys	0m25.911s
 
Disk space usage:
31M	/scratch/362981.kestrel.chem.wisc.edu
