 Entering Gaussian System, Link 0=/share/apps/gaussian/g16/g16
 Initial command:
 /share/apps/gaussian/g16/l1.exe "/scratch/362984.kestrel.chem.wisc.edu/Gau-88005.inp" -scrdir="/scratch/362984.kestrel.chem.wisc.edu/"
 Entering Link 1 = /share/apps/gaussian/g16/l1.exe PID=     88006.
  
 Copyright (c) 1988-2019, Gaussian, Inc.  All Rights Reserved.
  
 This is part of the Gaussian(R) 16 program.  It is based on
 the Gaussian(R) 09 system (copyright 2009, Gaussian, Inc.),
 the Gaussian(R) 03 system (copyright 2003, Gaussian, Inc.),
 the Gaussian(R) 98 system (copyright 1998, Gaussian, Inc.),
 the Gaussian(R) 94 system (copyright 1995, Gaussian, Inc.),
 the Gaussian 92(TM) system (copyright 1992, Gaussian, Inc.),
 the Gaussian 90(TM) system (copyright 1990, Gaussian, Inc.),
 the Gaussian 88(TM) system (copyright 1988, Gaussian, Inc.),
 the Gaussian 86(TM) system (copyright 1986, Carnegie Mellon
 University), and the Gaussian 82(TM) system (copyright 1983,
 Carnegie Mellon University). Gaussian is a federally registered
 trademark of Gaussian, Inc.
  
 This software contains proprietary and confidential information,
 including trade secrets, belonging to Gaussian, Inc.
  
 This software is provided under written license and may be
 used, copied, transmitted, or stored only in accord with that
 written license.
  
 The following legend is applicable only to US Government
 contracts under FAR:
  
                    RESTRICTED RIGHTS LEGEND
  
 Use, reproduction and disclosure by the US Government is
 subject to restrictions as set forth in subparagraphs (a)
 and (c) of the Commercial Computer Software - Restricted
 Rights clause in FAR 52.227-19.
  
 Gaussian, Inc.
 340 Quinnipiac St., Bldg. 40, Wallingford CT 06492
  
  
 ---------------------------------------------------------------
 Warning -- This program may not be used in any manner that
 competes with the business of Gaussian, Inc. or will provide
 assistance to any competitor of Gaussian, Inc.  The licensee
 of this program is prohibited from giving any competitor of
 Gaussian, Inc. access to this program.  By using this program,
 the user acknowledges that Gaussian, Inc. is engaged in the
 business of creating and licensing software in the field of
 computational chemistry and represents and warrants to the
 licensee that it is not a competitor of Gaussian, Inc. and that
 it will not use this program in any manner prohibited above.
 ---------------------------------------------------------------
  

 Cite this work as:
 Gaussian 16, Revision C.01,
 M. J. Frisch, G. W. Trucks, H. B. Schlegel, G. E. Scuseria, 
 M. A. Robb, J. R. Cheeseman, G. Scalmani, V. Barone, 
 G. A. Petersson, H. Nakatsuji, X. Li, M. Caricato, A. V. Marenich, 
 J. Bloino, B. G. Janesko, R. Gomperts, B. Mennucci, H. P. Hratchian, 
 J. V. Ortiz, A. F. Izmaylov, J. L. Sonnenberg, D. Williams-Young, 
 F. Ding, F. Lipparini, F. Egidi, J. Goings, B. Peng, A. Petrone, 
 T. Henderson, D. Ranasinghe, V. G. Zakrzewski, J. Gao, N. Rega, 
 G. Zheng, W. Liang, M. Hada, M. Ehara, K. Toyota, R. Fukuda, 
 J. Hasegawa, M. Ishida, T. Nakajima, Y. Honda, O. Kitao, H. Nakai, 
 T. Vreven, K. Throssell, J. A. Montgomery, Jr., J. E. Peralta, 
 F. Ogliaro, M. J. Bearpark, J. J. Heyd, E. N. Brothers, K. N. Kudin, 
 V. N. Staroverov, T. A. Keith, R. Kobayashi, J. Normand, 
 K. Raghavachari, A. P. Rendell, J. C. Burant, S. S. Iyengar, 
 J. Tomasi, M. Cossi, J. M. Millam, M. Klene, C. Adamo, R. Cammi, 
 J. W. Ochterski, R. L. Martin, K. Morokuma, O. Farkas, 
 J. B. Foresman, and D. J. Fox, Gaussian, Inc., Wallingford CT, 2019.
 
 ******************************************
 Gaussian 16:  ES64L-G16RevC.01  3-Jul-2019
                14-Aug-2024 
 ******************************************
 %nprocs=16
 Will use up to   16 processors via shared memory.
 %mem=16GB
 %chk=pyrdz1_conf-4.chk
 ----------------------------------------------------------------------
 # B3LYP gen 6D pseudo=read symmetry=loose empiricaldispersion=GD3BJ in
 t=(grid=ultrafine) opt freq=noraman
 ----------------------------------------------------------------------
 1/18=20,19=15,26=4,38=1/1,3;
 2/9=110,12=2,17=4,18=3,40=1/2;
 3/5=7,8=2,11=2,16=1,17=8,25=1,30=1,71=1,74=-5,75=-5,124=41/1,2,3;
 4//1;
 5/5=2,38=5/2;
 6/7=2,8=2,9=2,10=2,28=1/1;
 7//1,2,3,16;
 1/18=20,19=15,26=4/3(2);
 2/9=110/2;
 99//99;
 2/9=110/2;
 3/5=7,6=1,8=2,11=2,16=1,17=8,25=1,30=1,71=1,74=-5,75=-5,82=7,124=41/1,2,3;
 4/5=5,16=3,69=1/1;
 5/5=2,38=5/2;
 7//1,2,3,16;
 1/18=20,19=15,26=4/3(-5);
 2/9=110/2;
 6/7=2,8=2,9=2,10=2,19=2,28=1/1;
 99/9=1/99;
 ----------
 pyrdz1.xyz
 ----------
 Symbolic Z-matrix:
 Charge =  0 Multiplicity = 1
 C                    -3.7084   -0.0049    2.0117 
 C                    -3.3789    0.211     0.523 
 C                    -4.0797    1.4604   -0.0419 
 C                    -1.8716    0.2428    0.2738 
 N                    -1.3681   -0.7451   -0.5152 
 N                    -0.0514   -0.7908   -0.7799 
 C                     0.7921    0.1487   -0.2654 
 C                     2.2343    0.0241   -0.6218 
 C                     2.95      1.1619   -1.0231 
 C                     4.3002    1.0787   -1.3643 
 C                     4.958    -0.1469   -1.3064 
 I                     6.981    -0.2748   -1.8161 
 C                     4.265    -1.2866   -0.9073 
 C                     2.9155   -1.2065   -0.566 
 F                     2.2871   -2.3356   -0.1629 
 C                     0.3135    1.1805    0.5501 
 C                    -1.0517    1.2293    0.8279 
 H                    -4.7809   -0.1286    2.1655 
 H                    -3.219    -0.9014    2.3954 
 H                    -3.3829    0.8359    2.6248 
 H                    -3.7863   -0.6488   -0.0164 
 H                    -3.7712    2.3677    0.478 
 H                    -5.1634    1.381     0.05 
 H                    -3.8516    1.5929   -1.1005 
 H                     2.4509    2.118    -1.0868 
 H                     4.8376    1.962    -1.6779 
 H                     4.7699   -2.2389   -0.8567 
 H                     0.9831    1.9173    0.9676 
 H                    -1.4614    2.0052    1.4568 
 

 GradGradGradGradGradGradGradGradGradGradGradGradGradGradGradGradGradGrad
 Berny optimization.
 Initialization pass.
                           ----------------------------
                           !    Initial Parameters    !
                           ! (Angstroms and Degrees)  !
 --------------------------                            --------------------------
 ! Name  Definition              Value          Derivative Info.                !
 --------------------------------------------------------------------------------
 ! R1    R(1,2)                  1.5399         estimate D2E/DX2                !
 ! R2    R(1,18)                 1.0905         estimate D2E/DX2                !
 ! R3    R(1,19)                 1.0911         estimate D2E/DX2                !
 ! R4    R(1,20)                 1.0903         estimate D2E/DX2                !
 ! R5    R(2,3)                  1.5399         estimate D2E/DX2                !
 ! R6    R(2,4)                  1.5281         estimate D2E/DX2                !
 ! R7    R(2,21)                 1.0937         estimate D2E/DX2                !
 ! R8    R(3,22)                 1.0903         estimate D2E/DX2                !
 ! R9    R(3,23)                 1.0905         estimate D2E/DX2                !
 ! R10   R(3,24)                 1.091          estimate D2E/DX2                !
 ! R11   R(4,5)                  1.3609         estimate D2E/DX2                !
 ! R12   R(4,17)                 1.3973         estimate D2E/DX2                !
 ! R13   R(5,6)                  1.3438         estimate D2E/DX2                !
 ! R14   R(6,7)                  1.3634         estimate D2E/DX2                !
 ! R15   R(7,8)                  1.4908         estimate D2E/DX2                !
 ! R16   R(7,16)                 1.3995         estimate D2E/DX2                !
 ! R17   R(8,9)                  1.4028         estimate D2E/DX2                !
 ! R18   R(8,14)                 1.4077         estimate D2E/DX2                !
 ! R19   R(9,10)                 1.3951         estimate D2E/DX2                !
 ! R20   R(9,25)                 1.0804         estimate D2E/DX2                !
 ! R21   R(10,11)                1.3922         estimate D2E/DX2                !
 ! R22   R(10,26)                1.0804         estimate D2E/DX2                !
 ! R23   R(11,12)                2.0901         estimate D2E/DX2                !
 ! R24   R(11,13)                1.3923         estimate D2E/DX2                !
 ! R25   R(13,14)                1.3943         estimate D2E/DX2                !
 ! R26   R(13,27)                1.0791         estimate D2E/DX2                !
 ! R27   R(14,15)                1.3536         estimate D2E/DX2                !
 ! R28   R(16,17)                1.394          estimate D2E/DX2                !
 ! R29   R(16,28)                1.0796         estimate D2E/DX2                !
 ! R30   R(17,29)                1.0795         estimate D2E/DX2                !
 ! A1    A(2,1,18)             111.265          estimate D2E/DX2                !
 ! A2    A(2,1,19)             111.0506         estimate D2E/DX2                !
 ! A3    A(2,1,20)             111.815          estimate D2E/DX2                !
 ! A4    A(18,1,19)            107.3578         estimate D2E/DX2                !
 ! A5    A(18,1,20)            107.5643         estimate D2E/DX2                !
 ! A6    A(19,1,20)            107.5761         estimate D2E/DX2                !
 ! A7    A(1,2,3)              111.7783         estimate D2E/DX2                !
 ! A8    A(1,2,4)              111.8161         estimate D2E/DX2                !
 ! A9    A(1,2,21)             106.6699         estimate D2E/DX2                !
 ! A10   A(3,2,4)              111.8512         estimate D2E/DX2                !
 ! A11   A(3,2,21)             106.702          estimate D2E/DX2                !
 ! A12   A(4,2,21)             107.6595         estimate D2E/DX2                !
 ! A13   A(2,3,22)             111.8079         estimate D2E/DX2                !
 ! A14   A(2,3,23)             111.2401         estimate D2E/DX2                !
 ! A15   A(2,3,24)             111.0603         estimate D2E/DX2                !
 ! A16   A(22,3,23)            107.5541         estimate D2E/DX2                !
 ! A17   A(22,3,24)            107.6065         estimate D2E/DX2                !
 ! A18   A(23,3,24)            107.3613         estimate D2E/DX2                !
 ! A19   A(2,4,5)              116.3844         estimate D2E/DX2                !
 ! A20   A(2,4,17)             121.9253         estimate D2E/DX2                !
 ! A21   A(5,4,17)             121.69           estimate D2E/DX2                !
 ! A22   A(4,5,6)              120.093          estimate D2E/DX2                !
 ! A23   A(5,6,7)              120.5588         estimate D2E/DX2                !
 ! A24   A(6,7,8)              116.7883         estimate D2E/DX2                !
 ! A25   A(6,7,16)             121.0873         estimate D2E/DX2                !
 ! A26   A(8,7,16)             122.1232         estimate D2E/DX2                !
 ! A27   A(7,8,9)              119.6143         estimate D2E/DX2                !
 ! A28   A(7,8,14)             122.1228         estimate D2E/DX2                !
 ! A29   A(9,8,14)             118.2625         estimate D2E/DX2                !
 ! A30   A(8,9,10)             121.0212         estimate D2E/DX2                !
 ! A31   A(8,9,25)             119.9305         estimate D2E/DX2                !
 ! A32   A(10,9,25)            119.0409         estimate D2E/DX2                !
 ! A33   A(9,10,11)            119.9743         estimate D2E/DX2                !
 ! A34   A(9,10,26)            120.2385         estimate D2E/DX2                !
 ! A35   A(11,10,26)           119.7866         estimate D2E/DX2                !
 ! A36   A(10,11,12)           120.0694         estimate D2E/DX2                !
 ! A37   A(10,11,13)           119.8268         estimate D2E/DX2                !
 ! A38   A(12,11,13)           120.1038         estimate D2E/DX2                !
 ! A39   A(11,13,14)           120.3244         estimate D2E/DX2                !
 ! A40   A(11,13,27)           120.1967         estimate D2E/DX2                !
 ! A41   A(14,13,27)           119.4786         estimate D2E/DX2                !
 ! A42   A(8,14,13)            120.5902         estimate D2E/DX2                !
 ! A43   A(8,14,15)            121.0889         estimate D2E/DX2                !
 ! A44   A(13,14,15)           118.314          estimate D2E/DX2                !
 ! A45   A(7,16,17)            118.4781         estimate D2E/DX2                !
 ! A46   A(7,16,28)            121.0901         estimate D2E/DX2                !
 ! A47   A(17,16,28)           120.4273         estimate D2E/DX2                !
 ! A48   A(4,17,16)            118.0928         estimate D2E/DX2                !
 ! A49   A(4,17,29)            121.0482         estimate D2E/DX2                !
 ! A50   A(16,17,29)           120.8585         estimate D2E/DX2                !
 ! D1    D(18,1,2,3)            59.5655         estimate D2E/DX2                !
 ! D2    D(18,1,2,4)          -174.1599         estimate D2E/DX2                !
 ! D3    D(18,1,2,21)          -56.7107         estimate D2E/DX2                !
 ! D4    D(19,1,2,3)           179.0911         estimate D2E/DX2                !
 ! D5    D(19,1,2,4)           -54.6343         estimate D2E/DX2                !
 ! D6    D(19,1,2,21)           62.815          estimate D2E/DX2                !
 ! D7    D(20,1,2,3)           -60.7381         estimate D2E/DX2                !
 ! D8    D(20,1,2,4)            65.5366         estimate D2E/DX2                !
 ! D9    D(20,1,2,21)         -177.0142         estimate D2E/DX2                !
 ! D10   D(1,2,3,22)            60.7247         estimate D2E/DX2                !
 ! D11   D(1,2,3,23)           -59.5438         estimate D2E/DX2                !
 ! D12   D(1,2,3,24)          -179.0638         estimate D2E/DX2                !
 ! D13   D(4,2,3,22)           -65.5307         estimate D2E/DX2                !
 ! D14   D(4,2,3,23)           174.2008         estimate D2E/DX2                !
 ! D15   D(4,2,3,24)            54.6808         estimate D2E/DX2                !
 ! D16   D(21,2,3,22)          176.9813         estimate D2E/DX2                !
 ! D17   D(21,2,3,23)           56.7128         estimate D2E/DX2                !
 ! D18   D(21,2,3,24)          -62.8072         estimate D2E/DX2                !
 ! D19   D(1,2,4,5)            116.6258         estimate D2E/DX2                !
 ! D20   D(1,2,4,17)           -63.1939         estimate D2E/DX2                !
 ! D21   D(3,2,4,5)           -117.1394         estimate D2E/DX2                !
 ! D22   D(3,2,4,17)            63.0409         estimate D2E/DX2                !
 ! D23   D(21,2,4,5)            -0.2275         estimate D2E/DX2                !
 ! D24   D(21,2,4,17)          179.9528         estimate D2E/DX2                !
 ! D25   D(2,4,5,6)           -179.804          estimate D2E/DX2                !
 ! D26   D(17,4,5,6)             0.0162         estimate D2E/DX2                !
 ! D27   D(2,4,17,16)          179.8826         estimate D2E/DX2                !
 ! D28   D(2,4,17,29)            0.1453         estimate D2E/DX2                !
 ! D29   D(5,4,17,16)            0.0724         estimate D2E/DX2                !
 ! D30   D(5,4,17,29)         -179.6649         estimate D2E/DX2                !
 ! D31   D(4,5,6,7)             -0.1001         estimate D2E/DX2                !
 ! D32   D(5,6,7,8)           -179.5185         estimate D2E/DX2                !
 ! D33   D(5,6,7,16)             0.0944         estimate D2E/DX2                !
 ! D34   D(6,7,8,9)            134.4929         estimate D2E/DX2                !
 ! D35   D(6,7,8,14)           -45.7322         estimate D2E/DX2                !
 ! D36   D(16,7,8,9)           -45.1156         estimate D2E/DX2                !
 ! D37   D(16,7,8,14)          134.6593         estimate D2E/DX2                !
 ! D38   D(6,7,16,17)           -0.0037         estimate D2E/DX2                !
 ! D39   D(6,7,16,28)          179.2267         estimate D2E/DX2                !
 ! D40   D(8,7,16,17)          179.5882         estimate D2E/DX2                !
 ! D41   D(8,7,16,28)           -1.1814         estimate D2E/DX2                !
 ! D42   D(7,8,9,10)          -179.9418         estimate D2E/DX2                !
 ! D43   D(7,8,9,25)            -0.9453         estimate D2E/DX2                !
 ! D44   D(14,8,9,10)            0.2747         estimate D2E/DX2                !
 ! D45   D(14,8,9,25)          179.2712         estimate D2E/DX2                !
 ! D46   D(7,8,14,13)          179.9624         estimate D2E/DX2                !
 ! D47   D(7,8,14,15)           -1.0077         estimate D2E/DX2                !
 ! D48   D(9,8,14,13)           -0.2598         estimate D2E/DX2                !
 ! D49   D(9,8,14,15)          178.7701         estimate D2E/DX2                !
 ! D50   D(8,9,10,11)           -0.14           estimate D2E/DX2                !
 ! D51   D(8,9,10,26)          179.5985         estimate D2E/DX2                !
 ! D52   D(25,9,10,11)        -179.1453         estimate D2E/DX2                !
 ! D53   D(25,9,10,26)           0.5933         estimate D2E/DX2                !
 ! D54   D(9,10,11,12)        -179.9727         estimate D2E/DX2                !
 ! D55   D(9,10,11,13)          -0.0159         estimate D2E/DX2                !
 ! D56   D(26,10,11,12)          0.2875         estimate D2E/DX2                !
 ! D57   D(26,10,11,13)       -179.7556         estimate D2E/DX2                !
 ! D58   D(10,11,13,14)          0.0296         estimate D2E/DX2                !
 ! D59   D(10,11,13,27)       -179.7683         estimate D2E/DX2                !
 ! D60   D(12,11,13,14)        179.9864         estimate D2E/DX2                !
 ! D61   D(12,11,13,27)          0.1885         estimate D2E/DX2                !
 ! D62   D(11,13,14,8)           0.1114         estimate D2E/DX2                !
 ! D63   D(11,13,14,15)       -178.9449         estimate D2E/DX2                !
 ! D64   D(27,13,14,8)         179.9107         estimate D2E/DX2                !
 ! D65   D(27,13,14,15)          0.8544         estimate D2E/DX2                !
 ! D66   D(7,16,17,4)           -0.0765         estimate D2E/DX2                !
 ! D67   D(7,16,17,29)         179.6613         estimate D2E/DX2                !
 ! D68   D(28,16,17,4)        -179.3122         estimate D2E/DX2                !
 ! D69   D(28,16,17,29)          0.4256         estimate D2E/DX2                !
 --------------------------------------------------------------------------------
 Trust Radius=3.00D-01 FncErr=1.00D-07 GrdErr=1.00D-06 EigMax=2.50D+02 EigMin=1.00D-04
 Number of steps in this run=    159 maximum allowed number of steps=    174.
 GradGradGradGradGradGradGradGradGradGradGradGradGradGradGradGradGradGrad

                          Input orientation:                          
 ---------------------------------------------------------------------
 Center     Atomic      Atomic             Coordinates (Angstroms)
 Number     Number       Type             X           Y           Z
 ---------------------------------------------------------------------
      1          6           0       -3.708400   -0.004900    2.011700
      2          6           0       -3.378900    0.211000    0.523000
      3          6           0       -4.079700    1.460400   -0.041900
      4          6           0       -1.871600    0.242800    0.273800
      5          7           0       -1.368100   -0.745100   -0.515200
      6          7           0       -0.051400   -0.790800   -0.779900
      7          6           0        0.792100    0.148700   -0.265400
      8          6           0        2.234300    0.024100   -0.621800
      9          6           0        2.950000    1.161900   -1.023100
     10          6           0        4.300200    1.078700   -1.364300
     11          6           0        4.958000   -0.146900   -1.306400
     12         53           0        6.981000   -0.274800   -1.816100
     13          6           0        4.265000   -1.286600   -0.907300
     14          6           0        2.915500   -1.206500   -0.566000
     15          9           0        2.287100   -2.335600   -0.162900
     16          6           0        0.313500    1.180500    0.550100
     17          6           0       -1.051700    1.229300    0.827900
     18          1           0       -4.780900   -0.128600    2.165500
     19          1           0       -3.219000   -0.901400    2.395400
     20          1           0       -3.382900    0.835900    2.624800
     21          1           0       -3.786300   -0.648800   -0.016400
     22          1           0       -3.771200    2.367700    0.478000
     23          1           0       -5.163400    1.381000    0.050000
     24          1           0       -3.851600    1.592900   -1.100500
     25          1           0        2.450900    2.118000   -1.086800
     26          1           0        4.837600    1.962000   -1.677900
     27          1           0        4.769900   -2.238900   -0.856700
     28          1           0        0.983100    1.917300    0.967600
     29          1           0       -1.461400    2.005200    1.456800
 ---------------------------------------------------------------------
                    Distance matrix (angstroms):
                    1          2          3          4          5
     1  C    0.000000
     2  C    1.539939   0.000000
     3  C    2.549949   1.539881   0.000000
     4  C    2.540765   1.528092   2.541244   0.000000
     5  N    3.522801   2.456685   3.527183   1.360875   0.000000
     6  N    4.667367   3.711254   4.673301   2.343446   1.343820
     7  C    5.046115   4.245315   5.050242   2.719355   2.351115
     8  C    6.500142   5.731798   6.501218   4.208128   3.685148
     9  C    7.409840   6.584042   7.104121   5.076861   4.747694
    10  C    8.758381   7.955085   8.492182   6.439970   6.014719
    11  C    9.280972   8.542757   9.266196   7.020850   6.403388
    12  I   11.357296  10.631788  11.335687   9.110660   8.462919
    13  C    8.587108   7.919455   8.827737   6.433655   5.672634
    14  C    7.208636   6.543294   7.504656   5.071692   4.308677
    15  F    6.790219   6.249735   7.413528   4.912600   4.001786
    16  C    4.440397   3.817654   4.441735   2.393801   2.769581
    17  C    3.159539   2.558468   3.158915   1.397299   2.408793
    18  H    1.090510   2.186033   2.808775   3.490056   4.383313
    19  H    1.091078   2.183777   3.501333   2.761497   3.452804
    20  H    1.090315   2.192733   2.826096   2.857096   4.051985
    21  H    2.129287   1.093702   2.129662   2.131957   2.470985
    22  H    2.825847   2.192551   1.090258   2.857513   4.055966
    23  H    2.808204   2.185651   1.090484   3.490205   4.386805
    24  H    3.501323   2.183769   1.090972   2.762584   3.460721
    25  H    7.214179   6.341504   6.646276   4.904244   4.807164
    26  H    9.513988   8.684517   9.079997   7.195703   6.869569
    27  H    9.224969   8.620239   9.626221   7.179581   6.326382
    28  H    5.176405   4.704909   5.182643   3.381512   3.849053
    29  H    3.065522   2.787103   3.065682   2.161899   3.385504
                    6          7          8          9         10
     6  N    0.000000
     7  C    1.363401   0.000000
     8  C    2.431765   1.490801   0.000000
     9  C    3.588953   2.501443   1.402803   0.000000
    10  C    4.772104   3.791998   2.435453   1.395127   0.000000
    11  C    5.077982   4.304159   2.813620   2.413562   1.392174
    12  I    7.127034   6.394256   4.903759   4.352231   3.036902
    13  C    4.346649   3.812238   2.433760   2.781688   2.409301
    14  C    3.003507   2.536879   1.407666   2.412353   2.788694
    15  F    2.869787   2.901255   2.404488   3.662224   4.141664
    16  C    2.405842   1.399539   2.529839   3.070250   4.423694
    17  C    2.768831   2.400542   3.788395   4.409574   5.785435
    18  H    5.610888   6.086419   7.550191   8.461641   9.817507
    19  H    4.486474   4.926610   6.300677   7.348463   8.636811
    20  H    5.033590   5.124073   6.538529   7.315673   8.660364
    21  H    3.814784   4.654004   6.088261   7.047682   8.378101
    22  H    5.039380   5.128383   6.539729   6.991551   8.378728
    23  H    5.615870   6.089829   7.551057   8.186990   9.573471
    24  H    4.497369   4.934274   6.303052   6.815682   8.172260
    25  H    3.849261   2.702676   2.155820   1.080410   2.139407
    26  H    5.682133   4.652879   3.412913   2.152198   1.080446
    27  H    5.034662   4.676875   3.406701   3.860721   3.388915
    28  H    3.384930   2.164420   2.770541   2.898657   4.140551
    29  H    3.848187   3.389812   4.680121   5.130449   6.481747
                   11         12         13         14         15
    11  C    0.000000
    12  I    2.090139   0.000000
    13  C    1.392281   3.037485   0.000000
    14  C    2.417178   4.354205   1.394293   0.000000
    15  F    3.637541   5.386341   2.359369   1.353604   0.000000
    16  C    5.174936   7.223043   4.881081   3.703222   4.094683
    17  C    6.524236   8.589373   6.132534   4.859501   4.983752
    18  H   10.339275  12.418406   9.623480   8.237568   7.762018
    19  H    9.007548  11.053025   8.189412   6.818729   6.238507
    20  H    9.273125  11.329857   8.687411   7.349996   7.069553
    21  H    8.853179  10.923074   8.125511   6.747386   6.304994
    22  H    9.257766  11.307321   8.936077   7.653548   7.696414
    23  H   10.325553  12.398002   9.845163   8.505483   8.328769
    24  H    8.982113  11.015698   8.614409   7.342750   7.348186
    25  H    3.385786   5.174860   3.861927   3.396967   4.551371
    26  H    2.144754   3.101054   3.387491   3.869132   5.222034
    27  H    2.148040   3.109196   1.079055   2.142231   2.579730
    28  H    5.023129   6.966283   4.954906   3.980481   4.589728
    29  H    7.312695   9.337258   7.015452   5.793444   5.959633
                   16         17         18         19         20
    16  C    0.000000
    17  C    1.394032   0.000000
    18  H    5.502379   4.188078   0.000000
    19  H    4.496443   3.419668   1.757727   0.000000
    20  H    4.252823   2.969530   1.759438   1.760028   0.000000
    21  H    4.525000   3.423177   2.453676   2.490465   3.056633
    22  H    4.254341   2.968849   3.177840   3.829930   2.665697
    23  H    5.503338   4.187388   2.626888   3.806697   3.177563
    24  H    4.499179   3.419119   3.807088   4.340856   3.830220
    25  H    2.850759   4.089507   8.241577   7.306864   7.032281
    26  H    5.103157   6.442029  10.566829   9.470989   9.346547
    27  H    5.790586   6.982644  10.237423   8.728550   9.383144
    28  H    1.079604   2.152503   6.232525   5.257502   4.793505
    29  H    2.156967   1.079532   4.009294   3.523982   2.534492
                   21         22         23         24         25
    21  H    0.000000
    22  H    3.056785   0.000000
    23  H    2.453753   1.759256   0.000000
    24  H    2.490935   1.760239   1.757661   0.000000
    25  H    6.906779   6.420707   7.733890   6.324352   0.000000
    26  H    9.162342   8.883914  10.165786   8.716182   2.463752
    27  H    8.743173   9.795539  10.611137   9.437817   4.940980
    28  H    5.504571   4.800618   6.237713   5.268453   2.532840
    29  H    3.823505   2.534686   4.009179   3.524604   4.667838
                   26         27         28         29
    26  H    0.000000
    27  H    4.280948   0.000000
    28  H    4.675237   5.911169   0.000000
    29  H    7.036022   7.886302   2.494519   0.000000
 Stoichiometry    C13H12FIN2
 Framework group  C1[X(C13H12FIN2)]
 Deg. of freedom    81
 Full point group                 C1      NOp   1
 Largest Abelian subgroup         C1      NOp   1
 Largest concise Abelian subgroup C1      NOp   1
                         Standard orientation:                         
 ---------------------------------------------------------------------
 Center     Atomic      Atomic             Coordinates (Angstroms)
 Number     Number       Type             X           Y           Z
 ---------------------------------------------------------------------
      1          6           0        6.667315    0.538965    1.063404
      2          6           0        6.006140    0.137103   -0.268048
      3          6           0        6.640685   -1.134978   -0.859990
      4          6           0        4.489749    0.005997   -0.132271
      5          7           0        3.739673    0.871285   -0.867554
      6          7           0        2.398295    0.824224   -0.801646
      7          6           0        1.775111   -0.088002   -0.002679
      8          6           0        0.284384   -0.073275   -0.002049
      9          6           0       -0.420841   -1.282178   -0.097284
     10          6           0       -1.815817   -1.302452   -0.100590
     11          6           0       -2.528987   -0.110608   -0.005482
     12         53           0       -4.618948   -0.137594   -0.009298
     13          6           0       -1.846401    1.098860    0.093054
     14          6           0       -0.452307    1.122189    0.096317
     15          9           0        0.169504    2.318571    0.215750
     16          6           0        2.510707   -0.994950    0.768719
     17          6           0        3.902405   -0.947173    0.703754
     18          1           0        7.733164    0.729815    0.933959
     19          1           0        6.219816    1.449869    1.463966
     20          1           0        6.561895   -0.239620    1.819365
     21          1           0        6.207156    0.946908   -0.975150
     22          1           0        6.534199   -1.989526   -0.191356
     23          1           0        7.705748   -0.994716   -1.047399
     24          1           0        6.174982   -1.399587   -1.810423
     25          1           0        0.117446   -2.214747   -0.185862
     26          1           0       -2.346168   -2.240334   -0.181013
     27          1           0       -2.393173    2.025872    0.170824
     28          1           0        2.017520   -1.709120    1.410803
     29          1           0        4.507526   -1.625039    1.286607
 ---------------------------------------------------------------------
 Rotational constants (GHZ):           1.4892490           0.0910409           0.0879746
 General basis read from cards:  (6D, 7F)
 ======================================================================================================
                                       Pseudopotential Parameters
 ======================================================================================================
  Center     Atomic      Valence      Angular      Power
  Number     Number     Electrons     Momentum     of R      Exponent        Coefficient   SO-Coeffient
 ======================================================================================================
    1          6
                                   No pseudopotential on this center.
    2          6
                                   No pseudopotential on this center.
    3          6
                                   No pseudopotential on this center.
    4          6
                                   No pseudopotential on this center.
    5          7
                                   No pseudopotential on this center.
    6          7
                                   No pseudopotential on this center.
    7          6
                                   No pseudopotential on this center.
    8          6
                                   No pseudopotential on this center.
    9          6
                                   No pseudopotential on this center.
   10          6
                                   No pseudopotential on this center.
   11          6
                                   No pseudopotential on this center.
   12         53            7
                                      F and up 
                                                     0        1.0715702       -0.07476210    0.00000000
                                                     1       44.1936028      -30.08112240    0.00000000
                                                     2       12.9367609      -75.37227210    0.00000000
                                                     2        3.1956412      -22.05637580    0.00000000
                                                     2        0.8589806       -1.69795850    0.00000000
                                      S - F
                                                     0      127.9202670        2.93800360    0.00000000
                                                     1       78.6211465       41.24712670    0.00000000
                                                     2       36.5146237      287.86800950    0.00000000
                                                     2        9.9065681      114.37585060    0.00000000
                                                     2        1.9420086       37.65477140    0.00000000
                                      P - F
                                                     0       13.0035304        2.22226300    0.00000000
                                                     1       76.0331404       39.40908310    0.00000000
                                                     2       24.1961684      177.40750020    0.00000000
                                                     2        6.4053433       77.98894620    0.00000000
                                                     2        1.5851786       25.75476410    0.00000000
                                      D - F
                                                     0       40.4278108        7.05243600    0.00000000
                                                     1       28.9084375       33.30416350    0.00000000
                                                     2       15.6268936      186.94538750    0.00000000
                                                     2        4.1442856       71.96883610    0.00000000
                                                     2        0.9377235        9.36306570    0.00000000
   13          6
                                   No pseudopotential on this center.
   14          6
                                   No pseudopotential on this center.
   15          9
                                   No pseudopotential on this center.
   16          6
                                   No pseudopotential on this center.
   17          6
                                   No pseudopotential on this center.
   18          1
                                   No pseudopotential on this center.
   19          1
                                   No pseudopotential on this center.
   20          1
                                   No pseudopotential on this center.
   21          1
                                   No pseudopotential on this center.
   22          1
                                   No pseudopotential on this center.
   23          1
                                   No pseudopotential on this center.
   24          1
                                   No pseudopotential on this center.
   25          1
                                   No pseudopotential on this center.
   26          1
                                   No pseudopotential on this center.
   27          1
                                   No pseudopotential on this center.
   28          1
                                   No pseudopotential on this center.
   29          1
                                   No pseudopotential on this center.
 ======================================================================================================
 There are   308 symmetry adapted cartesian basis functions of A   symmetry.
 There are   308 symmetry adapted basis functions of A   symmetry.
   308 basis functions,   544 primitive gaussians,   308 cartesian basis functions
    60 alpha electrons       60 beta electrons
       nuclear repulsion energy      1074.4726532359 Hartrees.
 NAtoms=   29 NActive=   29 NUniq=   29 SFac= 1.00D+00 NAtFMM=   60 NAOKFM=F Big=F
 Integral buffers will be    131072 words long.
 Raffenetti 2 integral format.
 Two-electron integral symmetry is turned on.
 Nuclear repulsion after empirical dispersion term =     1074.4086865750 Hartrees.
 One-electron integrals computed using PRISM.
   1 Symmetry operations used in ECPInt.
 ECPInt:  NShTT=    5460 NPrTT=   29729 LenC2=    4600 LenP2D=   15793.
 LDataN:  DoStor=T MaxTD1= 5 Len=  102
 NBasis=   308 RedAO= T EigKep=  4.35D-04  NBF=   308
 NBsUse=   308 1.00D-06 EigRej= -1.00D+00 NBFU=   308
 Defaulting to unpruned grid for atomic number  53.
 ExpMin= 1.05D-01 ExpMax= 7.00D+03 ExpMxC= 1.05D+03 IAcc=3 IRadAn=         5 AccDes= 0.00D+00
 Harris functional with IExCor=  402 and IRadAn=       5 diagonalized for initial guess.
 HarFok:  IExCor=  402 AccDes= 0.00D+00 IRadAn=         5 IDoV= 1 UseB2=F ITyADJ=14
 ICtDFT=  3500011 ScaDFX=  1.000000  1.000000  1.000000  1.000000
 Defaulting to unpruned grid for atomic number  53.
 FoFCou: FMM=F IPFlag=           0 FMFlag=      100000 FMFlg1=           0
         NFxFlg=           0 DoJE=T BraDBF=F KetDBF=T FulRan=T
         wScrn=  0.000000 ICntrl=       500 IOpCl=  0 I1Cent=   200000004 NGrid=           0
         NMat0=    1 NMatS0=      1 NMatT0=    0 NMatD0=    1 NMtDS0=    0 NMtDT0=    0
 Petite list used in FoFCou.
 Requested convergence on RMS density matrix=1.00D-08 within 128 cycles.
 Requested convergence on MAX density matrix=1.00D-06.
 Requested convergence on             energy=1.00D-06.
 No special actions if energy rises.
 Integral accuracy reduced to 1.0D-05 until final iterations.
 Defaulting to unpruned grid for atomic number  53.
 Defaulting to unpruned grid for atomic number  53.
 Defaulting to unpruned grid for atomic number  53.
 Defaulting to unpruned grid for atomic number  53.
 Defaulting to unpruned grid for atomic number  53.
 Defaulting to unpruned grid for atomic number  53.
 Defaulting to unpruned grid for atomic number  53.
 Defaulting to unpruned grid for atomic number  53.
 Defaulting to unpruned grid for atomic number  53.
 Defaulting to unpruned grid for atomic number  53.
 Defaulting to unpruned grid for atomic number  53.
 Defaulting to unpruned grid for atomic number  53.
 Defaulting to unpruned grid for atomic number  53.
 Defaulting to unpruned grid for atomic number  53.
 Defaulting to unpruned grid for atomic number  53.
 Defaulting to unpruned grid for atomic number  53.
 Initial convergence to 1.0D-05 achieved.  Increase integral accuracy.
 SCF Done:  E(RB3LYP) =  -723.379065047     A.U. after   15 cycles
            NFock= 15  Conv=0.61D-08     -V/T= 2.0211

 **********************************************************************

            Population analysis using the SCF Density.

 **********************************************************************

 Orbital symmetries:
       Occupied  (A) (A) (A) (A) (A) (A) (A) (A) (A) (A) (A) (A)
                 (A) (A) (A) (A) (A) (A) (A) (A) (A) (A) (A) (A)
                 (A) (A) (A) (A) (A) (A) (A) (A) (A) (A) (A) (A)
                 (A) (A) (A) (A) (A) (A) (A) (A) (A) (A) (A) (A)
                 (A) (A) (A) (A) (A) (A) (A) (A) (A) (A) (A) (A)
       Virtual   (A) (A) (A) (A) (A) (A) (A) (A) (A) (A) (A) (A)
                 (A) (A) (A) (A) (A) (A) (A) (A) (A) (A) (A) (A)
                 (A) (A) (A) (A) (A) (A) (A) (A) (A) (A) (A) (A)
                 (A) (A) (A) (A) (A) (A) (A) (A) (A) (A) (A) (A)
                 (A) (A) (A) (A) (A) (A) (A) (A) (A) (A) (A) (A)
                 (A) (A) (A) (A) (A) (A) (A) (A) (A) (A) (A) (A)
                 (A) (A) (A) (A) (A) (A) (A) (A) (A) (A) (A) (A)
                 (A) (A) (A) (A) (A) (A) (A) (A) (A) (A) (A) (A)
                 (A) (A) (A) (A) (A) (A) (A) (A) (A) (A) (A) (A)
                 (A) (A) (A) (A) (A) (A) (A) (A) (A) (A) (A) (A)
                 (A) (A) (A) (A) (A) (A) (A) (A) (A) (A) (A) (A)
                 (A) (A) (A) (A) (A) (A) (A) (A) (A) (A) (A) (A)
                 (A) (A) (A) (A) (A) (A) (A) (A) (A) (A) (A) (A)
                 (A) (A) (A) (A) (A) (A) (A) (A) (A) (A) (A) (A)
                 (A) (A) (A) (A) (A) (A) (A) (A) (A) (A) (A) (A)
                 (A) (A) (A) (A) (A) (A) (A) (A) (A) (A) (A) (A)
                 (A) (A) (A) (A) (A) (A) (A) (A) (A) (A) (A) (A)
                 (A) (A) (A) (A) (A) (A) (A) (A) (A) (A) (A) (A)
                 (A) (A) (A) (A) (A) (A) (A) (A) (A) (A) (A) (A)
                 (A) (A) (A) (A) (A) (A) (A) (A) (A) (A) (A) (A)
                 (A) (A) (A) (A) (A) (A) (A) (A)
 The electronic state is 1-A.
 Alpha  occ. eigenvalues --  -24.71296 -14.36723 -14.36681 -10.29151 -10.25368
 Alpha  occ. eigenvalues --  -10.24693 -10.23837 -10.22471 -10.22332 -10.22171
 Alpha  occ. eigenvalues --  -10.21772 -10.21404 -10.21233 -10.20327 -10.18407
 Alpha  occ. eigenvalues --  -10.18371  -1.22118  -1.00477  -0.88650  -0.84645
 Alpha  occ. eigenvalues --   -0.83116  -0.78940  -0.77085  -0.76543  -0.70000
 Alpha  occ. eigenvalues --   -0.69375  -0.66666  -0.65434  -0.63156  -0.60896
 Alpha  occ. eigenvalues --   -0.58341  -0.54614  -0.52452  -0.51780  -0.50001
 Alpha  occ. eigenvalues --   -0.49264  -0.46503  -0.45810  -0.45270  -0.44362
 Alpha  occ. eigenvalues --   -0.43575  -0.43456  -0.41364  -0.40597  -0.40356
 Alpha  occ. eigenvalues --   -0.39416  -0.38582  -0.38214  -0.36908  -0.35179
 Alpha  occ. eigenvalues --   -0.35096  -0.33829  -0.31481  -0.30410  -0.30281
 Alpha  occ. eigenvalues --   -0.27844  -0.27529  -0.26372  -0.24080  -0.23164
 Alpha virt. eigenvalues --   -0.05500  -0.04874  -0.03375  -0.01897  -0.00150
 Alpha virt. eigenvalues --    0.07833   0.09988   0.10353   0.11050   0.12759
 Alpha virt. eigenvalues --    0.13840   0.14223   0.14569   0.14713   0.15580
 Alpha virt. eigenvalues --    0.17069   0.18264   0.18479   0.19020   0.19172
 Alpha virt. eigenvalues --    0.20166   0.22735   0.23345   0.25125   0.26408
 Alpha virt. eigenvalues --    0.27857   0.29459   0.30138   0.30817   0.32003
 Alpha virt. eigenvalues --    0.33721   0.35503   0.37011   0.38294   0.39868
 Alpha virt. eigenvalues --    0.44448   0.45792   0.48463   0.48928   0.50212
 Alpha virt. eigenvalues --    0.50292   0.51199   0.51934   0.52182   0.53189
 Alpha virt. eigenvalues --    0.54161   0.54445   0.55888   0.57656   0.57858
 Alpha virt. eigenvalues --    0.58719   0.59097   0.59876   0.60315   0.60506
 Alpha virt. eigenvalues --    0.62068   0.63681   0.63990   0.64748   0.65726
 Alpha virt. eigenvalues --    0.66200   0.67945   0.68522   0.69746   0.69895
 Alpha virt. eigenvalues --    0.74511   0.74897   0.75395   0.77369   0.78556
 Alpha virt. eigenvalues --    0.78855   0.81454   0.82042   0.82568   0.83337
 Alpha virt. eigenvalues --    0.83852   0.84854   0.85901   0.86081   0.87065
 Alpha virt. eigenvalues --    0.87802   0.88710   0.89894   0.90621   0.90839
 Alpha virt. eigenvalues --    0.93176   0.94319   0.95096   0.95972   0.96655
 Alpha virt. eigenvalues --    0.97913   0.99297   1.03405   1.04982   1.06083
 Alpha virt. eigenvalues --    1.07187   1.09894   1.11702   1.14256   1.17941
 Alpha virt. eigenvalues --    1.19410   1.20364   1.23283   1.24497   1.26095
 Alpha virt. eigenvalues --    1.27099   1.27671   1.32663   1.34073   1.35140
 Alpha virt. eigenvalues --    1.37287   1.38407   1.38730   1.39405   1.40714
 Alpha virt. eigenvalues --    1.42032   1.43151   1.44523   1.45134   1.49165
 Alpha virt. eigenvalues --    1.50598   1.54456   1.56962   1.58388   1.60714
 Alpha virt. eigenvalues --    1.66281   1.67532   1.70190   1.71961   1.74324
 Alpha virt. eigenvalues --    1.74915   1.76007   1.77105   1.80326   1.81014
 Alpha virt. eigenvalues --    1.81184   1.82468   1.83747   1.83939   1.86374
 Alpha virt. eigenvalues --    1.86624   1.88231   1.89184   1.90465   1.92022
 Alpha virt. eigenvalues --    1.92968   1.96201   1.96656   1.98999   2.00542
 Alpha virt. eigenvalues --    2.03941   2.04261   2.05288   2.05511   2.06528
 Alpha virt. eigenvalues --    2.08171   2.09870   2.10552   2.11165   2.12263
 Alpha virt. eigenvalues --    2.12598   2.13839   2.14723   2.17422   2.20271
 Alpha virt. eigenvalues --    2.23985   2.25633   2.26427   2.28875   2.29325
 Alpha virt. eigenvalues --    2.30078   2.30759   2.31501   2.32244   2.34700
 Alpha virt. eigenvalues --    2.35290   2.36755   2.38637   2.39691   2.41895
 Alpha virt. eigenvalues --    2.42595   2.44755   2.45418   2.46988   2.48711
 Alpha virt. eigenvalues --    2.51293   2.52632   2.53956   2.54520   2.57638
 Alpha virt. eigenvalues --    2.58238   2.59829   2.61821   2.63416   2.64855
 Alpha virt. eigenvalues --    2.66336   2.67663   2.70228   2.70766   2.72147
 Alpha virt. eigenvalues --    2.72361   2.75477   2.77960   2.80038   2.80932
 Alpha virt. eigenvalues --    2.84614   2.88503   2.89321   2.90042   2.91300
 Alpha virt. eigenvalues --    2.94356   2.98250   3.03686   3.04121   3.09177
 Alpha virt. eigenvalues --    3.15678   3.18783   3.18800   3.22526   3.22606
 Alpha virt. eigenvalues --    3.27766   3.30048   3.32992   3.34050   3.42662
 Alpha virt. eigenvalues --    3.43997   3.47162   3.48390   3.53557   3.68213
 Alpha virt. eigenvalues --    3.74385   3.78466   4.07165   4.09131   4.12838
 Alpha virt. eigenvalues --    4.14381   4.24362   4.26207   4.29188   4.37228
 Alpha virt. eigenvalues --    4.40150   4.44180   4.49646   4.62279   4.70436
 Alpha virt. eigenvalues --    4.76463   5.56532  10.06615
          Condensed to atoms (all electrons):
               1          2          3          4          5          6
     1  C    4.950490   0.364476  -0.052717  -0.043401   0.000450  -0.000157
     2  C    0.364476   4.956974   0.363621   0.375482  -0.066719   0.006141
     3  C   -0.052717   0.363621   4.951877  -0.043012   0.000562  -0.000164
     4  C   -0.043401   0.375482  -0.043012   4.775869   0.371167  -0.046500
     5  N    0.000450  -0.066719   0.000562   0.371167   6.874153   0.233393
     6  N   -0.000157   0.006141  -0.000164  -0.046500   0.233393   6.916484
     7  C    0.000031   0.000049   0.000029  -0.026350  -0.038446   0.340946
     8  C   -0.000000   0.000007  -0.000000   0.000403   0.005689  -0.076637
     9  C   -0.000000   0.000000  -0.000000  -0.000013  -0.000056   0.001140
    10  C   -0.000000   0.000000   0.000000  -0.000000   0.000001  -0.000061
    11  C   -0.000000   0.000000   0.000000  -0.000000   0.000000  -0.000009
    12  I   -0.000000   0.000000   0.000000   0.000000   0.000000  -0.000000
    13  C    0.000000   0.000000  -0.000000   0.000000   0.000002   0.000193
    14  C   -0.000000  -0.000000   0.000000   0.000025   0.000074   0.002895
    15  F   -0.000000   0.000000   0.000000  -0.000007   0.000009  -0.001543
    16  C    0.000110   0.005464   0.000131  -0.032199  -0.044007  -0.033087
    17  C   -0.002128  -0.074648  -0.002323   0.458724  -0.034904  -0.043318
    18  H    0.380908  -0.028049  -0.003066   0.004622  -0.000028   0.000002
    19  H    0.381982  -0.031538   0.004971  -0.001405   0.000757  -0.000037
    20  H    0.379106  -0.032998  -0.005770  -0.007718  -0.000034   0.000004
    21  H   -0.039684   0.373888  -0.039871  -0.039912   0.007559  -0.000133
    22  H   -0.005740  -0.032931   0.378926  -0.007716  -0.000033   0.000004
    23  H   -0.003076  -0.027907   0.380798   0.004583  -0.000030   0.000002
    24  H    0.004966  -0.031594   0.381739  -0.001451   0.000725  -0.000034
    25  H   -0.000000  -0.000000   0.000000  -0.000005  -0.000013   0.000103
    26  H    0.000000  -0.000000  -0.000000  -0.000000  -0.000000   0.000001
    27  H    0.000000  -0.000000   0.000000   0.000000  -0.000000   0.000004
    28  H   -0.000001  -0.000115  -0.000000   0.003473  -0.000149   0.004690
    29  H    0.000392  -0.005745   0.000270  -0.035703   0.004741  -0.000112
               7          8          9         10         11         12
     1  C    0.000031  -0.000000  -0.000000  -0.000000  -0.000000  -0.000000
     2  C    0.000049   0.000007   0.000000   0.000000   0.000000   0.000000
     3  C    0.000029  -0.000000  -0.000000   0.000000   0.000000   0.000000
     4  C   -0.026350   0.000403  -0.000013  -0.000000  -0.000000   0.000000
     5  N   -0.038446   0.005689  -0.000056   0.000001   0.000000   0.000000
     6  N    0.340946  -0.076637   0.001140  -0.000061  -0.000009  -0.000000
     7  C    4.886924   0.303412  -0.051744   0.006886  -0.000170   0.000022
     8  C    0.303412   5.139728   0.487027  -0.009238  -0.045998   0.001028
     9  C   -0.051744   0.487027   4.894020   0.510793  -0.024696   0.001340
    10  C    0.006886  -0.009238   0.510793   4.828473   0.486001  -0.067902
    11  C   -0.000170  -0.045998  -0.024696   0.486001   5.356997   0.269536
    12  I    0.000022   0.001028   0.001340  -0.067902   0.269536   6.679037
    13  C    0.008177  -0.054595  -0.050064  -0.020160   0.416474  -0.069043
    14  C   -0.045278   0.394879  -0.009671  -0.043859  -0.001385  -0.000231
    15  F    0.001836  -0.057190   0.002780  -0.000128   0.003580  -0.000052
    16  C    0.469188  -0.064234  -0.009017   0.000268  -0.000026  -0.000000
    17  C   -0.032892   0.005308   0.000225   0.000001  -0.000000   0.000000
    18  H   -0.000000   0.000000  -0.000000   0.000000   0.000000   0.000000
    19  H   -0.000004  -0.000000  -0.000000   0.000000  -0.000000   0.000000
    20  H   -0.000008  -0.000000   0.000000   0.000000  -0.000000  -0.000000
    21  H    0.000060  -0.000000   0.000000  -0.000000   0.000000   0.000000
    22  H   -0.000008  -0.000000   0.000000   0.000000  -0.000000  -0.000000
    23  H   -0.000000  -0.000000   0.000000  -0.000000  -0.000000  -0.000000
    24  H   -0.000004  -0.000000   0.000000  -0.000000  -0.000000  -0.000000
    25  H   -0.008454  -0.044480   0.373038  -0.039084   0.006435  -0.000287
    26  H   -0.000177   0.004073  -0.028730   0.371086  -0.042107  -0.001672
    27  H   -0.000146   0.006331   0.000483   0.004284  -0.042422  -0.003649
    28  H   -0.036043  -0.004150   0.003226  -0.000083   0.000005  -0.000000
    29  H    0.003628  -0.000134  -0.000005   0.000000  -0.000000  -0.000000
              13         14         15         16         17         18
     1  C    0.000000  -0.000000  -0.000000   0.000110  -0.002128   0.380908
     2  C    0.000000  -0.000000   0.000000   0.005464  -0.074648  -0.028049
     3  C   -0.000000   0.000000   0.000000   0.000131  -0.002323  -0.003066
     4  C    0.000000   0.000025  -0.000007  -0.032199   0.458724   0.004622
     5  N    0.000002   0.000074   0.000009  -0.044007  -0.034904  -0.000028
     6  N    0.000193   0.002895  -0.001543  -0.033087  -0.043318   0.000002
     7  C    0.008177  -0.045278   0.001836   0.469188  -0.032892  -0.000000
     8  C   -0.054595   0.394879  -0.057190  -0.064234   0.005308   0.000000
     9  C   -0.050064  -0.009671   0.002780  -0.009017   0.000225  -0.000000
    10  C   -0.020160  -0.043859  -0.000128   0.000268   0.000001   0.000000
    11  C    0.416474  -0.001385   0.003580  -0.000026  -0.000000   0.000000
    12  I   -0.069043  -0.000231  -0.000052  -0.000000   0.000000   0.000000
    13  C    5.064129   0.451797  -0.047808  -0.000073   0.000003  -0.000000
    14  C    0.451797   4.592653   0.325512   0.004075  -0.000060  -0.000000
    15  F   -0.047808   0.325512   9.046286  -0.000038   0.000004   0.000000
    16  C   -0.000073   0.004075  -0.000038   4.959794   0.499064   0.000002
    17  C    0.000003  -0.000060   0.000004   0.499064   4.971174  -0.000080
    18  H   -0.000000  -0.000000   0.000000   0.000002  -0.000080   0.598432
    19  H   -0.000000   0.000000   0.000000  -0.000030   0.000582  -0.029410
    20  H   -0.000000   0.000000  -0.000000  -0.000060   0.002895  -0.031470
    21  H   -0.000000  -0.000000   0.000000  -0.000151   0.007161  -0.005080
    22  H    0.000000   0.000000  -0.000000  -0.000061   0.002902  -0.000318
    23  H    0.000000  -0.000000  -0.000000   0.000003  -0.000066   0.003081
    24  H    0.000000  -0.000000   0.000000  -0.000032   0.000609  -0.000033
    25  H   -0.000069   0.004232  -0.000016   0.003734  -0.000119   0.000000
    26  H    0.004188   0.000885   0.000000   0.000005  -0.000000  -0.000000
    27  H    0.359968  -0.023037  -0.000694   0.000002  -0.000000   0.000000
    28  H   -0.000027   0.000029  -0.000001   0.363039  -0.040286  -0.000000
    29  H   -0.000000   0.000002   0.000000  -0.041331   0.365469  -0.000080
              19         20         21         22         23         24
     1  C    0.381982   0.379106  -0.039684  -0.005740  -0.003076   0.004966
     2  C   -0.031538  -0.032998   0.373888  -0.032931  -0.027907  -0.031594
     3  C    0.004971  -0.005770  -0.039871   0.378926   0.380798   0.381739
     4  C   -0.001405  -0.007718  -0.039912  -0.007716   0.004583  -0.001451
     5  N    0.000757  -0.000034   0.007559  -0.000033  -0.000030   0.000725
     6  N   -0.000037   0.000004  -0.000133   0.000004   0.000002  -0.000034
     7  C   -0.000004  -0.000008   0.000060  -0.000008  -0.000000  -0.000004
     8  C   -0.000000  -0.000000  -0.000000  -0.000000  -0.000000  -0.000000
     9  C   -0.000000   0.000000   0.000000   0.000000   0.000000   0.000000
    10  C    0.000000   0.000000  -0.000000   0.000000  -0.000000  -0.000000
    11  C   -0.000000  -0.000000   0.000000  -0.000000  -0.000000  -0.000000
    12  I    0.000000  -0.000000   0.000000  -0.000000  -0.000000  -0.000000
    13  C   -0.000000  -0.000000  -0.000000   0.000000   0.000000   0.000000
    14  C    0.000000   0.000000  -0.000000   0.000000  -0.000000  -0.000000
    15  F    0.000000  -0.000000   0.000000  -0.000000  -0.000000   0.000000
    16  C   -0.000030  -0.000060  -0.000151  -0.000061   0.000003  -0.000032
    17  C    0.000582   0.002895   0.007161   0.002902  -0.000066   0.000609
    18  H   -0.029410  -0.031470  -0.005080  -0.000318   0.003081  -0.000033
    19  H    0.591445  -0.032414  -0.003007  -0.000033  -0.000034  -0.000194
    20  H   -0.032414   0.618339   0.005507   0.004683  -0.000316  -0.000032
    21  H   -0.003007   0.005507   0.614399   0.005508  -0.005041  -0.003002
    22  H   -0.000033   0.004683   0.005508   0.618708  -0.031433  -0.032533
    23  H   -0.000034  -0.000316  -0.005041  -0.031433   0.598256  -0.029482
    24  H   -0.000194  -0.000032  -0.003002  -0.032533  -0.029482   0.593333
    25  H    0.000000   0.000000   0.000000   0.000000  -0.000000  -0.000000
    26  H    0.000000  -0.000000   0.000000   0.000000   0.000000   0.000000
    27  H    0.000000   0.000000  -0.000000   0.000000  -0.000000   0.000000
    28  H    0.000000   0.000004   0.000004   0.000004  -0.000000   0.000000
    29  H   -0.000028   0.002060  -0.000058   0.002085  -0.000074  -0.000018
              25         26         27         28         29
     1  C   -0.000000   0.000000   0.000000  -0.000001   0.000392
     2  C   -0.000000  -0.000000  -0.000000  -0.000115  -0.005745
     3  C    0.000000  -0.000000   0.000000  -0.000000   0.000270
     4  C   -0.000005  -0.000000   0.000000   0.003473  -0.035703
     5  N   -0.000013  -0.000000  -0.000000  -0.000149   0.004741
     6  N    0.000103   0.000001   0.000004   0.004690  -0.000112
     7  C   -0.008454  -0.000177  -0.000146  -0.036043   0.003628
     8  C   -0.044480   0.004073   0.006331  -0.004150  -0.000134
     9  C    0.373038  -0.028730   0.000483   0.003226  -0.000005
    10  C   -0.039084   0.371086   0.004284  -0.000083   0.000000
    11  C    0.006435  -0.042107  -0.042422   0.000005  -0.000000
    12  I   -0.000287  -0.001672  -0.003649  -0.000000  -0.000000
    13  C   -0.000069   0.004188   0.359968  -0.000027  -0.000000
    14  C    0.004232   0.000885  -0.023037   0.000029   0.000002
    15  F   -0.000016   0.000000  -0.000694  -0.000001   0.000000
    16  C    0.003734   0.000005   0.000002   0.363039  -0.041331
    17  C   -0.000119  -0.000000  -0.000000  -0.040286   0.365469
    18  H    0.000000  -0.000000   0.000000  -0.000000  -0.000080
    19  H    0.000000   0.000000   0.000000   0.000000  -0.000028
    20  H    0.000000  -0.000000   0.000000   0.000004   0.002060
    21  H    0.000000   0.000000  -0.000000   0.000004  -0.000058
    22  H    0.000000   0.000000   0.000000   0.000004   0.002085
    23  H   -0.000000   0.000000  -0.000000  -0.000000  -0.000074
    24  H   -0.000000   0.000000   0.000000   0.000000  -0.000018
    25  H    0.605579  -0.005999   0.000012   0.001750   0.000003
    26  H   -0.005999   0.592328  -0.000169  -0.000001   0.000000
    27  H    0.000012  -0.000169   0.578394   0.000000   0.000000
    28  H    0.001750  -0.000001   0.000000   0.604095  -0.006320
    29  H    0.000003   0.000000   0.000000  -0.006320   0.605915
 Mulliken charges:
               1
     1  C   -0.316009
     2  C   -0.113858
     3  C   -0.315999
     4  C    0.291044
     5  N   -0.314862
     6  N   -0.304212
     7  C    0.218537
     8  C    0.008773
     9  C   -0.100076
    10  C   -0.027277
    11  C   -0.382214
    12  I    0.191873
    13  C   -0.063091
    14  C    0.346464
    15  F   -0.272530
    16  C   -0.080531
    17  C   -0.083297
    18  H    0.110566
    19  H    0.118395
    20  H    0.098221
    21  H    0.121853
    22  H    0.097985
    23  H    0.110738
    24  H    0.117036
    25  H    0.103640
    26  H    0.106289
    27  H    0.120640
    28  H    0.106856
    29  H    0.105046
 Sum of Mulliken charges =  -0.00000
 Mulliken charges with hydrogens summed into heavy atoms:
               1
     1  C    0.011173
     2  C    0.007995
     3  C    0.009760
     4  C    0.291044
     5  N   -0.314862
     6  N   -0.304212
     7  C    0.218537
     8  C    0.008773
     9  C    0.003565
    10  C    0.079012
    11  C   -0.382214
    12  I    0.191873
    13  C    0.057549
    14  C    0.346464
    15  F   -0.272530
    16  C    0.026325
    17  C    0.021749
 Electronic spatial extent (au):  <R**2>=           7134.9427
 Charge=             -0.0000 electrons
 Dipole moment (field-independent basis, Debye):
    X=              1.5080    Y=             -3.6489    Z=              2.2611  Tot=              4.5498
 Quadrupole moment (field-independent basis, Debye-Ang):
   XX=            -97.8350   YY=           -110.6203   ZZ=           -115.4495
   XY=             -9.1152   XZ=              6.7091   YZ=              1.4392
 Traceless Quadrupole moment (field-independent basis, Debye-Ang):
   XX=             10.1333   YY=             -2.6520   ZZ=             -7.4812
   XY=             -9.1152   XZ=              6.7091   YZ=              1.4392
 Octapole moment (field-independent basis, Debye-Ang**2):
  XXX=           -215.5392  YYY=             -4.7553  ZZZ=              2.8949  XYY=           -114.9323
  XXY=            -18.1012  XXZ=             18.2619  XZZ=           -103.1995  YZZ=             -1.8190
  YYZ=              6.3735  XYZ=              2.1651
 Hexadecapole moment (field-independent basis, Debye-Ang**3):
 XXXX=          -9527.9365 YYYY=           -731.7030 ZZZZ=           -345.4130 XXXY=             -3.5093
 XXXZ=             35.1106 YYYX=             35.3374 YYYZ=              3.2916 ZZZX=              4.6086
 ZZZY=              4.2929 XXYY=          -1880.8284 XXZZ=          -1845.4230 YYZZ=           -181.6732
 XXYZ=             11.7369 YYXZ=             25.4175 ZZXY=             -4.2282
 N-N= 1.074408686575D+03 E-N=-3.826393646009D+03  KE= 7.084104098725D+02
   1 Symmetry operations used in ECPInt.
 ECPInt:  NShTT=    5460 NPrTT=   29729 LenC2=    4600 LenP2D=   15793.
 LDataN:  DoStor=T MaxTD1= 6 Len=  172
 Calling FoFJK, ICntrl=      2127 FMM=F ISym2X=0 I1Cent= 0 IOpClX= 0 NMat=1 NMatS=1 NMatT=0.
 Defaulting to unpruned grid for atomic number  53.
 Defaulting to unpruned grid for atomic number  53.
 Defaulting to unpruned grid for atomic number  53.
 Defaulting to unpruned grid for atomic number  53.
 Defaulting to unpruned grid for atomic number  53.
 Defaulting to unpruned grid for atomic number  53.
 Defaulting to unpruned grid for atomic number  53.
 Defaulting to unpruned grid for atomic number  53.
 Defaulting to unpruned grid for atomic number  53.
 Defaulting to unpruned grid for atomic number  53.
 Defaulting to unpruned grid for atomic number  53.
 Defaulting to unpruned grid for atomic number  53.
 Defaulting to unpruned grid for atomic number  53.
 Defaulting to unpruned grid for atomic number  53.
 Defaulting to unpruned grid for atomic number  53.
 Defaulting to unpruned grid for atomic number  53.
 ***** Axes restored to original set *****
 -------------------------------------------------------------------
 Center     Atomic                   Forces (Hartrees/Bohr)
 Number     Number              X              Y              Z
 -------------------------------------------------------------------
      1        6           0.003543198   -0.000259867   -0.000988417
      2        6          -0.001534779   -0.001431647   -0.000712133
      3        6           0.003531670   -0.000538231   -0.000644513
      4        6          -0.003855760   -0.010301264   -0.006339062
      5        7           0.010574608    0.011561502    0.006524059
      6        7          -0.003987720    0.007916344    0.006627766
      7        6          -0.010278621   -0.012830442   -0.004819923
      8        6          -0.011415425   -0.002190315    0.003221137
      9        6           0.008019150   -0.009248236    0.000752777
     10        6          -0.000480224    0.004533700   -0.000362808
     11        6          -0.017107668    0.001547195    0.004234253
     12       53           0.011961813   -0.001182424   -0.002995519
     13        6          -0.000708631   -0.006500246    0.001505938
     14        6           0.001042733    0.003674469   -0.002662103
     15        9           0.005305181    0.011710214   -0.003191449
     16        6          -0.010375231    0.000842818    0.001741308
     17        6           0.012123304   -0.003926612   -0.005933268
     18        1          -0.002855094    0.000890375   -0.001543034
     19        1           0.001499382   -0.001688961    0.000097351
     20        1           0.001158391    0.003343374    0.001706648
     21        1           0.005278530   -0.002001481   -0.002412050
     22        1           0.001286223    0.002954391    0.002307652
     23        1          -0.002240933   -0.001577258    0.001925882
     24        1           0.001139279   -0.000190314   -0.002039799
     25        1          -0.002822004    0.001800230    0.000080505
     26        1           0.000053502    0.002584264   -0.000659967
     27        1          -0.000822613   -0.003938034    0.001126357
     28        1           0.003623036    0.001894591    0.001240788
     29        1          -0.001655296    0.002551863    0.002211625
 -------------------------------------------------------------------
 Cartesian Forces:  Max     0.017107668 RMS     0.005253860

 GradGradGradGradGradGradGradGradGradGradGradGradGradGradGradGradGradGrad
 Berny optimization.
 FormGI is forming the generalized inverse of G from B-inverse, IUseBI=4.
 Internal  Forces:  Max     0.016331718 RMS     0.003686708
 Search for a local minimum.
 Step number   1 out of a maximum of  159
 All quantities printed in internal units (Hartrees-Bohrs-Radians)
 Mixed Optimization -- RFO/linear search
 Second derivative matrix not updated -- first step.
 ITU=  0
     Eigenvalues ---    0.00238   0.00238   0.00394   0.00888   0.01344
     Eigenvalues ---    0.01669   0.01678   0.02035   0.02076   0.02103
     Eigenvalues ---    0.02119   0.02128   0.02139   0.02139   0.02148
     Eigenvalues ---    0.02163   0.02171   0.02177   0.02183   0.02192
     Eigenvalues ---    0.03513   0.04847   0.05323   0.05325   0.05412
     Eigenvalues ---    0.05414   0.05659   0.14347   0.15998   0.15999
     Eigenvalues ---    0.16000   0.16000   0.16000   0.16000   0.16000
     Eigenvalues ---    0.16000   0.16000   0.16000   0.16000   0.17182
     Eigenvalues ---    0.18474   0.22371   0.22474   0.23490   0.24488
     Eigenvalues ---    0.24606   0.24996   0.25000   0.25000   0.25000
     Eigenvalues ---    0.25000   0.25000   0.28524   0.28529   0.29600
     Eigenvalues ---    0.33362   0.34388   0.34688   0.34701   0.34754
     Eigenvalues ---    0.34757   0.34776   0.34783   0.35941   0.35945
     Eigenvalues ---    0.36042   0.36051   0.36109   0.41782   0.41983
     Eigenvalues ---    0.43296   0.44159   0.45194   0.46119   0.46168
     Eigenvalues ---    0.46508   0.46859   0.50746   0.51776   0.54262
     Eigenvalues ---    0.55220
 RFO step:  Lambda=-6.56464052D-03 EMin= 2.37637024D-03
 Linear search not attempted -- first point.
 Iteration  1 RMS(Cart)=  0.03869927 RMS(Int)=  0.00034363
 Iteration  2 RMS(Cart)=  0.00057027 RMS(Int)=  0.00008026
 Iteration  3 RMS(Cart)=  0.00000019 RMS(Int)=  0.00008026
 Variable       Old X    -DE/DX   Delta X   Delta X   Delta X     New X
                                 (Linear)    (Quad)   (Total)
    R1        2.91006  -0.00174   0.00000  -0.00597  -0.00597   2.90410
    R2        2.06077   0.00249   0.00000   0.00703   0.00703   2.06780
    R3        2.06184   0.00209   0.00000   0.00593   0.00593   2.06776
    R4        2.06040   0.00388   0.00000   0.01096   0.01096   2.07136
    R5        2.90995  -0.00173   0.00000  -0.00593  -0.00593   2.90402
    R6        2.88768  -0.01102   0.00000  -0.03643  -0.03643   2.85124
    R7        2.06680   0.00080   0.00000   0.00227   0.00227   2.06907
    R8        2.06029   0.00392   0.00000   0.01107   0.01107   2.07136
    R9        2.06072   0.00250   0.00000   0.00707   0.00707   2.06779
   R10        2.06164   0.00219   0.00000   0.00621   0.00621   2.06785
   R11        2.57168  -0.01482   0.00000  -0.02837  -0.02838   2.54330
   R12        2.64051  -0.00059   0.00000  -0.00058  -0.00058   2.63993
   R13        2.53945  -0.01633   0.00000  -0.02984  -0.02985   2.50960
   R14        2.57645  -0.01542   0.00000  -0.02980  -0.02979   2.54666
   R15        2.81721  -0.00723   0.00000  -0.02126  -0.02126   2.79595
   R16        2.64475  -0.00127   0.00000  -0.00204  -0.00203   2.64271
   R17        2.65091  -0.00227   0.00000  -0.00577  -0.00577   2.64514
   R18        2.66010  -0.00801   0.00000  -0.01885  -0.01881   2.64129
   R19        2.63641  -0.00192   0.00000  -0.00387  -0.00391   2.63250
   R20        2.04168   0.00289   0.00000   0.00790   0.00790   2.04958
   R21        2.63083   0.00317   0.00000   0.00768   0.00764   2.63847
   R22        2.04175   0.00233   0.00000   0.00637   0.00637   2.04811
   R23        3.94979   0.01238   0.00000   0.08252   0.08252   4.03231
   R24        2.63103   0.00189   0.00000   0.00476   0.00476   2.63579
   R25        2.63483  -0.00549   0.00000  -0.01183  -0.01179   2.62304
   R26        2.03912   0.00314   0.00000   0.00855   0.00855   2.04767
   R27        2.55794  -0.01318   0.00000  -0.02400  -0.02400   2.53394
   R28        2.63434  -0.01227   0.00000  -0.02451  -0.02450   2.60984
   R29        2.04016   0.00402   0.00000   0.01095   0.01095   2.05111
   R30        2.04002   0.00375   0.00000   0.01022   0.01022   2.05024
    A1        1.94194  -0.00269   0.00000  -0.01751  -0.01756   1.92438
    A2        1.93820  -0.00035   0.00000   0.00025   0.00026   1.93846
    A3        1.95154  -0.00024   0.00000  -0.00240  -0.00245   1.94909
    A4        1.87375   0.00182   0.00000   0.01281   0.01282   1.88656
    A5        1.87735   0.00106   0.00000   0.00203   0.00194   1.87929
    A6        1.87756   0.00061   0.00000   0.00620   0.00620   1.88376
    A7        1.95090  -0.00097   0.00000  -0.00448  -0.00493   1.94597
    A8        1.95156  -0.00018   0.00000  -0.01294  -0.01305   1.93851
    A9        1.86174   0.00185   0.00000   0.03279   0.03241   1.89415
   A10        1.95217  -0.00015   0.00000  -0.01275  -0.01287   1.93930
   A11        1.86230   0.00182   0.00000   0.03254   0.03216   1.89446
   A12        1.87901  -0.00222   0.00000  -0.03165  -0.03129   1.84773
   A13        1.95142  -0.00023   0.00000  -0.00235  -0.00239   1.94902
   A14        1.94151  -0.00264   0.00000  -0.01715  -0.01720   1.92431
   A15        1.93837  -0.00032   0.00000   0.00035   0.00036   1.93873
   A16        1.87717   0.00104   0.00000   0.00201   0.00193   1.87910
   A17        1.87809   0.00058   0.00000   0.00587   0.00587   1.88396
   A18        1.87381   0.00179   0.00000   0.01260   0.01260   1.88641
   A19        2.03129  -0.00252   0.00000  -0.01027  -0.01026   2.02103
   A20        2.12800   0.00149   0.00000   0.00539   0.00540   2.13339
   A21        2.12389   0.00103   0.00000   0.00488   0.00486   2.12875
   A22        2.09602   0.00290   0.00000   0.00667   0.00664   2.10266
   A23        2.10415  -0.00190   0.00000  -0.01205  -0.01206   2.09209
   A24        2.03834  -0.00217   0.00000  -0.00889  -0.00891   2.02943
   A25        2.11337   0.00493   0.00000   0.02002   0.02002   2.13339
   A26        2.13145  -0.00276   0.00000  -0.01118  -0.01120   2.12025
   A27        2.08766   0.00424   0.00000   0.01798   0.01796   2.10562
   A28        2.13144  -0.00077   0.00000  -0.00154  -0.00156   2.12988
   A29        2.06407  -0.00346   0.00000  -0.01645  -0.01641   2.04766
   A30        2.11222   0.00305   0.00000   0.01278   0.01274   2.12496
   A31        2.09318  -0.00323   0.00000  -0.01665  -0.01663   2.07655
   A32        2.07765   0.00017   0.00000   0.00379   0.00380   2.08145
   A33        2.09395  -0.00378   0.00000  -0.01351  -0.01358   2.08037
   A34        2.09856   0.00057   0.00000  -0.00116  -0.00112   2.09744
   A35        2.09067   0.00321   0.00000   0.01465   0.01469   2.10536
   A36        2.09561  -0.00007   0.00000  -0.00223  -0.00222   2.09339
   A37        2.09137   0.00182   0.00000   0.01097   0.01094   2.10231
   A38        2.09621  -0.00174   0.00000  -0.00873  -0.00872   2.08749
   A39        2.10006  -0.00574   0.00000  -0.02354  -0.02349   2.07657
   A40        2.09783   0.00567   0.00000   0.02858   0.02856   2.12639
   A41        2.08530   0.00007   0.00000  -0.00506  -0.00508   2.08022
   A42        2.10470   0.00811   0.00000   0.02975   0.02979   2.13448
   A43        2.11340  -0.00553   0.00000  -0.02073  -0.02081   2.09259
   A44        2.06497  -0.00259   0.00000  -0.00925  -0.00934   2.05563
   A45        2.06783  -0.00458   0.00000  -0.01461  -0.01458   2.05325
   A46        2.11342   0.00087   0.00000  -0.00123  -0.00124   2.11218
   A47        2.10185   0.00371   0.00000   0.01584   0.01583   2.11768
   A48        2.06111  -0.00239   0.00000  -0.00490  -0.00490   2.05621
   A49        2.11269   0.00092   0.00000   0.00081   0.00080   2.11349
   A50        2.10938   0.00146   0.00000   0.00406   0.00404   2.11342
    D1        1.03961   0.00088   0.00000   0.01297   0.01304   1.05266
    D2       -3.03966  -0.00023   0.00000  -0.01780  -0.01770  -3.05736
    D3       -0.98979  -0.00189   0.00000  -0.04318  -0.04329  -1.03308
    D4        3.12573   0.00116   0.00000   0.01769   0.01774  -3.13972
    D5       -0.95355   0.00006   0.00000  -0.01308  -0.01300  -0.96655
    D6        1.09633  -0.00160   0.00000  -0.03846  -0.03859   1.05774
    D7       -1.06008   0.00154   0.00000   0.02413   0.02415  -1.03593
    D8        1.14383   0.00044   0.00000  -0.00665  -0.00659   1.13724
    D9       -3.08948  -0.00122   0.00000  -0.03202  -0.03218  -3.12166
   D10        1.05985  -0.00155   0.00000  -0.02399  -0.02402   1.03583
   D11       -1.03924  -0.00089   0.00000  -0.01311  -0.01319  -1.05242
   D12       -3.12525  -0.00118   0.00000  -0.01787  -0.01792   3.14001
   D13       -1.14373  -0.00042   0.00000   0.00689   0.00683  -1.13689
   D14        3.04038   0.00023   0.00000   0.01777   0.01766   3.05804
   D15        0.95436  -0.00005   0.00000   0.01301   0.01293   0.96729
   D16        3.08891   0.00124   0.00000   0.03232   0.03247   3.12138
   D17        0.98983   0.00189   0.00000   0.04319   0.04330   1.03313
   D18       -1.09619   0.00160   0.00000   0.03843   0.03857  -1.05763
   D19        2.03550   0.00077   0.00000   0.01256   0.01257   2.04807
   D20       -1.10294   0.00077   0.00000   0.01260   0.01259  -1.09035
   D21       -2.04447  -0.00078   0.00000  -0.01372  -0.01371  -2.05818
   D22        1.10027  -0.00078   0.00000  -0.01368  -0.01369   1.08658
   D23       -0.00397  -0.00001   0.00000  -0.00070  -0.00069  -0.00466
   D24        3.14077  -0.00001   0.00000  -0.00066  -0.00067   3.14010
   D25       -3.13817  -0.00005   0.00000  -0.00189  -0.00194  -3.14011
   D26        0.00028  -0.00005   0.00000  -0.00194  -0.00197  -0.00169
   D27        3.13954  -0.00015   0.00000  -0.00531  -0.00534   3.13420
   D28        0.00254   0.00007   0.00000   0.00247   0.00243   0.00497
   D29        0.00126  -0.00014   0.00000  -0.00524  -0.00528  -0.00402
   D30       -3.13574   0.00008   0.00000   0.00255   0.00249  -3.13325
   D31       -0.00175   0.00016   0.00000   0.00604   0.00606   0.00431
   D32       -3.13319   0.00016   0.00000   0.00623   0.00627  -3.12692
   D33        0.00165  -0.00006   0.00000  -0.00284  -0.00286  -0.00122
   D34        2.34734   0.00043   0.00000   0.02873   0.02880   2.37615
   D35       -0.79818   0.00035   0.00000   0.02538   0.02542  -0.77275
   D36       -0.78742   0.00063   0.00000   0.03778   0.03773  -0.74968
   D37        2.35025   0.00054   0.00000   0.03442   0.03435   2.38460
   D38       -0.00007  -0.00013   0.00000  -0.00440  -0.00438  -0.00445
   D39        3.12810  -0.00012   0.00000  -0.00396  -0.00397   3.12413
   D40        3.13440  -0.00037   0.00000  -0.01395  -0.01397   3.12044
   D41       -0.02062  -0.00035   0.00000  -0.01350  -0.01356  -0.03417
   D42       -3.14058  -0.00007   0.00000  -0.00260  -0.00256   3.14005
   D43       -0.01650  -0.00019   0.00000  -0.00776  -0.00772  -0.02422
   D44        0.00479   0.00000   0.00000   0.00060   0.00064   0.00543
   D45        3.12887  -0.00012   0.00000  -0.00456  -0.00452   3.12435
   D46        3.14094   0.00014   0.00000   0.00568   0.00569  -3.13656
   D47       -0.01759  -0.00031   0.00000  -0.01159  -0.01154  -0.02913
   D48       -0.00453   0.00008   0.00000   0.00245   0.00249  -0.00205
   D49        3.12013  -0.00038   0.00000  -0.01483  -0.01474   3.10538
   D50       -0.00244  -0.00005   0.00000  -0.00156  -0.00157  -0.00401
   D51        3.13459  -0.00013   0.00000  -0.00456  -0.00458   3.13000
   D52       -3.12667   0.00011   0.00000   0.00376   0.00380  -3.12287
   D53        0.01036   0.00003   0.00000   0.00075   0.00079   0.01115
   D54       -3.14112  -0.00001   0.00000  -0.00038  -0.00041  -3.14152
   D55       -0.00028  -0.00002   0.00000  -0.00063  -0.00066  -0.00094
   D56        0.00502   0.00008   0.00000   0.00265   0.00266   0.00768
   D57       -3.13733   0.00007   0.00000   0.00240   0.00241  -3.13492
   D58        0.00052   0.00011   0.00000   0.00371   0.00368   0.00419
   D59       -3.13755   0.00018   0.00000   0.00617   0.00619  -3.13136
   D60        3.14136   0.00010   0.00000   0.00346   0.00343  -3.13840
   D61        0.00329   0.00017   0.00000   0.00592   0.00594   0.00923
   D62        0.00194  -0.00013   0.00000  -0.00461  -0.00462  -0.00268
   D63       -3.12318   0.00035   0.00000   0.01232   0.01238  -3.11080
   D64        3.14003  -0.00019   0.00000  -0.00698  -0.00700   3.13303
   D65        0.01491   0.00028   0.00000   0.00994   0.01000   0.02492
   D66       -0.00134   0.00023   0.00000   0.00818   0.00812   0.00679
   D67        3.13568   0.00001   0.00000   0.00040   0.00034   3.13602
   D68       -3.12959   0.00024   0.00000   0.00788   0.00785  -3.12174
   D69        0.00743   0.00002   0.00000   0.00010   0.00006   0.00749
         Item               Value     Threshold  Converged?
 Maximum Force            0.016332     0.000450     NO 
 RMS     Force            0.003687     0.000300     NO 
 Maximum Displacement     0.149263     0.001800     NO 
 RMS     Displacement     0.038938     0.001200     NO 
 Predicted change in Energy=-3.426475D-03
 GradGradGradGradGradGradGradGradGradGradGradGradGradGradGradGradGradGrad

                          Input orientation:                          
 ---------------------------------------------------------------------
 Center     Atomic      Atomic             Coordinates (Angstroms)
 Number     Number       Type             X           Y           Z
 ---------------------------------------------------------------------
      1          6           0       -3.665853    0.001246    2.004981
      2          6           0       -3.349410    0.188704    0.512861
      3          6           0       -4.044305    1.434859   -0.057919
      4          6           0       -1.860117    0.240724    0.276619
      5          7           0       -1.354251   -0.741946   -0.491357
      6          7           0       -0.053975   -0.786875   -0.757653
      7          6           0        0.767491    0.154358   -0.252285
      8          6           0        2.197286    0.039035   -0.614863
      9          6           0        2.930652    1.169488   -0.993742
     10          6           0        4.278058    1.087748   -1.337881
     11          6           0        4.916643   -0.153293   -1.299826
     12         53           0        6.979916   -0.305845   -1.822086
     13          6           0        4.215336   -1.297870   -0.920910
     14          6           0        2.872705   -1.184345   -0.587518
     15          9           0        2.231046   -2.293351   -0.192044
     16          6           0        0.300448    1.196757    0.554547
     17          6           0       -1.053609    1.242296    0.822500
     18          1           0       -4.743395   -0.120415    2.151409
     19          1           0       -3.166267   -0.886519    2.404467
     20          1           0       -3.344756    0.864988    2.598542
     21          1           0       -3.708413   -0.690503   -0.032051
     22          1           0       -3.735869    2.346391    0.466911
     23          1           0       -5.129875    1.343737    0.044859
     24          1           0       -3.813207    1.562704   -1.119826
     25          1           0        2.429099    2.130040   -1.039825
     26          1           0        4.818671    1.977934   -1.637820
     27          1           0        4.690914   -2.270406   -0.874589
     28          1           0        0.982096    1.935306    0.964419
     29          1           0       -1.475358    2.023554    1.446084
 ---------------------------------------------------------------------
                    Distance matrix (angstroms):
                    1          2          3          4          5
     1  C    0.000000
     2  C    1.536782   0.000000
     3  C    2.540478   1.536740   0.000000
     4  C    2.511029   1.508812   2.511683   0.000000
     5  N    3.482462   2.419757   3.487512   1.345855   0.000000
     6  N    4.615077   3.664130   4.620439   2.321169   1.328024
     7  C    4.977271   4.187542   4.983055   2.681701   2.315665
     8  C    6.421947   5.662155   6.419966   4.159078   3.638488
     9  C    7.339687   6.532303   7.042458   5.042607   4.718725
    10  C    8.686825   7.900114   8.427366   6.403221   5.982247
    11  C    9.198090   8.469382   9.184941   6.968852   6.350137
    12  I   11.316941  10.601488  11.299371   9.102169   8.450998
[...]
 Alpha virt. eigenvalues --    2.74090   2.74599   2.76737   2.77017   2.77868
 Alpha virt. eigenvalues --    2.78928   2.79966   2.80912   2.82147   2.83575
 Alpha virt. eigenvalues --    2.84130   2.84281   2.84960   2.86613   2.87450
 Alpha virt. eigenvalues --    2.87958   2.88675   2.90460   2.91087   2.92357
 Alpha virt. eigenvalues --    2.93180   2.95329   2.97065   2.98068   2.98249
 Alpha virt. eigenvalues --    3.00287   3.01350   3.01988   3.03151   3.04784
 Alpha virt. eigenvalues --    3.05051   3.06338   3.07205   3.08496   3.10220
 Alpha virt. eigenvalues --    3.11041   3.11746   3.12473   3.12714   3.13987
 Alpha virt. eigenvalues --    3.14524   3.14696   3.15447   3.15868   3.16589
 Alpha virt. eigenvalues --    3.17610   3.18833   3.19609   3.20577   3.21442
 Alpha virt. eigenvalues --    3.22740   3.23553   3.24922   3.25041   3.27078
 Alpha virt. eigenvalues --    3.27772   3.28266   3.29324   3.30607   3.31694
 Alpha virt. eigenvalues --    3.32344   3.33519   3.33739   3.34223   3.35061
 Alpha virt. eigenvalues --    3.36162   3.36505   3.37414   3.38268   3.39001
 Alpha virt. eigenvalues --    3.40107   3.40714   3.41667   3.42494   3.42917
 Alpha virt. eigenvalues --    3.45672   3.46598   3.48066   3.48847   3.49684
 Alpha virt. eigenvalues --    3.50711   3.51516   3.52841   3.53297   3.53888
 Alpha virt. eigenvalues --    3.55289   3.56609   3.57645   3.57781   3.59056
 Alpha virt. eigenvalues --    3.59757   3.60929   3.62037   3.63982   3.65759
 Alpha virt. eigenvalues --    3.66242   3.66515   3.71115   3.71872   3.73291
 Alpha virt. eigenvalues --    3.75846   3.77599   3.79282   3.80423   3.81807
 Alpha virt. eigenvalues --    3.84716   3.85714   3.87806   3.89741   3.91058
 Alpha virt. eigenvalues --    3.93733   3.94412   3.95663   3.97227   3.98174
 Alpha virt. eigenvalues --    3.98690   4.00052   4.00732   4.02985   4.03631
 Alpha virt. eigenvalues --    4.04974   4.06107   4.08289   4.10689   4.11659
 Alpha virt. eigenvalues --    4.13320   4.14535   4.15514   4.15835   4.16436
 Alpha virt. eigenvalues --    4.17445   4.18161   4.19192   4.23149   4.24541
 Alpha virt. eigenvalues --    4.27009   4.27726   4.29106   4.30828   4.32170
 Alpha virt. eigenvalues --    4.34144   4.34851   4.35965   4.38966   4.41366
 Alpha virt. eigenvalues --    4.41824   4.42767   4.47846   4.49501   4.51927
 Alpha virt. eigenvalues --    4.54511   4.57381   4.58621   4.59976   4.61734
 Alpha virt. eigenvalues --    4.63489   4.64493   4.66330   4.66809   4.70837
 Alpha virt. eigenvalues --    4.72519   4.75430   4.77081   4.77734   4.81834
 Alpha virt. eigenvalues --    4.83636   4.86473   4.87577   4.91283   4.92537
 Alpha virt. eigenvalues --    4.97798   5.00377   5.02842   5.03386   5.04567
 Alpha virt. eigenvalues --    5.06471   5.09534   5.12630   5.15391   5.18791
 Alpha virt. eigenvalues --    5.23874   5.28109   5.30604   5.35924   5.39048
 Alpha virt. eigenvalues --    5.45973   5.55527   5.60668   5.63395   5.67864
 Alpha virt. eigenvalues --    5.69070   5.73883   5.92915   6.38499   6.91420
 Alpha virt. eigenvalues --    6.92411   7.01733   7.03588   7.10670   7.25814
 Alpha virt. eigenvalues --    7.42192   7.58108   8.38411   8.55640   8.76859
 Alpha virt. eigenvalues --    8.98534   9.01267  15.25503  22.15038  22.45362
 Alpha virt. eigenvalues --   22.45761  22.56199  22.62889  22.66277  22.70642
 Alpha virt. eigenvalues --   22.84019  22.90107  22.92146  22.99934  23.29612
 Alpha virt. eigenvalues --   23.48688  32.42128  32.62075  57.53695
          Condensed to atoms (all electrons):
               1          2          3          4          5          6
     1  C    5.104150   0.244774  -0.077209  -0.006998   0.000562  -0.000673
     2  C    0.244774   5.444213   0.242813   0.117113  -0.069536   0.015486
     3  C   -0.077209   0.242813   5.107471  -0.006293   0.000855  -0.000718
     4  C   -0.006998   0.117113  -0.006293   5.108930   0.525040  -0.065109
     5  N    0.000562  -0.069536   0.000855   0.525040   6.558439   0.244064
     6  N   -0.000673   0.015486  -0.000718  -0.065109   0.244064   6.614734
     7  C   -0.000429  -0.014048  -0.000646  -0.075351  -0.063991   0.481603
     8  C    0.000023  -0.001247  -0.000013  -0.007385   0.005766  -0.062576
     9  C   -0.000002   0.000017  -0.000003  -0.000728  -0.000530  -0.001361
    10  C   -0.000000   0.000001   0.000000   0.000101   0.000010   0.000550
    11  C    0.000000  -0.000001   0.000000  -0.000050   0.000007  -0.000500
    12  I    0.000000  -0.000000   0.000000  -0.000002   0.000001  -0.000018
    13  C    0.000000   0.000000  -0.000000   0.000092  -0.000015  -0.000057
    14  C   -0.000004   0.000006   0.000004   0.000673   0.000908   0.009143
    15  F   -0.000000   0.000002  -0.000000  -0.000119  -0.000208  -0.013689
    16  C    0.004279   0.026520   0.005131   0.022471  -0.011176  -0.065311
    17  C   -0.015030  -0.113160  -0.016329   0.361518  -0.081591  -0.026281
    18  H    0.417303  -0.056427  -0.000417   0.016907  -0.000305   0.000013
    19  H    0.417471  -0.056393   0.010798   0.008736   0.001231  -0.000117
    20  H    0.392709   0.009988  -0.013901  -0.030893   0.000644   0.000047
    21  H   -0.043256   0.491037  -0.043541  -0.108483   0.021484  -0.000783
    22  H   -0.013998   0.011400   0.391653  -0.032208   0.000646   0.000057
    23  H   -0.000255  -0.056261   0.417127   0.016838  -0.000322   0.000010
    24  H    0.010779  -0.057265   0.417461   0.009384   0.001209  -0.000121
    25  H   -0.000000   0.000003  -0.000000  -0.000015  -0.000049   0.000327
    26  H   -0.000000   0.000000  -0.000000   0.000002  -0.000000   0.000020
    27  H   -0.000000   0.000000  -0.000000   0.000002  -0.000001   0.000070
    28  H    0.000022   0.000276   0.000039  -0.002244  -0.000547   0.004487
    29  H   -0.004984   0.008778  -0.005417  -0.002589   0.004894  -0.000468
               7          8          9         10         11         12
     1  C   -0.000429   0.000023  -0.000002  -0.000000   0.000000   0.000000
     2  C   -0.014048  -0.001247   0.000017   0.000001  -0.000001  -0.000000
     3  C   -0.000646  -0.000013  -0.000003   0.000000   0.000000   0.000000
     4  C   -0.075351  -0.007385  -0.000728   0.000101  -0.000050  -0.000002
     5  N   -0.063991   0.005766  -0.000530   0.000010   0.000007   0.000001
     6  N    0.481603  -0.062576  -0.001361   0.000550  -0.000500  -0.000018
     7  C    5.071630   0.227735  -0.099767   0.028769  -0.020054  -0.000367
     8  C    0.227735   5.461276   0.222302   0.150195  -0.235263  -0.013997
     9  C   -0.099767   0.222302   5.445416   0.016602   0.331755   0.045234
    10  C    0.028769   0.150195   0.016602   5.664539  -0.129881  -0.177984
    11  C   -0.020054  -0.235263   0.331755  -0.129881   6.033007   0.435403
    12  I   -0.000367  -0.013997   0.045234  -0.177984   0.435403   6.804619
    13  C    0.023677   0.156162  -0.256070   0.283013  -0.205301  -0.174576
    14  C   -0.110100   0.241881   0.142816  -0.226081   0.314756   0.041818
    15  F    0.020581  -0.085528   0.009131  -0.000324   0.009269  -0.000216
    16  C    0.365736  -0.055342  -0.014685   0.002125  -0.000229   0.000010
    17  C    0.028897   0.014289   0.005578  -0.000270   0.000043   0.000006
    18  H    0.000053   0.000001   0.000000   0.000000  -0.000000  -0.000000
    19  H    0.000111   0.000002   0.000000   0.000000  -0.000000  -0.000000
    20  H   -0.000744  -0.000020  -0.000001  -0.000000   0.000000   0.000000
    21  H   -0.000188  -0.000058   0.000003  -0.000000   0.000000  -0.000000
    22  H   -0.000617  -0.000022   0.000002  -0.000000   0.000000   0.000000
    23  H    0.000047   0.000001   0.000000   0.000000  -0.000000  -0.000000
    24  H    0.000113   0.000015  -0.000001  -0.000000  -0.000000  -0.000000
    25  H    0.009856  -0.037097   0.399655  -0.022303   0.002839  -0.000172
    26  H    0.001087   0.013662  -0.053191   0.446218  -0.085269  -0.022091
    27  H    0.001051   0.026476  -0.010810   0.026153  -0.096019  -0.023280
    28  H    0.002581  -0.003113  -0.000010   0.001317  -0.000302  -0.000020
    29  H   -0.000992   0.000032  -0.000078   0.000005  -0.000001  -0.000000
              13         14         15         16         17         18
     1  C    0.000000  -0.000004  -0.000000   0.004279  -0.015030   0.417303
     2  C    0.000000   0.000006   0.000002   0.026520  -0.113160  -0.056427
     3  C   -0.000000   0.000004  -0.000000   0.005131  -0.016329  -0.000417
     4  C    0.000092   0.000673  -0.000119   0.022471   0.361518   0.016907
     5  N   -0.000015   0.000908  -0.000208  -0.011176  -0.081591  -0.000305
     6  N   -0.000057   0.009143  -0.013689  -0.065311  -0.026281   0.000013
     7  C    0.023677  -0.110100   0.020581   0.365736   0.028897   0.000053
     8  C    0.156162   0.241881  -0.085528  -0.055342   0.014289   0.000001
     9  C   -0.256070   0.142816   0.009131  -0.014685   0.005578   0.000000
    10  C    0.283013  -0.226081  -0.000324   0.002125  -0.000270   0.000000
    11  C   -0.205301   0.314756   0.009269  -0.000229   0.000043  -0.000000
    12  I   -0.174576   0.041818  -0.000216   0.000010   0.000006  -0.000000
    13  C    5.795988   0.065571  -0.052417  -0.000828  -0.000052   0.000000
    14  C    0.065571   5.024320   0.286280   0.012065  -0.002885  -0.000000
    15  F   -0.052417   0.286280   9.003146  -0.001673   0.000331   0.000000
    16  C   -0.000828   0.012065  -0.001673   5.245856   0.308489  -0.000188
    17  C   -0.000052  -0.002885   0.000331   0.308489   5.362288   0.001240
    18  H    0.000000  -0.000000   0.000000  -0.000188   0.001240   0.522103
    19  H    0.000000   0.000001  -0.000000  -0.000321  -0.001855  -0.019393
    20  H   -0.000000   0.000001  -0.000000   0.003014  -0.004666  -0.026989
    21  H   -0.000000  -0.000004   0.000000   0.000303   0.009953  -0.004802
    22  H   -0.000000  -0.000000   0.000000   0.002357  -0.003564  -0.000126
    23  H    0.000000  -0.000000  -0.000000  -0.000164   0.001292   0.000978
    24  H    0.000000  -0.000000  -0.000000  -0.000381  -0.002035  -0.000239
    25  H    0.002389  -0.003276  -0.000053  -0.001234   0.000375   0.000000
    26  H    0.022543  -0.006347   0.000012   0.000002  -0.000005  -0.000000
    27  H    0.449060  -0.061098   0.002679   0.000019  -0.000001   0.000000
    28  H    0.000092  -0.000027  -0.000009   0.367819  -0.017732  -0.000002
    29  H   -0.000000   0.000023  -0.000000  -0.009423   0.358518   0.000179
              19         20         21         22         23         24
     1  C    0.417471   0.392709  -0.043256  -0.013998  -0.000255   0.010779
     2  C   -0.056393   0.009988   0.491037   0.011400  -0.056261  -0.057265
     3  C    0.010798  -0.013901  -0.043541   0.391653   0.417127   0.417461
     4  C    0.008736  -0.030893  -0.108483  -0.032208   0.016838   0.009384
     5  N    0.001231   0.000644   0.021484   0.000646  -0.000322   0.001209
     6  N   -0.000117   0.000047  -0.000783   0.000057   0.000010  -0.000121
     7  C    0.000111  -0.000744  -0.000188  -0.000617   0.000047   0.000113
     8  C    0.000002  -0.000020  -0.000058  -0.000022   0.000001   0.000015
     9  C    0.000000  -0.000001   0.000003   0.000002   0.000000  -0.000001
    10  C    0.000000  -0.000000  -0.000000  -0.000000   0.000000  -0.000000
    11  C   -0.000000   0.000000   0.000000   0.000000  -0.000000  -0.000000
    12  I   -0.000000   0.000000  -0.000000   0.000000  -0.000000  -0.000000
    13  C    0.000000  -0.000000  -0.000000  -0.000000   0.000000   0.000000
    14  C    0.000001   0.000001  -0.000004  -0.000000  -0.000000  -0.000000
    15  F   -0.000000  -0.000000   0.000000   0.000000  -0.000000  -0.000000
    16  C   -0.000321   0.003014   0.000303   0.002357  -0.000164  -0.000381
    17  C   -0.001855  -0.004666   0.009953  -0.003564   0.001292  -0.002035
    18  H   -0.019393  -0.026989  -0.004802  -0.000126   0.000978  -0.000239
    19  H    0.507570  -0.024876  -0.003445  -0.000172  -0.000244  -0.000339
    20  H   -0.024876   0.551739   0.006767   0.005219  -0.000146  -0.000166
    21  H   -0.003445   0.006767   0.523639   0.006820  -0.004849  -0.003438
    22  H   -0.000172   0.005219   0.006820   0.552334  -0.026951  -0.025140
    23  H   -0.000244  -0.000146  -0.004849  -0.026951   0.521760  -0.019406
    24  H   -0.000339  -0.000166  -0.003438  -0.025140  -0.019406   0.509610
    25  H    0.000000  -0.000000  -0.000000  -0.000001   0.000000   0.000000
    26  H    0.000000  -0.000000  -0.000000  -0.000000   0.000000   0.000000
    27  H    0.000000  -0.000000  -0.000000  -0.000000   0.000000   0.000000
    28  H    0.000005   0.000046   0.000037   0.000032  -0.000002   0.000005
    29  H    0.000222  -0.002082  -0.000746  -0.001835   0.000213   0.000210
              25         26         27         28         29
     1  C   -0.000000  -0.000000  -0.000000   0.000022  -0.004984
     2  C    0.000003   0.000000   0.000000   0.000276   0.008778
     3  C   -0.000000  -0.000000  -0.000000   0.000039  -0.005417
     4  C   -0.000015   0.000002   0.000002  -0.002244  -0.002589
     5  N   -0.000049  -0.000000  -0.000001  -0.000547   0.004894
     6  N    0.000327   0.000020   0.000070   0.004487  -0.000468
     7  C    0.009856   0.001087   0.001051   0.002581  -0.000992
     8  C   -0.037097   0.013662   0.026476  -0.003113   0.000032
     9  C    0.399655  -0.053191  -0.010810  -0.000010  -0.000078
    10  C   -0.022303   0.446218   0.026153   0.001317   0.000005
    11  C    0.002839  -0.085269  -0.096019  -0.000302  -0.000001
    12  I   -0.000172  -0.022091  -0.023280  -0.000020  -0.000000
    13  C    0.002389   0.022543   0.449060   0.000092  -0.000000
    14  C   -0.003276  -0.006347  -0.061098  -0.000027   0.000023
    15  F   -0.000053   0.000012   0.002679  -0.000009  -0.000000
    16  C   -0.001234   0.000002   0.000019   0.367819  -0.009423
    17  C    0.000375  -0.000005  -0.000001  -0.017732   0.358518
    18  H    0.000000  -0.000000   0.000000  -0.000002   0.000179
    19  H    0.000000   0.000000   0.000000   0.000005   0.000222
    20  H   -0.000000  -0.000000  -0.000000   0.000046  -0.002082
    21  H   -0.000000  -0.000000  -0.000000   0.000037  -0.000746
    22  H   -0.000001  -0.000000  -0.000000   0.000032  -0.001835
    23  H    0.000000   0.000000   0.000000  -0.000002   0.000213
    24  H    0.000000   0.000000   0.000000   0.000005   0.000210
    25  H    0.475311  -0.002714   0.000034  -0.001949   0.000008
    26  H   -0.002714   0.498161   0.000452   0.000062   0.000000
    27  H    0.000034   0.000452   0.490418   0.000004   0.000000
    28  H   -0.001949   0.000062   0.000004   0.472586  -0.003260
    29  H    0.000008   0.000000   0.000000  -0.003260   0.479667
 Mulliken charges:
               1
     1  C   -0.429234
     2  C   -0.188093
     3  C   -0.428864
     4  C    0.150659
     5  N   -0.137492
     6  N   -0.132830
     7  C    0.123769
     8  C   -0.018156
     9  C   -0.181273
    10  C   -0.062753
    11  C   -0.354208
    12  I    0.085633
    13  C   -0.109271
    14  C    0.269556
    15  F   -0.177196
    16  C   -0.205238
    17  C   -0.167365
    18  H    0.150113
    19  H    0.161006
    20  H    0.134309
    21  H    0.153551
    22  H    0.134115
    23  H    0.150333
    24  H    0.159745
    25  H    0.178066
    26  H    0.187395
    27  H    0.194790
    28  H    0.179805
    29  H    0.179127
 Sum of Mulliken charges =  -0.00000
 Mulliken charges with hydrogens summed into heavy atoms:
               1
     1  C    0.016194
     2  C   -0.034542
     3  C    0.015330
     4  C    0.150659
     5  N   -0.137492
     6  N   -0.132830
     7  C    0.123769
     8  C   -0.018156
     9  C   -0.003208
    10  C    0.124642
    11  C   -0.354208
    12  I    0.085633
    13  C    0.085519
    14  C    0.269556
    15  F   -0.177196
    16  C   -0.025433
    17  C    0.011762
 Electronic spatial extent (au):  <R**2>=           7087.6571
 Charge=             -0.0000 electrons
 Dipole moment (field-independent basis, Debye):
    X=              1.7218    Y=             -3.8921    Z=              2.0625  Tot=              4.7294
 Quadrupole moment (field-independent basis, Debye-Ang):
   XX=            -98.5137   YY=           -112.7309   ZZ=           -117.7621
   XY=             -9.7375   XZ=              6.2192   YZ=              1.0443
 Traceless Quadrupole moment (field-independent basis, Debye-Ang):
   XX=             11.1552   YY=             -3.0620   ZZ=             -8.0932
   XY=             -9.7375   XZ=              6.2192   YZ=              1.0443
 Octapole moment (field-independent basis, Debye-Ang**2):
  XXX=           -212.7740  YYY=             -7.8650  ZZZ=              1.2271  XYY=           -117.9138
  XXY=            -18.2182  XXZ=             15.9664  XZZ=           -104.0343  YZZ=             -1.2853
  YYZ=              7.0728  XYZ=              0.6552
 Hexadecapole moment (field-independent basis, Debye-Ang**3):
 XXXX=          -9599.6530 YYYY=           -754.5864 ZZZZ=           -357.9182 XXXY=             -2.4381
 XXXZ=             29.1124 YYYX=             29.3154 YYYZ=              1.5626 ZZZX=              1.5686
 ZZZY=              4.0608 XXYY=          -1909.0133 XXZZ=          -1873.5563 YYZZ=           -188.0171
 XXYZ=              6.1604 YYXZ=             30.2540 ZZXY=             -2.9661
 N-N= 1.079963919026D+03 E-N=-3.839768170054D+03  KE= 7.115454344861D+02
 Unable to Open any file for archive entry.
 1\1\GINC-COMPUTE-0-27\SP\RM062X\Gen\C13H12F1I1N2\ZTAN64\14-Aug-2024\0\
 \# M062X gen pseudo=read int=(grid=ultrafine) nmr=giao guess=read geom
 =check\\pyrdz1.xyz\\0,1\C,0,-3.6799915748,0.0209055856,2.0135297661\C,
 0,-3.3569642798,0.1875624823,0.5197411743\C,0,-4.0551477168,1.42401335
 72,-0.0694545847\C,0,-1.8634290541,0.2349467965,0.2828377097\N,0,-1.35
 52911712,-0.754230781,-0.4672022909\N,0,-0.0538569604,-0.8030974389,-0
 .736557072\C,0,0.7702137542,0.1375490085,-0.2496273153\C,0,2.201255472
 5,0.0291935407,-0.6117412415\C,0,2.9392141478,1.1666194126,-0.96776708
 09\C,0,4.2863893733,1.0970745766,-1.3147197855\C,0,4.9176509518,-0.144
 9477515,-1.3025071109\I,0,6.9833614535,-0.2849298526,-1.8339925123\C,0
 ,4.2281341318,-1.3006520546,-0.9489557885\C,0,2.883580942,-1.194143786
 8,-0.610043171\F,0,2.2506572269,-2.3145394379,-0.2340860251\C,0,0.3024
 270413,1.1949318208,0.549240864\C,0,-1.0492065231,1.245909991,0.816002
 6535\H,0,-4.7602217665,-0.0731669485,2.1617035538\H,0,-3.1993378175,-0
 .8712888143,2.4247586259\H,0,-3.3405803177,0.886253259,2.5939203328\H,
 0,-3.7071491164,-0.7008296632,-0.0153875646\H,0,-3.7297408446,2.342583
 3228,0.4318410202\H,0,-5.1394623361,1.3456080752,0.0563229108\H,0,-3.8
 414720305,1.5278343958,-1.1370848754\H,0,2.4354533288,2.1276382088,-0.
 998028476\H,0,4.8258950434,1.9923256538,-1.5971865796\H,0,4.7009101514
 ,-2.2738610882,-0.9205835796\H,0,0.9922037416,1.9292224432,0.951649626
 7\H,0,-1.473795251,2.034015687,1.4293768161\\Version=ES64L-G16RevC.01\
 State=1-A\HF=-723.2620213\RMSD=1.995e-09\Dipole=-0.3691729,1.6275403,0
 .8228159\Quadrupole=4.368681,-1.2236702,-3.1450108,-8.1619588,-6.77407
 4,1.318358\PG=C01 [X(C13H12F1I1N2)]\\@
 The archive entry for this job was punched.


 Boundary, n.  In political geography, an imaginary
 line between two nations, separating the imaginary
 rights of one from the imaginary rights of another.
                               -- Ambrose Bierce
 Job cpu time:       0 days  1 hours 20 minutes 16.6 seconds.
 Elapsed time:       0 days  0 hours  5 minutes 15.3 seconds.
 File lengths (MBytes):  RWF=    189 Int=      0 D2E=      0 Chk=     31 Scr=      1
 Normal termination of Gaussian 16 at Wed Aug 14 20:32:42 2024.
 
 
-----Kestrel cluster job statistics-----
Time info:

real	23m6.940s
user	364m27.380s
sys	0m23.093s
 
Disk space usage:
31M	/scratch/362984.kestrel.chem.wisc.edu
