 Entering Gaussian System, Link 0=/share/apps/gaussian/g16/g16
 Initial command:
 /share/apps/gaussian/g16/l1.exe "/scratch/362982.kestrel.chem.wisc.edu/Gau-171182.inp" -scrdir="/scratch/362982.kestrel.chem.wisc.edu/"
 Entering Link 1 = /share/apps/gaussian/g16/l1.exe PID=    171183.
  
 Copyright (c) 1988-2019, Gaussian, Inc.  All Rights Reserved.
  
 This is part of the Gaussian(R) 16 program.  It is based on
 the Gaussian(R) 09 system (copyright 2009, Gaussian, Inc.),
 the Gaussian(R) 03 system (copyright 2003, Gaussian, Inc.),
 the Gaussian(R) 98 system (copyright 1998, Gaussian, Inc.),
 the Gaussian(R) 94 system (copyright 1995, Gaussian, Inc.),
 the Gaussian 92(TM) system (copyright 1992, Gaussian, Inc.),
 the Gaussian 90(TM) system (copyright 1990, Gaussian, Inc.),
 the Gaussian 88(TM) system (copyright 1988, Gaussian, Inc.),
 the Gaussian 86(TM) system (copyright 1986, Carnegie Mellon
 University), and the Gaussian 82(TM) system (copyright 1983,
 Carnegie Mellon University). Gaussian is a federally registered
 trademark of Gaussian, Inc.
  
 This software contains proprietary and confidential information,
 including trade secrets, belonging to Gaussian, Inc.
  
 This software is provided under written license and may be
 used, copied, transmitted, or stored only in accord with that
 written license.
  
 The following legend is applicable only to US Government
 contracts under FAR:
  
                    RESTRICTED RIGHTS LEGEND
  
 Use, reproduction and disclosure by the US Government is
 subject to restrictions as set forth in subparagraphs (a)
 and (c) of the Commercial Computer Software - Restricted
 Rights clause in FAR 52.227-19.
  
 Gaussian, Inc.
 340 Quinnipiac St., Bldg. 40, Wallingford CT 06492
  
  
 ---------------------------------------------------------------
 Warning -- This program may not be used in any manner that
 competes with the business of Gaussian, Inc. or will provide
 assistance to any competitor of Gaussian, Inc.  The licensee
 of this program is prohibited from giving any competitor of
 Gaussian, Inc. access to this program.  By using this program,
 the user acknowledges that Gaussian, Inc. is engaged in the
 business of creating and licensing software in the field of
 computational chemistry and represents and warrants to the
 licensee that it is not a competitor of Gaussian, Inc. and that
 it will not use this program in any manner prohibited above.
 ---------------------------------------------------------------
  

 Cite this work as:
 Gaussian 16, Revision C.01,
 M. J. Frisch, G. W. Trucks, H. B. Schlegel, G. E. Scuseria, 
 M. A. Robb, J. R. Cheeseman, G. Scalmani, V. Barone, 
 G. A. Petersson, H. Nakatsuji, X. Li, M. Caricato, A. V. Marenich, 
 J. Bloino, B. G. Janesko, R. Gomperts, B. Mennucci, H. P. Hratchian, 
 J. V. Ortiz, A. F. Izmaylov, J. L. Sonnenberg, D. Williams-Young, 
 F. Ding, F. Lipparini, F. Egidi, J. Goings, B. Peng, A. Petrone, 
 T. Henderson, D. Ranasinghe, V. G. Zakrzewski, J. Gao, N. Rega, 
 G. Zheng, W. Liang, M. Hada, M. Ehara, K. Toyota, R. Fukuda, 
 J. Hasegawa, M. Ishida, T. Nakajima, Y. Honda, O. Kitao, H. Nakai, 
 T. Vreven, K. Throssell, J. A. Montgomery, Jr., J. E. Peralta, 
 F. Ogliaro, M. J. Bearpark, J. J. Heyd, E. N. Brothers, K. N. Kudin, 
 V. N. Staroverov, T. A. Keith, R. Kobayashi, J. Normand, 
 K. Raghavachari, A. P. Rendell, J. C. Burant, S. S. Iyengar, 
 J. Tomasi, M. Cossi, J. M. Millam, M. Klene, C. Adamo, R. Cammi, 
 J. W. Ochterski, R. L. Martin, K. Morokuma, O. Farkas, 
 J. B. Foresman, and D. J. Fox, Gaussian, Inc., Wallingford CT, 2019.
 
 ******************************************
 Gaussian 16:  ES64L-G16RevC.01  3-Jul-2019
                14-Aug-2024 
 ******************************************
 %nprocs=16
 Will use up to   16 processors via shared memory.
 %mem=16GB
 %chk=pyrdz1_conf-2.chk
 ----------------------------------------------------------------------
 # B3LYP gen 6D pseudo=read symmetry=loose empiricaldispersion=GD3BJ in
 t=(grid=ultrafine) opt freq=noraman
 ----------------------------------------------------------------------
 1/18=20,19=15,26=4,38=1/1,3;
 2/9=110,12=2,17=4,18=3,40=1/2;
 3/5=7,8=2,11=2,16=1,17=8,25=1,30=1,71=1,74=-5,75=-5,124=41/1,2,3;
 4//1;
 5/5=2,38=5/2;
 6/7=2,8=2,9=2,10=2,28=1/1;
 7//1,2,3,16;
 1/18=20,19=15,26=4/3(2);
 2/9=110/2;
 99//99;
 2/9=110/2;
 3/5=7,6=1,8=2,11=2,16=1,17=8,25=1,30=1,71=1,74=-5,75=-5,82=7,124=41/1,2,3;
 4/5=5,16=3,69=1/1;
 5/5=2,38=5/2;
 7//1,2,3,16;
 1/18=20,19=15,26=4/3(-5);
 2/9=110/2;
 6/7=2,8=2,9=2,10=2,19=2,28=1/1;
 99/9=1/99;
 ----------
 pyrdz1.xyz
 ----------
 Symbolic Z-matrix:
 Charge =  0 Multiplicity = 1
 C                    -4.0133   -0.7477    1.0681 
 C                    -3.4062    0.4744    0.3547 
 C                    -3.7791    1.7912    1.0606 
 C                    -1.8951    0.3343    0.1749 
 N                    -1.4393    0.2908   -1.1063 
 N                    -0.1236    0.1661   -1.3482 
 C                     0.7698    0.0779   -0.3203 
 C                     2.2111   -0.0435   -0.6979 
 C                     2.7164    0.678    -1.7922 
 C                     4.0586    0.5859   -2.1604 
 C                     4.9222   -0.2332   -1.4393 
 I                     6.9346   -0.3747   -1.9865 
 C                     4.4415   -0.9595   -0.3536 
 C                     3.1      -0.8692    0.0162 
 F                     2.677    -1.6066    1.0697 
 C                     0.3382    0.1268    1.0107 
 C                    -1.026     0.2553    1.2658 
 H                    -5.1015   -0.6862    1.1015 
 H                    -3.755    -1.6726    0.5502 
 H                    -3.6573   -0.8353    2.0951 
 H                    -3.8571    0.5127   -0.6409 
 H                    -3.4122    1.8181    2.0871 
 H                    -4.8604    1.9292    1.0943 
 H                    -3.3572    2.6503    0.5371 
 H                     2.0608    1.3223   -2.3612 
 H                     4.4299    1.1492   -3.0043 
 H                     5.1058   -1.6005    0.2052 
 H                     1.041     0.0708    1.8288 
 H                    -1.3966    0.2929    2.2791 
 

 GradGradGradGradGradGradGradGradGradGradGradGradGradGradGradGradGradGrad
 Berny optimization.
 Initialization pass.
                           ----------------------------
                           !    Initial Parameters    !
                           ! (Angstroms and Degrees)  !
 --------------------------                            --------------------------
 ! Name  Definition              Value          Derivative Info.                !
 --------------------------------------------------------------------------------
 ! R1    R(1,2)                  1.5398         estimate D2E/DX2                !
 ! R2    R(1,18)                 1.0904         estimate D2E/DX2                !
 ! R3    R(1,19)                 1.091          estimate D2E/DX2                !
 ! R4    R(1,20)                 1.0905         estimate D2E/DX2                !
 ! R5    R(2,3)                  1.5399         estimate D2E/DX2                !
 ! R6    R(2,4)                  1.5282         estimate D2E/DX2                !
 ! R7    R(2,21)                 1.0936         estimate D2E/DX2                !
 ! R8    R(3,22)                 1.0904         estimate D2E/DX2                !
 ! R9    R(3,23)                 1.0906         estimate D2E/DX2                !
 ! R10   R(3,24)                 1.0909         estimate D2E/DX2                !
 ! R11   R(4,5)                  1.3606         estimate D2E/DX2                !
 ! R12   R(4,17)                 1.397          estimate D2E/DX2                !
 ! R13   R(5,6)                  1.3436         estimate D2E/DX2                !
 ! R14   R(6,7)                  1.3647         estimate D2E/DX2                !
 ! R15   R(7,8)                  1.4949         estimate D2E/DX2                !
 ! R16   R(7,16)                 1.4001         estimate D2E/DX2                !
 ! R17   R(8,9)                  1.4048         estimate D2E/DX2                !
 ! R18   R(8,14)                 1.4078         estimate D2E/DX2                !
 ! R19   R(9,10)                 1.3948         estimate D2E/DX2                !
 ! R20   R(9,25)                 1.0811         estimate D2E/DX2                !
 ! R21   R(10,11)                1.3917         estimate D2E/DX2                !
 ! R22   R(10,26)                1.0804         estimate D2E/DX2                !
 ! R23   R(11,12)                2.0903         estimate D2E/DX2                !
 ! R24   R(11,13)                1.3919         estimate D2E/DX2                !
 ! R25   R(13,14)                1.3945         estimate D2E/DX2                !
 ! R26   R(13,27)                1.0791         estimate D2E/DX2                !
 ! R27   R(14,15)                1.3537         estimate D2E/DX2                !
 ! R28   R(16,17)                1.3938         estimate D2E/DX2                !
 ! R29   R(16,28)                1.08           estimate D2E/DX2                !
 ! R30   R(17,29)                1.0796         estimate D2E/DX2                !
 ! A1    A(2,1,18)             111.2774         estimate D2E/DX2                !
 ! A2    A(2,1,19)             111.0722         estimate D2E/DX2                !
 ! A3    A(2,1,20)             111.8005         estimate D2E/DX2                !
 ! A4    A(18,1,19)            107.374          estimate D2E/DX2                !
 ! A5    A(18,1,20)            107.5461         estimate D2E/DX2                !
 ! A6    A(19,1,20)            107.5576         estimate D2E/DX2                !
 ! A7    A(1,2,3)              111.7663         estimate D2E/DX2                !
 ! A8    A(1,2,4)              111.8147         estimate D2E/DX2                !
 ! A9    A(1,2,21)             106.6794         estimate D2E/DX2                !
 ! A10   A(3,2,4)              111.8252         estimate D2E/DX2                !
 ! A11   A(3,2,21)             106.7101         estimate D2E/DX2                !
 ! A12   A(4,2,21)             107.6854         estimate D2E/DX2                !
 ! A13   A(2,3,22)             111.7862         estimate D2E/DX2                !
 ! A14   A(2,3,23)             111.2516         estimate D2E/DX2                !
 ! A15   A(2,3,24)             111.0866         estimate D2E/DX2                !
 ! A16   A(22,3,23)            107.5414         estimate D2E/DX2                !
 ! A17   A(22,3,24)            107.5887         estimate D2E/DX2                !
 ! A18   A(23,3,24)            107.375          estimate D2E/DX2                !
 ! A19   A(2,4,5)              116.4224         estimate D2E/DX2                !
 ! A20   A(2,4,17)             121.9018         estimate D2E/DX2                !
 ! A21   A(5,4,17)             121.6758         estimate D2E/DX2                !
 ! A22   A(4,5,6)              120.0381         estimate D2E/DX2                !
 ! A23   A(5,6,7)              120.7605         estimate D2E/DX2                !
 ! A24   A(6,7,8)              116.4978         estimate D2E/DX2                !
 ! A25   A(6,7,16)             120.7945         estimate D2E/DX2                !
 ! A26   A(8,7,16)             122.6964         estimate D2E/DX2                !
 ! A27   A(7,8,9)              120.1237         estimate D2E/DX2                !
 ! A28   A(7,8,14)             121.8899         estimate D2E/DX2                !
 ! A29   A(9,8,14)             117.9864         estimate D2E/DX2                !
 ! A30   A(8,9,10)             121.1881         estimate D2E/DX2                !
 ! A31   A(8,9,25)             119.866          estimate D2E/DX2                !
 ! A32   A(10,9,25)            118.9451         estimate D2E/DX2                !
 ! A33   A(9,10,11)            119.9485         estimate D2E/DX2                !
 ! A34   A(9,10,26)            120.1622         estimate D2E/DX2                !
 ! A35   A(11,10,26)           119.8893         estimate D2E/DX2                !
 ! A36   A(10,11,12)           120.1083         estimate D2E/DX2                !
 ! A37   A(10,11,13)           119.801          estimate D2E/DX2                !
 ! A38   A(12,11,13)           120.0907         estimate D2E/DX2                !
 ! A39   A(11,13,14)           120.3518         estimate D2E/DX2                !
 ! A40   A(11,13,27)           120.0854         estimate D2E/DX2                !
 ! A41   A(14,13,27)           119.5622         estimate D2E/DX2                !
 ! A42   A(8,14,13)            120.7236         estimate D2E/DX2                !
 ! A43   A(8,14,15)            121.1278         estimate D2E/DX2                !
 ! A44   A(13,14,15)           118.1454         estimate D2E/DX2                !
 ! A45   A(7,16,17)            118.6163         estimate D2E/DX2                !
 ! A46   A(7,16,28)            121.1795         estimate D2E/DX2                !
 ! A47   A(17,16,28)           120.2038         estimate D2E/DX2                !
 ! A48   A(4,17,16)            118.1123         estimate D2E/DX2                !
 ! A49   A(4,17,29)            121.1581         estimate D2E/DX2                !
 ! A50   A(16,17,29)           120.7296         estimate D2E/DX2                !
 ! D1    D(18,1,2,3)            59.5561         estimate D2E/DX2                !
 ! D2    D(18,1,2,4)          -174.2145         estimate D2E/DX2                !
 ! D3    D(18,1,2,21)          -56.729          estimate D2E/DX2                !
 ! D4    D(19,1,2,3)           179.1248         estimate D2E/DX2                !
 ! D5    D(19,1,2,4)           -54.6458         estimate D2E/DX2                !
 ! D6    D(19,1,2,21)           62.8397         estimate D2E/DX2                !
 ! D7    D(20,1,2,3)           -60.7229         estimate D2E/DX2                !
 ! D8    D(20,1,2,4)            65.5065         estimate D2E/DX2                !
 ! D9    D(20,1,2,21)         -177.008          estimate D2E/DX2                !
 ! D10   D(1,2,3,22)            60.7382         estimate D2E/DX2                !
 ! D11   D(1,2,3,23)           -59.5072         estimate D2E/DX2                !
 ! D12   D(1,2,3,24)          -179.0696         estimate D2E/DX2                !
 ! D13   D(4,2,3,22)           -65.4854         estimate D2E/DX2                !
 ! D14   D(4,2,3,23)           174.2692         estimate D2E/DX2                !
 ! D15   D(4,2,3,24)            54.7068         estimate D2E/DX2                !
 ! D16   D(21,2,3,22)          177.0046         estimate D2E/DX2                !
 ! D17   D(21,2,3,23)           56.7593         estimate D2E/DX2                !
 ! D18   D(21,2,3,24)          -62.8032         estimate D2E/DX2                !
 ! D19   D(1,2,4,5)            117.0136         estimate D2E/DX2                !
 ! D20   D(1,2,4,17)           -63.0042         estimate D2E/DX2                !
 ! D21   D(3,2,4,5)           -116.7892         estimate D2E/DX2                !
 ! D22   D(3,2,4,17)            63.193          estimate D2E/DX2                !
 ! D23   D(21,2,4,5)             0.1338         estimate D2E/DX2                !
 ! D24   D(21,2,4,17)         -179.884          estimate D2E/DX2                !
 ! D25   D(2,4,5,6)           -179.871          estimate D2E/DX2                !
 ! D26   D(17,4,5,6)             0.1467         estimate D2E/DX2                !
 ! D27   D(2,4,17,16)          179.912          estimate D2E/DX2                !
 ! D28   D(2,4,17,29)           -0.121          estimate D2E/DX2                !
 ! D29   D(5,4,17,16)           -0.1068         estimate D2E/DX2                !
 ! D30   D(5,4,17,29)          179.8603         estimate D2E/DX2                !
 ! D31   D(4,5,6,7)              0.186          estimate D2E/DX2                !
 ! D32   D(5,6,7,8)           -179.366          estimate D2E/DX2                !
 ! D33   D(5,6,7,16)            -0.5546         estimate D2E/DX2                !
 ! D34   D(6,7,8,9)             38.1953         estimate D2E/DX2                !
 ! D35   D(6,7,8,14)          -141.8546         estimate D2E/DX2                !
 ! D36   D(16,7,8,9)          -140.5913         estimate D2E/DX2                !
 ! D37   D(16,7,8,14)           39.3587         estimate D2E/DX2                !
 ! D38   D(6,7,16,17)            0.5804         estimate D2E/DX2                !
 ! D39   D(6,7,16,28)         -179.1764         estimate D2E/DX2                !
 ! D40   D(8,7,16,17)          179.3163         estimate D2E/DX2                !
 ! D41   D(8,7,16,28)           -0.4405         estimate D2E/DX2                !
 ! D42   D(7,8,9,10)           179.7142         estimate D2E/DX2                !
 ! D43   D(7,8,9,25)             0.0321         estimate D2E/DX2                !
 ! D44   D(14,8,9,10)           -0.2377         estimate D2E/DX2                !
 ! D45   D(14,8,9,25)         -179.9198         estimate D2E/DX2                !
 ! D46   D(7,8,14,13)         -179.7025         estimate D2E/DX2                !
 ! D47   D(7,8,14,15)            0.9673         estimate D2E/DX2                !
 ! D48   D(9,8,14,13)            0.2485         estimate D2E/DX2                !
 ! D49   D(9,8,14,15)         -179.0817         estimate D2E/DX2                !
 ! D50   D(8,9,10,11)            0.0665         estimate D2E/DX2                !
 ! D51   D(8,9,10,26)         -179.9228         estimate D2E/DX2                !
 ! D52   D(25,9,10,11)         179.7515         estimate D2E/DX2                !
 ! D53   D(25,9,10,26)          -0.2378         estimate D2E/DX2                !
 ! D54   D(9,10,11,12)        -179.9894         estimate D2E/DX2                !
 ! D55   D(9,10,11,13)           0.1            estimate D2E/DX2                !
 ! D56   D(26,10,11,12)         -0.0001         estimate D2E/DX2                !
 ! D57   D(26,10,11,13)       -179.9108         estimate D2E/DX2                !
 ! D58   D(10,11,13,14)         -0.0884         estimate D2E/DX2                !
 ! D59   D(10,11,13,27)        179.6409         estimate D2E/DX2                !
 ! D60   D(12,11,13,14)       -179.9991         estimate D2E/DX2                !
 ! D61   D(12,11,13,27)         -0.2698         estimate D2E/DX2                !
 ! D62   D(11,13,14,8)          -0.0895         estimate D2E/DX2                !
 ! D63   D(11,13,14,15)        179.2603         estimate D2E/DX2                !
 ! D64   D(27,13,14,8)        -179.8202         estimate D2E/DX2                !
 ! D65   D(27,13,14,15)         -0.4705         estimate D2E/DX2                !
 ! D66   D(7,16,17,4)           -0.2501         estimate D2E/DX2                !
 ! D67   D(7,16,17,29)         179.7827         estimate D2E/DX2                !
 ! D68   D(28,16,17,4)         179.5092         estimate D2E/DX2                !
 ! D69   D(28,16,17,29)         -0.4579         estimate D2E/DX2                !
 --------------------------------------------------------------------------------
 Trust Radius=3.00D-01 FncErr=1.00D-07 GrdErr=1.00D-06 EigMax=2.50D+02 EigMin=1.00D-04
 Number of steps in this run=    159 maximum allowed number of steps=    174.
 GradGradGradGradGradGradGradGradGradGradGradGradGradGradGradGradGradGrad

                          Input orientation:                          
 ---------------------------------------------------------------------
 Center     Atomic      Atomic             Coordinates (Angstroms)
 Number     Number       Type             X           Y           Z
 ---------------------------------------------------------------------
      1          6           0       -4.013300   -0.747700    1.068100
      2          6           0       -3.406200    0.474400    0.354700
      3          6           0       -3.779100    1.791200    1.060600
      4          6           0       -1.895100    0.334300    0.174900
      5          7           0       -1.439300    0.290800   -1.106300
      6          7           0       -0.123600    0.166100   -1.348200
      7          6           0        0.769800    0.077900   -0.320300
      8          6           0        2.211100   -0.043500   -0.697900
      9          6           0        2.716400    0.678000   -1.792200
     10          6           0        4.058600    0.585900   -2.160400
     11          6           0        4.922200   -0.233200   -1.439300
     12         53           0        6.934600   -0.374700   -1.986500
     13          6           0        4.441500   -0.959500   -0.353600
     14          6           0        3.100000   -0.869200    0.016200
     15          9           0        2.677000   -1.606600    1.069700
     16          6           0        0.338200    0.126800    1.010700
     17          6           0       -1.026000    0.255300    1.265800
     18          1           0       -5.101500   -0.686200    1.101500
     19          1           0       -3.755000   -1.672600    0.550200
     20          1           0       -3.657300   -0.835300    2.095100
     21          1           0       -3.857100    0.512700   -0.640900
     22          1           0       -3.412200    1.818100    2.087100
     23          1           0       -4.860400    1.929200    1.094300
     24          1           0       -3.357200    2.650300    0.537100
     25          1           0        2.060800    1.322300   -2.361200
     26          1           0        4.429900    1.149200   -3.004300
     27          1           0        5.105800   -1.600500    0.205200
     28          1           0        1.041000    0.070800    1.828800
     29          1           0       -1.396600    0.292900    2.279100
 ---------------------------------------------------------------------
                    Distance matrix (angstroms):
                    1          2          3          4          5
     1  C    0.000000
     2  C    1.539818   0.000000
     3  C    2.549690   1.539906   0.000000
     4  C    2.540729   1.528195   2.540960   0.000000
     5  N    3.525900   2.457016   3.524389   1.360558   0.000000
     6  N    4.669401   3.710846   4.669684   2.342293   1.343552
     7  C    5.048496   4.248743   5.053194   2.722619   2.354410
     8  C    6.508288   5.738488   6.506992   4.214901   3.688356
     9  C    7.450020   6.491291   7.181170   5.025290   4.229684
    10  C    8.795298   7.877906   8.559038   6.400271   5.605811
    11  C    9.294887   8.548765   9.276870   7.028746   6.391725
    12  I   11.372169  10.636462  11.347216   9.118000   8.446292
    13  C    8.576114   8.009005   8.783199   6.488893   6.059176
    14  C    7.191682   6.652104   7.449196   5.140488   4.817764
    15  F    6.745208   6.468934   7.295639   5.046965   5.027825
    16  C    4.438873   3.817289   4.441270   2.393585   2.769132
    17  C    3.157381   2.558019   3.159218   1.397011   2.408098
    18  H    1.090448   2.186034   2.808545   3.490130   4.386413
    19  H    1.091045   2.183916   3.501285   2.761834   3.458525
    20  H    1.090476   2.192569   2.825514   2.856656   4.054206
    21  H    2.129246   1.093617   2.129730   2.132323   2.472164
    22  H    2.825422   2.192436   1.090432   2.856530   4.052503
    23  H    2.807857   2.185898   1.090591   3.490273   4.385307
    24  H    3.501262   2.184081   1.090919   2.762749   3.456348
    25  H    7.275967   6.163046   6.784763   4.801780   3.858687
    26  H    9.564011   8.552351   9.182770   7.125798   6.227902
    27  H    9.199448   8.762517   9.548654   7.263399   6.937967
    28  H    5.176346   4.702494   5.175256   3.380163   3.849039
    29  H    3.065369   2.788324   3.066912   2.162839   3.385670
                    6          7          8          9         10
     6  N    0.000000
     7  C    1.364742   0.000000
     8  C    2.432621   1.494880   0.000000
     9  C    2.919722   2.513138   1.404771   0.000000
    10  C    4.280969   3.802662   2.438915   1.394831   0.000000
    11  C    5.062394   4.311771   2.817042   2.412546   1.391659
    12  I    7.107607   6.402018   4.907304   4.351912   3.037165
    13  C    4.805865   3.815585   2.435628   2.779739   2.408194
    14  C    3.650347   2.537728   1.407786   2.410661   2.788157
    15  F    4.102690   2.899492   2.405152   3.662161   4.141186
    16  C    2.403999   1.400082   2.540880   3.716975   4.909992
    17  C    2.766817   2.402516   3.797923   4.851350   6.140138
    18  H    5.613104   6.089132   7.558110   8.447136   9.806409
    19  H    4.491303   4.929081   6.309205   7.272632   8.573244
    20  H    5.034496   5.125164   6.547207   7.617429   8.925481
    21  H    3.815682   4.658330   6.093903   6.675606   8.060555
    22  H    5.034410   5.129619   6.545478   7.342243   8.681729
    23  H    5.613520   6.093239   7.557092   8.203980   9.588852
    24  H    4.492413   4.938067   6.307753   6.797369   8.156736
    25  H    2.671062   2.716705   2.157444   1.081062   2.138647
    26  H    4.944038   4.663461   3.415419   2.151116   1.080434
    27  H    5.734157   4.679110   3.408684   3.858808   3.387187
    28  H    3.385071   2.166156   2.786828   4.035752   5.028415
    29  H    3.846286   3.390633   4.689477   5.800048   7.039476
                   11         12         13         14         15
    11  C    0.000000
    12  I    2.090264   0.000000
    13  C    1.391880   3.037088   0.000000
    14  C    2.417310   4.354250   1.394463   0.000000
    15  F    3.636239   5.383781   2.357537   1.353717   0.000000
    16  C    5.210101   7.262727   4.458524   3.099772   2.911725
    17  C    6.552655   8.622384   5.830245   4.455320   4.149378
    18  H   10.350625  12.429822   9.657166   8.275021   7.832829
    19  H    9.017970  11.062863   8.276955   6.922545   6.453283
    20  H    9.298512  11.360456   8.461804   7.069942   6.462949
    21  H    8.847029  10.911412   8.433070   7.123389   7.078986
    22  H    9.279308  11.333969   8.680592   7.342953   7.059889
    23  H   10.334136  12.406503   9.847149   8.506545   8.325556
    24  H    8.987168  11.019997   8.639660   7.372493   7.403812
    25  H    3.384832   5.174373   3.860674   3.396268   4.552937
    26  H    2.145370   3.103500   3.387176   3.868591   5.221548
    27  H    2.146532   3.106549   1.079089   2.143305   2.578074
    28  H    5.082972   7.034878   4.169867   2.899759   2.463006
    29  H    7.350545   9.383492   6.525567   5.166295   4.654564
                   16         17         18         19         20
    16  C    0.000000
    17  C    1.393783   0.000000
    18  H    5.500868   4.186062   0.000000
    19  H    4.494907   3.417063   1.757834   0.000000
    20  H    4.250362   2.966629   1.759314   1.759924   0.000000
    21  H    4.525179   3.422994   2.453946   2.490919   3.056586
    22  H    4.252603   2.968304   3.177524   3.829433   2.664708
    23  H    5.502824   4.187359   2.626499   3.806694   3.176714
    24  H    4.499814   3.420749   3.807015   4.341184   3.829730
    25  H    3.970678   4.880774   8.205054   7.160252   7.563763
    26  H    5.823018   6.985675  10.539159   9.358932   9.764473
    27  H    5.134433   6.493677  10.287287   8.867807   8.997176
    28  H    1.079978   2.150232   6.231558   5.260787   4.792281
    29  H    2.155449   1.079599   4.008948   3.523398   2.533270
                   21         22         23         24         25
    21  H    0.000000
    22  H    3.056794   0.000000
    23  H    2.454384   1.759340   0.000000
    24  H    2.491369   1.760137   1.757859   0.000000
    25  H    6.215821   7.070143   7.759627   6.286370   0.000000
    26  H    8.640900   9.373810  10.184135   8.685260   2.460930
    27  H    9.247436   9.369349  10.610109   9.476383   4.939756
    28  H    5.503279   4.790696   6.230543   5.259893   4.490250
    29  H    3.824758   2.534905   4.009880   3.526450   5.877556
                   26         27         28         29
    26  H    0.000000
    27  H    4.280021   0.000000
    28  H    6.000537   4.685288   0.000000
    29  H    7.911742   7.082883   2.488773   0.000000
 Stoichiometry    C13H12FIN2
 Framework group  C1[X(C13H12FIN2)]
 Deg. of freedom    81
 Full point group                 C1      NOp   1
 Largest Abelian subgroup         C1      NOp   1
 Largest concise Abelian subgroup C1      NOp   1
                         Standard orientation:                         
 ---------------------------------------------------------------------
 Center     Atomic      Atomic             Coordinates (Angstroms)
 Number     Number       Type             X           Y           Z
 ---------------------------------------------------------------------
      1          6           0        6.678614    0.712116   -0.924297
      2          6           0        6.005393   -0.466542   -0.197264
      3          6           0        6.648559   -0.732611    1.176365
      4          6           0        4.492729   -0.277894   -0.089380
      5          7           0        3.720766   -1.197146   -0.729823
      6          7           0        2.381539   -1.099265   -0.684832
      7          6           0        1.778532   -0.081587   -0.004219
      8          6           0        0.283678   -0.072865   -0.004298
      9          6           0       -0.428395   -1.280315    0.087353
     10          6           0       -1.823097   -1.297574    0.095170
     11          6           0       -2.533159   -0.103741    0.009795
     12         53           0       -4.623295   -0.123768    0.021410
     13          6           0       -1.847367    1.103730   -0.085246
     14          6           0       -0.453068    1.123426   -0.093495
     15          9           0        0.168001    2.321276   -0.202947
     16          6           0        2.540415    0.878180    0.672991
     17          6           0        3.930049    0.780564    0.628042
     18          1           0        7.740163    0.522692   -1.086497
     19          1           0        6.224670    0.880815   -1.901975
     20          1           0        6.593056    1.639726   -0.357411
     21          1           0        6.186603   -1.356178   -0.806943
     22          1           0        6.561278    0.129771    1.837970
     23          1           0        7.709489   -0.965174    1.077715
     24          1           0        6.174340   -1.579496    1.674366
     25          1           0        0.106845   -2.216875    0.158546
     26          1           0       -2.353995   -2.235789    0.167542
     27          1           0       -2.393355    2.031689   -0.157513
     28          1           0        2.069538    1.678515    1.224434
     29          1           0        4.550579    1.504066    1.135016
 ---------------------------------------------------------------------
 Rotational constants (GHZ):           1.4824870           0.0909229           0.0877111
 General basis read from cards:  (6D, 7F)
 ======================================================================================================
                                       Pseudopotential Parameters
 ======================================================================================================
  Center     Atomic      Valence      Angular      Power
  Number     Number     Electrons     Momentum     of R      Exponent        Coefficient   SO-Coeffient
 ======================================================================================================
    1          6
                                   No pseudopotential on this center.
    2          6
                                   No pseudopotential on this center.
    3          6
                                   No pseudopotential on this center.
    4          6
                                   No pseudopotential on this center.
    5          7
                                   No pseudopotential on this center.
    6          7
                                   No pseudopotential on this center.
    7          6
                                   No pseudopotential on this center.
    8          6
                                   No pseudopotential on this center.
    9          6
                                   No pseudopotential on this center.
   10          6
                                   No pseudopotential on this center.
   11          6
                                   No pseudopotential on this center.
   12         53            7
                                      F and up 
                                                     0        1.0715702       -0.07476210    0.00000000
                                                     1       44.1936028      -30.08112240    0.00000000
                                                     2       12.9367609      -75.37227210    0.00000000
                                                     2        3.1956412      -22.05637580    0.00000000
                                                     2        0.8589806       -1.69795850    0.00000000
                                      S - F
                                                     0      127.9202670        2.93800360    0.00000000
                                                     1       78.6211465       41.24712670    0.00000000
                                                     2       36.5146237      287.86800950    0.00000000
                                                     2        9.9065681      114.37585060    0.00000000
                                                     2        1.9420086       37.65477140    0.00000000
                                      P - F
                                                     0       13.0035304        2.22226300    0.00000000
                                                     1       76.0331404       39.40908310    0.00000000
                                                     2       24.1961684      177.40750020    0.00000000
                                                     2        6.4053433       77.98894620    0.00000000
                                                     2        1.5851786       25.75476410    0.00000000
                                      D - F
                                                     0       40.4278108        7.05243600    0.00000000
                                                     1       28.9084375       33.30416350    0.00000000
                                                     2       15.6268936      186.94538750    0.00000000
                                                     2        4.1442856       71.96883610    0.00000000
                                                     2        0.9377235        9.36306570    0.00000000
   13          6
                                   No pseudopotential on this center.
   14          6
                                   No pseudopotential on this center.
   15          9
                                   No pseudopotential on this center.
   16          6
                                   No pseudopotential on this center.
   17          6
                                   No pseudopotential on this center.
   18          1
                                   No pseudopotential on this center.
   19          1
                                   No pseudopotential on this center.
   20          1
                                   No pseudopotential on this center.
   21          1
                                   No pseudopotential on this center.
   22          1
                                   No pseudopotential on this center.
   23          1
                                   No pseudopotential on this center.
   24          1
                                   No pseudopotential on this center.
   25          1
                                   No pseudopotential on this center.
   26          1
                                   No pseudopotential on this center.
   27          1
                                   No pseudopotential on this center.
   28          1
                                   No pseudopotential on this center.
   29          1
                                   No pseudopotential on this center.
 ======================================================================================================
 There are   308 symmetry adapted cartesian basis functions of A   symmetry.
 There are   308 symmetry adapted basis functions of A   symmetry.
   308 basis functions,   544 primitive gaussians,   308 cartesian basis functions
    60 alpha electrons       60 beta electrons
       nuclear repulsion energy      1073.8517988359 Hartrees.
 NAtoms=   29 NActive=   29 NUniq=   29 SFac= 1.00D+00 NAtFMM=   60 NAOKFM=F Big=F
 Integral buffers will be    131072 words long.
 Raffenetti 2 integral format.
 Two-electron integral symmetry is turned on.
 Nuclear repulsion after empirical dispersion term =     1073.7878207712 Hartrees.
 One-electron integrals computed using PRISM.
   1 Symmetry operations used in ECPInt.
 ECPInt:  NShTT=    5460 NPrTT=   29729 LenC2=    4597 LenP2D=   15807.
 LDataN:  DoStor=T MaxTD1= 5 Len=  102
 NBasis=   308 RedAO= T EigKep=  4.30D-04  NBF=   308
 NBsUse=   308 1.00D-06 EigRej= -1.00D+00 NBFU=   308
 Defaulting to unpruned grid for atomic number  53.
 ExpMin= 1.05D-01 ExpMax= 7.00D+03 ExpMxC= 1.05D+03 IAcc=3 IRadAn=         5 AccDes= 0.00D+00
 Harris functional with IExCor=  402 and IRadAn=       5 diagonalized for initial guess.
 HarFok:  IExCor=  402 AccDes= 0.00D+00 IRadAn=         5 IDoV= 1 UseB2=F ITyADJ=14
 ICtDFT=  3500011 ScaDFX=  1.000000  1.000000  1.000000  1.000000
 Defaulting to unpruned grid for atomic number  53.
 FoFCou: FMM=F IPFlag=           0 FMFlag=      100000 FMFlg1=           0
         NFxFlg=           0 DoJE=T BraDBF=F KetDBF=T FulRan=T
         wScrn=  0.000000 ICntrl=       500 IOpCl=  0 I1Cent=   200000004 NGrid=           0
         NMat0=    1 NMatS0=      1 NMatT0=    0 NMatD0=    1 NMtDS0=    0 NMtDT0=    0
 Petite list used in FoFCou.
 Requested convergence on RMS density matrix=1.00D-08 within 128 cycles.
 Requested convergence on MAX density matrix=1.00D-06.
 Requested convergence on             energy=1.00D-06.
 No special actions if energy rises.
 Integral accuracy reduced to 1.0D-05 until final iterations.
 Defaulting to unpruned grid for atomic number  53.
 Defaulting to unpruned grid for atomic number  53.
 Defaulting to unpruned grid for atomic number  53.
 Defaulting to unpruned grid for atomic number  53.
 Defaulting to unpruned grid for atomic number  53.
 Defaulting to unpruned grid for atomic number  53.
 Defaulting to unpruned grid for atomic number  53.
 Defaulting to unpruned grid for atomic number  53.
 Defaulting to unpruned grid for atomic number  53.
 Defaulting to unpruned grid for atomic number  53.
 Defaulting to unpruned grid for atomic number  53.
 Defaulting to unpruned grid for atomic number  53.
 Defaulting to unpruned grid for atomic number  53.
 Defaulting to unpruned grid for atomic number  53.
 Defaulting to unpruned grid for atomic number  53.
 Defaulting to unpruned grid for atomic number  53.
 Initial convergence to 1.0D-05 achieved.  Increase integral accuracy.
 SCF Done:  E(RB3LYP) =  -723.383426512     A.U. after   15 cycles
            NFock= 15  Conv=0.69D-08     -V/T= 2.0211

 **********************************************************************

            Population analysis using the SCF Density.

 **********************************************************************

 Orbital symmetries:
       Occupied  (A) (A) (A) (A) (A) (A) (A) (A) (A) (A) (A) (A)
                 (A) (A) (A) (A) (A) (A) (A) (A) (A) (A) (A) (A)
                 (A) (A) (A) (A) (A) (A) (A) (A) (A) (A) (A) (A)
                 (A) (A) (A) (A) (A) (A) (A) (A) (A) (A) (A) (A)
                 (A) (A) (A) (A) (A) (A) (A) (A) (A) (A) (A) (A)
       Virtual   (A) (A) (A) (A) (A) (A) (A) (A) (A) (A) (A) (A)
                 (A) (A) (A) (A) (A) (A) (A) (A) (A) (A) (A) (A)
                 (A) (A) (A) (A) (A) (A) (A) (A) (A) (A) (A) (A)
                 (A) (A) (A) (A) (A) (A) (A) (A) (A) (A) (A) (A)
                 (A) (A) (A) (A) (A) (A) (A) (A) (A) (A) (A) (A)
                 (A) (A) (A) (A) (A) (A) (A) (A) (A) (A) (A) (A)
                 (A) (A) (A) (A) (A) (A) (A) (A) (A) (A) (A) (A)
                 (A) (A) (A) (A) (A) (A) (A) (A) (A) (A) (A) (A)
                 (A) (A) (A) (A) (A) (A) (A) (A) (A) (A) (A) (A)
                 (A) (A) (A) (A) (A) (A) (A) (A) (A) (A) (A) (A)
                 (A) (A) (A) (A) (A) (A) (A) (A) (A) (A) (A) (A)
                 (A) (A) (A) (A) (A) (A) (A) (A) (A) (A) (A) (A)
                 (A) (A) (A) (A) (A) (A) (A) (A) (A) (A) (A) (A)
                 (A) (A) (A) (A) (A) (A) (A) (A) (A) (A) (A) (A)
                 (A) (A) (A) (A) (A) (A) (A) (A) (A) (A) (A) (A)
                 (A) (A) (A) (A) (A) (A) (A) (A) (A) (A) (A) (A)
                 (A) (A) (A) (A) (A) (A) (A) (A) (A) (A) (A) (A)
                 (A) (A) (A) (A) (A) (A) (A) (A) (A) (A) (A) (A)
                 (A) (A) (A) (A) (A) (A) (A) (A) (A) (A) (A) (A)
                 (A) (A) (A) (A) (A) (A) (A) (A) (A) (A) (A) (A)
                 (A) (A) (A) (A) (A) (A) (A) (A)
 The electronic state is 1-A.
 Alpha  occ. eigenvalues --  -24.72643 -14.36888 -14.36735 -10.29424 -10.25345
 Alpha  occ. eigenvalues --  -10.24747 -10.23812 -10.22382 -10.22235 -10.22022
 Alpha  occ. eigenvalues --  -10.21540 -10.21312 -10.21025 -10.20318 -10.18392
 Alpha  occ. eigenvalues --  -10.18346  -1.23525  -1.00531  -0.88589  -0.84641
 Alpha  occ. eigenvalues --   -0.82984  -0.78932  -0.76898  -0.76643  -0.70043
 Alpha  occ. eigenvalues --   -0.69353  -0.66536  -0.65453  -0.63130  -0.61093
 Alpha  occ. eigenvalues --   -0.58374  -0.54670  -0.52510  -0.52135  -0.50022
 Alpha  occ. eigenvalues --   -0.49247  -0.47635  -0.45831  -0.45045  -0.44353
 Alpha  occ. eigenvalues --   -0.43577  -0.43361  -0.41504  -0.40766  -0.40615
 Alpha  occ. eigenvalues --   -0.39401  -0.38453  -0.38303  -0.36844  -0.35217
 Alpha  occ. eigenvalues --   -0.35094  -0.33803  -0.31651  -0.30594  -0.30195
 Alpha  occ. eigenvalues --   -0.27813  -0.27518  -0.26465  -0.23989  -0.23346
 Alpha virt. eigenvalues --   -0.05617  -0.04863  -0.03360  -0.01790   0.00176
 Alpha virt. eigenvalues --    0.07914   0.09806   0.11004   0.11150   0.13183
 Alpha virt. eigenvalues --    0.13963   0.14281   0.14611   0.15008   0.15705
 Alpha virt. eigenvalues --    0.17050   0.18493   0.18691   0.19143   0.19259
 Alpha virt. eigenvalues --    0.20279   0.22778   0.23546   0.25176   0.26476
 Alpha virt. eigenvalues --    0.27791   0.29313   0.30045   0.30882   0.31788
 Alpha virt. eigenvalues --    0.34250   0.34857   0.36981   0.38303   0.40096
 Alpha virt. eigenvalues --    0.44673   0.46166   0.47737   0.48903   0.49488
 Alpha virt. eigenvalues --    0.50558   0.51152   0.52175   0.52279   0.53701
 Alpha virt. eigenvalues --    0.54338   0.55112   0.55847   0.56491   0.57524
 Alpha virt. eigenvalues --    0.58860   0.59252   0.59493   0.60452   0.61104
 Alpha virt. eigenvalues --    0.62823   0.63570   0.64457   0.64805   0.65851
 Alpha virt. eigenvalues --    0.66310   0.67980   0.68715   0.69724   0.69922
 Alpha virt. eigenvalues --    0.74369   0.74949   0.75793   0.78197   0.78622
 Alpha virt. eigenvalues --    0.79357   0.81704   0.82123   0.82458   0.83206
 Alpha virt. eigenvalues --    0.84438   0.84666   0.85480   0.86818   0.87171
 Alpha virt. eigenvalues --    0.88443   0.88787   0.89700   0.90383   0.91703
 Alpha virt. eigenvalues --    0.93576   0.94334   0.95478   0.95880   0.96835
 Alpha virt. eigenvalues --    0.98719   0.99283   1.03440   1.04877   1.06589
 Alpha virt. eigenvalues --    1.07873   1.11061   1.11787   1.12474   1.17965
 Alpha virt. eigenvalues --    1.19588   1.20239   1.23271   1.23543   1.26417
 Alpha virt. eigenvalues --    1.27159   1.28012   1.32299   1.34101   1.35037
 Alpha virt. eigenvalues --    1.36574   1.38022   1.38808   1.39542   1.40624
 Alpha virt. eigenvalues --    1.42333   1.43311   1.44303   1.45652   1.49853
 Alpha virt. eigenvalues --    1.51216   1.54534   1.56930   1.57427   1.60227
 Alpha virt. eigenvalues --    1.65639   1.67002   1.70165   1.71454   1.73158
 Alpha virt. eigenvalues --    1.74437   1.75588   1.77920   1.79879   1.81189
 Alpha virt. eigenvalues --    1.81439   1.82126   1.83596   1.83708   1.85356
 Alpha virt. eigenvalues --    1.86872   1.88372   1.89825   1.90989   1.91796
 Alpha virt. eigenvalues --    1.93280   1.96150   1.96883   1.98818   2.01671
 Alpha virt. eigenvalues --    2.03475   2.04295   2.05066   2.05470   2.06375
 Alpha virt. eigenvalues --    2.08504   2.08921   2.10709   2.11217   2.11903
 Alpha virt. eigenvalues --    2.13058   2.13491   2.15173   2.16654   2.19846
 Alpha virt. eigenvalues --    2.23078   2.24916   2.26756   2.28418   2.29344
 Alpha virt. eigenvalues --    2.29553   2.30791   2.31878   2.32119   2.34022
 Alpha virt. eigenvalues --    2.34533   2.36742   2.38223   2.39688   2.42616
 Alpha virt. eigenvalues --    2.43886   2.45351   2.46541   2.46764   2.48845
 Alpha virt. eigenvalues --    2.50978   2.52595   2.54027   2.56704   2.57763
 Alpha virt. eigenvalues --    2.58602   2.60731   2.62136   2.63138   2.65082
 Alpha virt. eigenvalues --    2.66469   2.68539   2.70188   2.70723   2.72262
 Alpha virt. eigenvalues --    2.72391   2.75491   2.77482   2.78716   2.80778
 Alpha virt. eigenvalues --    2.85337   2.88522   2.89317   2.90063   2.91010
 Alpha virt. eigenvalues --    2.94398   2.97366   3.02983   3.04370   3.09565
 Alpha virt. eigenvalues --    3.15723   3.18786   3.18997   3.22539   3.22794
 Alpha virt. eigenvalues --    3.28538   3.30230   3.33792   3.34218   3.42675
 Alpha virt. eigenvalues --    3.44103   3.47192   3.48404   3.53581   3.68095
 Alpha virt. eigenvalues --    3.74967   3.78818   4.06999   4.08930   4.11749
 Alpha virt. eigenvalues --    4.14767   4.23706   4.27205   4.29132   4.37232
 Alpha virt. eigenvalues --    4.39819   4.44160   4.49663   4.62179   4.70445
 Alpha virt. eigenvalues --    4.76048   5.53257  10.06816
          Condensed to atoms (all electrons):
               1          2          3          4          5          6
     1  C    4.951096   0.364377  -0.052704  -0.043486   0.000500  -0.000161
     2  C    0.364377   4.956200   0.363998   0.375409  -0.066870   0.006250
     3  C   -0.052704   0.363998   4.950823  -0.042987   0.000483  -0.000162
     4  C   -0.043486   0.375409  -0.042987   4.774872   0.376345  -0.048910
     5  N    0.000500  -0.066870   0.000483   0.376345   6.872837   0.234570
     6  N   -0.000161   0.006250  -0.000162  -0.048910   0.234570   6.919318
     7  C    0.000024  -0.000062   0.000041  -0.025149  -0.042958   0.353301
     8  C   -0.000000   0.000003   0.000000   0.000495   0.005575  -0.077837
     9  C    0.000000  -0.000000  -0.000000   0.000057   0.000011   0.001664
    10  C   -0.000000   0.000000   0.000000   0.000000   0.000001   0.000410
    11  C   -0.000000  -0.000000   0.000000   0.000000  -0.000000   0.000013
    12  I   -0.000000  -0.000000   0.000000   0.000000   0.000000   0.000000
    13  C    0.000000   0.000000  -0.000000  -0.000000   0.000001  -0.000129
    14  C   -0.000000   0.000000  -0.000000  -0.000017  -0.000043   0.001472
    15  F    0.000000   0.000000  -0.000000   0.000002  -0.000000  -0.000021
    16  C    0.000151   0.005478   0.000088  -0.030636  -0.042860  -0.039209
    17  C   -0.002275  -0.074016  -0.002186   0.455266  -0.034921  -0.043404
    18  H    0.380617  -0.027974  -0.003109   0.004625  -0.000029   0.000002
    19  H    0.381934  -0.031533   0.004960  -0.001448   0.000731  -0.000036
    20  H    0.379319  -0.032888  -0.005745  -0.007738  -0.000031   0.000005
    21  H   -0.039937   0.373718  -0.039822  -0.040074   0.007458  -0.000131
    22  H   -0.005737  -0.032939   0.379347  -0.007706  -0.000032   0.000004
    23  H   -0.003075  -0.028015   0.380895   0.004601  -0.000030   0.000002
    24  H    0.004982  -0.031586   0.381485  -0.001402   0.000749  -0.000036
    25  H    0.000000  -0.000000   0.000000   0.000029  -0.000352   0.010222
    26  H    0.000000  -0.000000  -0.000000  -0.000000   0.000000  -0.000004
    27  H    0.000000  -0.000000   0.000000  -0.000000  -0.000000   0.000001
    28  H   -0.000001  -0.000108  -0.000001   0.003613  -0.000089   0.004705
    29  H    0.000273  -0.005685   0.000345  -0.036023   0.004765  -0.000117
               7          8          9         10         11         12
     1  C    0.000024  -0.000000   0.000000  -0.000000  -0.000000  -0.000000
     2  C   -0.000062   0.000003  -0.000000   0.000000  -0.000000  -0.000000
     3  C    0.000041   0.000000  -0.000000   0.000000   0.000000   0.000000
     4  C   -0.025149   0.000495   0.000057   0.000000   0.000000   0.000000
     5  N   -0.042958   0.005575   0.000011   0.000001  -0.000000   0.000000
     6  N    0.353301  -0.077837   0.001664   0.000410   0.000013   0.000000
     7  C    4.884001   0.309740  -0.050593   0.006472  -0.000263   0.000025
     8  C    0.309740   5.106442   0.471889  -0.009329  -0.045209   0.001067
     9  C   -0.050593   0.471889   4.889371   0.500490  -0.024939   0.001021
    10  C    0.006472  -0.009329   0.500490   4.847569   0.481460  -0.067167
    11  C   -0.000263  -0.045209  -0.024939   0.481460   5.353901   0.269246
    12  I    0.000025   0.001067   0.001021  -0.067167   0.269246   6.679279
    13  C    0.008613  -0.052451  -0.046233  -0.023552   0.426672  -0.069467
    14  C   -0.046776   0.421997  -0.019494  -0.043909  -0.003623  -0.000077
    15  F   -0.004579  -0.054231   0.002755  -0.000107   0.003534  -0.000052
    16  C    0.451815  -0.059814   0.007886  -0.000170  -0.000008  -0.000000
    17  C   -0.029270   0.005948  -0.000078   0.000002   0.000000   0.000000
    18  H   -0.000000   0.000000  -0.000000   0.000000  -0.000000   0.000000
    19  H   -0.000003  -0.000000  -0.000000   0.000000  -0.000000   0.000000
    20  H   -0.000008  -0.000000   0.000000   0.000000  -0.000000  -0.000000
    21  H    0.000052  -0.000000  -0.000000  -0.000000  -0.000000  -0.000000
    22  H   -0.000008  -0.000000   0.000000   0.000000  -0.000000  -0.000000
    23  H   -0.000000  -0.000000  -0.000000  -0.000000  -0.000000  -0.000000
    24  H   -0.000005  -0.000000   0.000000  -0.000000  -0.000000  -0.000000
    25  H   -0.009822  -0.041069   0.378175  -0.041888   0.006237  -0.000272
    26  H   -0.000168   0.003687  -0.027636   0.372647  -0.042664  -0.001710
    27  H   -0.000155   0.006322   0.000565   0.004201  -0.041539  -0.003516
    28  H   -0.031074  -0.008893  -0.000241   0.000009  -0.000013   0.000000
    29  H    0.003537  -0.000093   0.000003  -0.000000   0.000000  -0.000000
              13         14         15         16         17         18
     1  C    0.000000  -0.000000   0.000000   0.000151  -0.002275   0.380617
     2  C    0.000000   0.000000   0.000000   0.005478  -0.074016  -0.027974
     3  C   -0.000000  -0.000000  -0.000000   0.000088  -0.002186  -0.003109
     4  C   -0.000000  -0.000017   0.000002  -0.030636   0.455266   0.004625
     5  N    0.000001  -0.000043  -0.000000  -0.042860  -0.034921  -0.000029
     6  N   -0.000129   0.001472  -0.000021  -0.039209  -0.043404   0.000002
     7  C    0.008613  -0.046776  -0.004579   0.451815  -0.029270  -0.000000
     8  C   -0.052451   0.421997  -0.054231  -0.059814   0.005948   0.000000
     9  C   -0.046233  -0.019494   0.002755   0.007886  -0.000078  -0.000000
    10  C   -0.023552  -0.043909  -0.000107  -0.000170   0.000002   0.000000
    11  C    0.426672  -0.003623   0.003534  -0.000008   0.000000  -0.000000
    12  I   -0.069467  -0.000077  -0.000052  -0.000000   0.000000   0.000000
    13  C    5.038365   0.462046  -0.046092   0.000109  -0.000001  -0.000000
    14  C    0.462046   4.629652   0.306246  -0.008474   0.000239   0.000000
    15  F   -0.046092   0.306246   9.070877   0.002020   0.000140   0.000000
    16  C    0.000109  -0.008474   0.002020   4.973353   0.494990   0.000002
    17  C   -0.000001   0.000239   0.000140   0.494990   4.974118  -0.000072
    18  H   -0.000000   0.000000   0.000000   0.000002  -0.000072   0.598991
    19  H   -0.000000   0.000000  -0.000000  -0.000035   0.000594  -0.029498
    20  H    0.000000   0.000000   0.000000  -0.000059   0.002901  -0.031421
    21  H   -0.000000   0.000000  -0.000000  -0.000150   0.007173  -0.005045
    22  H   -0.000000  -0.000000  -0.000000  -0.000057   0.002911  -0.000317
    23  H    0.000000   0.000000  -0.000000   0.000002  -0.000076   0.003090
    24  H    0.000000  -0.000000  -0.000000  -0.000026   0.000578  -0.000034
    25  H    0.000022   0.003973  -0.000015   0.000658   0.000005  -0.000000
    26  H    0.004077   0.000934   0.000000   0.000001  -0.000000  -0.000000
    27  H    0.359406  -0.024252  -0.000817   0.000004  -0.000000  -0.000000
    28  H   -0.000009   0.001398   0.007627   0.361211  -0.040567  -0.000000
    29  H   -0.000000  -0.000010  -0.000001  -0.041142   0.366745  -0.000075
              19         20         21         22         23         24
     1  C    0.381934   0.379319  -0.039937  -0.005737  -0.003075   0.004982
     2  C   -0.031533  -0.032888   0.373718  -0.032939  -0.028015  -0.031586
     3  C    0.004960  -0.005745  -0.039822   0.379347   0.380895   0.381485
     4  C   -0.001448  -0.007738  -0.040074  -0.007706   0.004601  -0.001402
     5  N    0.000731  -0.000031   0.007458  -0.000032  -0.000030   0.000749
     6  N   -0.000036   0.000005  -0.000131   0.000004   0.000002  -0.000036
     7  C   -0.000003  -0.000008   0.000052  -0.000008  -0.000000  -0.000005
     8  C   -0.000000  -0.000000  -0.000000  -0.000000  -0.000000  -0.000000
     9  C   -0.000000   0.000000  -0.000000   0.000000  -0.000000   0.000000
    10  C    0.000000   0.000000  -0.000000   0.000000  -0.000000  -0.000000
    11  C   -0.000000  -0.000000  -0.000000  -0.000000  -0.000000  -0.000000
    12  I    0.000000  -0.000000  -0.000000  -0.000000  -0.000000  -0.000000
    13  C   -0.000000   0.000000  -0.000000  -0.000000   0.000000   0.000000
    14  C    0.000000   0.000000   0.000000  -0.000000   0.000000  -0.000000
    15  F   -0.000000   0.000000  -0.000000  -0.000000  -0.000000  -0.000000
    16  C   -0.000035  -0.000059  -0.000150  -0.000057   0.000002  -0.000026
    17  C    0.000594   0.002901   0.007173   0.002911  -0.000076   0.000578
    18  H   -0.029498  -0.031421  -0.005045  -0.000317   0.003090  -0.000034
    19  H    0.592042  -0.032340  -0.002996  -0.000031  -0.000033  -0.000195
    20  H   -0.032340   0.616935   0.005510   0.004672  -0.000317  -0.000031
    21  H   -0.002996   0.005510   0.616341   0.005514  -0.005075  -0.003009
    22  H   -0.000031   0.004672   0.005514   0.617173  -0.031402  -0.032480
    23  H   -0.000033  -0.000317  -0.005075  -0.031402   0.598521  -0.029549
    24  H   -0.000195  -0.000031  -0.003009  -0.032480  -0.029549   0.594174
    25  H    0.000000   0.000000  -0.000000   0.000000  -0.000000  -0.000000
    26  H   -0.000000   0.000000   0.000000   0.000000   0.000000   0.000000
    27  H    0.000000   0.000000   0.000000  -0.000000  -0.000000   0.000000
    28  H    0.000000   0.000004   0.000004   0.000004  -0.000000   0.000000
    29  H   -0.000019   0.002066  -0.000055   0.002050  -0.000076  -0.000026
              25         26         27         28         29
     1  C    0.000000   0.000000   0.000000  -0.000001   0.000273
     2  C   -0.000000  -0.000000  -0.000000  -0.000108  -0.005685
     3  C    0.000000  -0.000000   0.000000  -0.000001   0.000345
     4  C    0.000029  -0.000000  -0.000000   0.003613  -0.036023
     5  N   -0.000352   0.000000  -0.000000  -0.000089   0.004765
     6  N    0.010222  -0.000004   0.000001   0.004705  -0.000117
     7  C   -0.009822  -0.000168  -0.000155  -0.031074   0.003537
     8  C   -0.041069   0.003687   0.006322  -0.008893  -0.000093
     9  C    0.378175  -0.027636   0.000565  -0.000241   0.000003
    10  C   -0.041888   0.372647   0.004201   0.000009  -0.000000
    11  C    0.006237  -0.042664  -0.041539  -0.000013   0.000000
    12  I   -0.000272  -0.001710  -0.003516   0.000000  -0.000000
    13  C    0.000022   0.004077   0.359406  -0.000009  -0.000000
    14  C    0.003973   0.000934  -0.024252   0.001398  -0.000010
    15  F   -0.000015   0.000000  -0.000817   0.007627  -0.000001
    16  C    0.000658   0.000001   0.000004   0.361211  -0.041142
    17  C    0.000005  -0.000000  -0.000000  -0.040567   0.366745
    18  H   -0.000000  -0.000000  -0.000000  -0.000000  -0.000075
    19  H    0.000000  -0.000000   0.000000   0.000000  -0.000019
    20  H    0.000000   0.000000   0.000000   0.000004   0.002066
    21  H   -0.000000   0.000000   0.000000   0.000004  -0.000055
    22  H    0.000000   0.000000  -0.000000   0.000004   0.002050
    23  H   -0.000000   0.000000  -0.000000  -0.000000  -0.000076
    24  H   -0.000000   0.000000   0.000000   0.000000  -0.000026
    25  H    0.572701  -0.005718   0.000011  -0.000029   0.000000
    26  H   -0.005718   0.587319  -0.000172   0.000000   0.000000
    27  H    0.000011  -0.000172   0.582545   0.000005   0.000000
    28  H   -0.000029   0.000000   0.000005   0.595685  -0.006177
    29  H    0.000000   0.000000   0.000000  -0.006177   0.603879
 Mulliken charges:
               1
     1  C   -0.315896
     2  C   -0.113756
     3  C   -0.315751
     4  C    0.290261
     5  N   -0.315813
     6  N   -0.321782
     7  C    0.223272
     8  C    0.015761
     9  C   -0.084675
    10  C   -0.027138
    11  C   -0.382806
    12  I    0.191622
    13  C   -0.061378
    14  C    0.318717
    15  F   -0.287286
    16  C   -0.075129
    17  C   -0.084743
    18  H    0.110247
    19  H    0.117903
    20  H    0.099166
    21  H    0.120525
    22  H    0.099033
    23  H    0.110538
    24  H    0.116412
    25  H    0.127130
    26  H    0.109407
    27  H    0.117391
    28  H    0.112936
    29  H    0.105834
 Sum of Mulliken charges =  -0.00000
 Mulliken charges with hydrogens summed into heavy atoms:
               1
     1  C    0.011420
     2  C    0.006769
     3  C    0.010231
     4  C    0.290261
     5  N   -0.315813
     6  N   -0.321782
     7  C    0.223272
     8  C    0.015761
     9  C    0.042455
    10  C    0.082269
    11  C   -0.382806
    12  I    0.191622
    13  C    0.056013
    14  C    0.318717
    15  F   -0.287286
    16  C    0.037806
    17  C    0.021091
 Electronic spatial extent (au):  <R**2>=           7151.0034
 Charge=             -0.0000 electrons
 Dipole moment (field-independent basis, Debye):
    X=              1.5433    Y=              1.7778    Z=              2.2005  Tot=              3.2225
 Quadrupole moment (field-independent basis, Debye-Ang):
   XX=            -97.6234   YY=           -112.0087   ZZ=           -115.0703
   XY=              7.5304   XZ=              6.1312   YZ=             -1.7672
 Traceless Quadrupole moment (field-independent basis, Debye-Ang):
   XX=             10.6108   YY=             -3.7745   ZZ=             -6.8362
   XY=              7.5304   XZ=              6.1312   YZ=             -1.7672
 Octapole moment (field-independent basis, Debye-Ang**2):
  XXX=           -214.5854  YYY=              5.5479  ZZZ=             -0.5399  XYY=           -119.2805
  XXY=             25.7381  XXZ=             15.9705  XZZ=           -102.1528  YZZ=              8.9106
  YYZ=              9.5998  XYZ=             -2.9917
 Hexadecapole moment (field-independent basis, Debye-Ang**3):
 XXXX=          -9552.0574 YYYY=           -744.1698 ZZZZ=           -335.5552 XXXY=             73.8690
 XXXZ=             23.0231 YYYX=             63.0139 YYYZ=             -7.6530 ZZZX=            -11.0587
 ZZZY=             -4.4713 XXYY=          -1895.7908 XXZZ=          -1845.0148 YYZZ=           -183.6946
 XXYZ=            -12.4235 YYXZ=             26.1307 ZZXY=             27.6503
 N-N= 1.073787820771D+03 E-N=-3.825064483847D+03  KE= 7.084028494604D+02
   1 Symmetry operations used in ECPInt.
 ECPInt:  NShTT=    5460 NPrTT=   29729 LenC2=    4597 LenP2D=   15807.
 LDataN:  DoStor=T MaxTD1= 6 Len=  172
 Calling FoFJK, ICntrl=      2127 FMM=F ISym2X=0 I1Cent= 0 IOpClX= 0 NMat=1 NMatS=1 NMatT=0.
 Defaulting to unpruned grid for atomic number  53.
 Defaulting to unpruned grid for atomic number  53.
 Defaulting to unpruned grid for atomic number  53.
 Defaulting to unpruned grid for atomic number  53.
 Defaulting to unpruned grid for atomic number  53.
 Defaulting to unpruned grid for atomic number  53.
 Defaulting to unpruned grid for atomic number  53.
 Defaulting to unpruned grid for atomic number  53.
 Defaulting to unpruned grid for atomic number  53.
 Defaulting to unpruned grid for atomic number  53.
 Defaulting to unpruned grid for atomic number  53.
 Defaulting to unpruned grid for atomic number  53.
 Defaulting to unpruned grid for atomic number  53.
 Defaulting to unpruned grid for atomic number  53.
 Defaulting to unpruned grid for atomic number  53.
 Defaulting to unpruned grid for atomic number  53.
 ***** Axes restored to original set *****
 -------------------------------------------------------------------
 Center     Atomic                   Forces (Hartrees/Bohr)
 Number     Number              X              Y              Z
 -------------------------------------------------------------------
      1        6           0.003611718   -0.000221890   -0.000701730
      2        6          -0.001482749    0.000028480   -0.001667262
      3        6           0.003432664   -0.000640247   -0.000719898
      4        6          -0.004959447   -0.000157118   -0.012054390
      5        7           0.010891159    0.000387166    0.012612691
      6        7          -0.000558921    0.000681538    0.010957902
      7        6          -0.009460977    0.000157545   -0.010894946
      8        6          -0.011812833   -0.000801386    0.006061411
      9        6           0.007198982   -0.005212072    0.002440254
     10        6          -0.002887468    0.002271153   -0.002167080
     11        6          -0.016346361    0.000991730    0.004462493
     12       53           0.012005457   -0.001101919   -0.002800283
     13        6           0.000558081   -0.004810661    0.005965895
     14        6           0.004968868    0.007908573   -0.011329675
     15        9          -0.000145158    0.004180233   -0.003997882
     16        6          -0.009958830   -0.000144800    0.004493186
     17        6           0.012892172   -0.001469232   -0.007667805
     18        1          -0.002415008    0.002398541   -0.000107807
     19        1           0.001147104   -0.001397217   -0.001391699
     20        1           0.001374109    0.000264785    0.003528950
     21        1           0.005115764   -0.000431438   -0.003327974
     22        1           0.001318906   -0.000461634    0.003542100
     23        1          -0.002702448   -0.001898729   -0.000092310
     24        1           0.001430225    0.001252389   -0.001436394
     25        1          -0.003938323   -0.000590605    0.000777415
     26        1          -0.000376159    0.001826824   -0.001820548
     27        1          -0.000211632   -0.002825844    0.003240540
     28        1           0.002862830   -0.000749275    0.000837307
     29        1          -0.001551728    0.000565109    0.003257538
 -------------------------------------------------------------------
 Cartesian Forces:  Max     0.016346361 RMS     0.005195585

 GradGradGradGradGradGradGradGradGradGradGradGradGradGradGradGradGradGrad
 Berny optimization.
 FormGI is forming the generalized inverse of G from B-inverse, IUseBI=4.
 Internal  Forces:  Max     0.017548680 RMS     0.003826503
 Search for a local minimum.
 Step number   1 out of a maximum of  159
 All quantities printed in internal units (Hartrees-Bohrs-Radians)
 Mixed Optimization -- RFO/linear search
 Second derivative matrix not updated -- first step.
 ITU=  0
     Eigenvalues ---    0.00238   0.00239   0.00393   0.00834   0.01344
     Eigenvalues ---    0.01642   0.01652   0.02025   0.02071   0.02092
     Eigenvalues ---    0.02113   0.02128   0.02134   0.02137   0.02150
     Eigenvalues ---    0.02167   0.02176   0.02179   0.02188   0.02198
     Eigenvalues ---    0.03518   0.04847   0.05325   0.05327   0.05409
     Eigenvalues ---    0.05409   0.05657   0.14343   0.16000   0.16000
     Eigenvalues ---    0.16000   0.16000   0.16000   0.16000   0.16000
     Eigenvalues ---    0.16000   0.16000   0.16000   0.16000   0.17175
     Eigenvalues ---    0.18468   0.22370   0.22473   0.23490   0.24486
     Eigenvalues ---    0.24606   0.24996   0.24998   0.24999   0.25000
     Eigenvalues ---    0.25000   0.25000   0.28527   0.28535   0.29591
     Eigenvalues ---    0.32920   0.34398   0.34692   0.34707   0.34744
     Eigenvalues ---    0.34758   0.34761   0.34763   0.35866   0.35942
     Eigenvalues ---    0.35997   0.36043   0.36105   0.41760   0.41886
     Eigenvalues ---    0.43267   0.44169   0.45102   0.46103   0.46180
     Eigenvalues ---    0.46519   0.46925   0.50587   0.51763   0.54238
     Eigenvalues ---    0.55266
 RFO step:  Lambda=-8.10668365D-03 EMin= 2.38063479D-03
 Linear search not attempted -- first point.
 Iteration  1 RMS(Cart)=  0.08908291 RMS(Int)=  0.00198513
 Iteration  2 RMS(Cart)=  0.00348473 RMS(Int)=  0.00008573
 Iteration  3 RMS(Cart)=  0.00000514 RMS(Int)=  0.00008569
 Iteration  4 RMS(Cart)=  0.00000000 RMS(Int)=  0.00008569
 Variable       Old X    -DE/DX   Delta X   Delta X   Delta X     New X
                                 (Linear)    (Quad)   (Total)
    R1        2.90983  -0.00168   0.00000  -0.00572  -0.00572   2.90411
    R2        2.06065   0.00254   0.00000   0.00715   0.00715   2.06779
    R3        2.06178   0.00212   0.00000   0.00596   0.00596   2.06774
    R4        2.06070   0.00375   0.00000   0.01055   0.01055   2.07125
    R5        2.91000  -0.00174   0.00000  -0.00594  -0.00594   2.90406
    R6        2.88787  -0.01109   0.00000  -0.03648  -0.03648   2.85139
    R7        2.06664   0.00091   0.00000   0.00257   0.00257   2.06921
    R8        2.06062   0.00377   0.00000   0.01059   0.01059   2.07121
    R9        2.06092   0.00244   0.00000   0.00685   0.00685   2.06777
   R10        2.06154   0.00223   0.00000   0.00628   0.00628   2.06781
   R11        2.57108  -0.01499   0.00000  -0.02856  -0.02859   2.54250
   R12        2.63997   0.00007   0.00000   0.00097   0.00096   2.64093
   R13        2.53895  -0.01628   0.00000  -0.02971  -0.02973   2.50921
   R14        2.57899  -0.01755   0.00000  -0.03401  -0.03400   2.54499
   R15        2.82491  -0.01095   0.00000  -0.03247  -0.03247   2.79244
   R16        2.64577  -0.00109   0.00000  -0.00169  -0.00165   2.64412
   R17        2.65463  -0.00493   0.00000  -0.01182  -0.01183   2.64281
   R18        2.66033  -0.00897   0.00000  -0.02113  -0.02108   2.63925
   R19        2.63585  -0.00234   0.00000  -0.00474  -0.00479   2.63105
   R20        2.04291   0.00163   0.00000   0.00444   0.00444   2.04735
   R21        2.62985   0.00473   0.00000   0.01109   0.01104   2.64089
   R22        2.04172   0.00225   0.00000   0.00611   0.00611   2.04783
   R23        3.95003   0.01237   0.00000   0.08161   0.08161   4.03163
   R24        2.63027   0.00185   0.00000   0.00485   0.00486   2.63513
   R25        2.63515  -0.00623   0.00000  -0.01336  -0.01331   2.62185
   R26        2.03918   0.00323   0.00000   0.00874   0.00874   2.04792
   R27        2.55815  -0.00534   0.00000  -0.00971  -0.00971   2.54845
   R28        2.63387  -0.01254   0.00000  -0.02488  -0.02486   2.60901
   R29        2.04086   0.00254   0.00000   0.00689   0.00689   2.04775
   R30        2.04015   0.00361   0.00000   0.00980   0.00980   2.04994
    A1        1.94216  -0.00271   0.00000  -0.01746  -0.01751   1.92465
    A2        1.93857  -0.00036   0.00000   0.00005   0.00006   1.93863
    A3        1.95129  -0.00022   0.00000  -0.00220  -0.00224   1.94904
    A4        1.87403   0.00182   0.00000   0.01249   0.01249   1.88652
    A5        1.87703   0.00108   0.00000   0.00236   0.00228   1.87931
    A6        1.87723   0.00062   0.00000   0.00613   0.00613   1.88337
    A7        1.95069  -0.00097   0.00000  -0.00440  -0.00482   1.94587
    A8        1.95153  -0.00014   0.00000  -0.01212  -0.01223   1.93931
    A9        1.86191   0.00184   0.00000   0.03182   0.03147   1.89338
   A10        1.95172  -0.00019   0.00000  -0.01249  -0.01260   1.93912
   A11        1.86244   0.00181   0.00000   0.03127   0.03091   1.89335
   A12        1.87946  -0.00221   0.00000  -0.03071  -0.03038   1.84909
   A13        1.95104  -0.00020   0.00000  -0.00207  -0.00211   1.94893
   A14        1.94171  -0.00267   0.00000  -0.01715  -0.01719   1.92451
   A15        1.93883  -0.00036   0.00000   0.00000   0.00000   1.93883
   A16        1.87695   0.00106   0.00000   0.00235   0.00227   1.87922
   A17        1.87778   0.00059   0.00000   0.00584   0.00585   1.88362
   A18        1.87405   0.00180   0.00000   0.01235   0.01235   1.88640
   A19        2.03195  -0.00273   0.00000  -0.01118  -0.01116   2.02079
   A20        2.12759   0.00181   0.00000   0.00639   0.00641   2.13400
   A21        2.12364   0.00092   0.00000   0.00479   0.00474   2.12839
   A22        2.09506   0.00242   0.00000   0.00475   0.00467   2.09973
   A23        2.10767  -0.00166   0.00000  -0.01152  -0.01153   2.09613
   A24        2.03327  -0.00650   0.00000  -0.02556  -0.02561   2.00767
   A25        2.10826   0.00606   0.00000   0.02401   0.02402   2.13228
   A26        2.14146   0.00043   0.00000   0.00126   0.00121   2.14267
   A27        2.09655   0.00082   0.00000   0.00496   0.00490   2.10145
   A28        2.12738   0.00123   0.00000   0.00654   0.00648   2.13386
   A29        2.05925  -0.00204   0.00000  -0.01150  -0.01148   2.04778
   A30        2.11513   0.00161   0.00000   0.00610   0.00603   2.12116
   A31        2.09206  -0.00450   0.00000  -0.02501  -0.02501   2.06705
   A32        2.07598   0.00289   0.00000   0.01897   0.01897   2.09495
   A33        2.09350  -0.00297   0.00000  -0.00932  -0.00941   2.08409
   A34        2.09723   0.00015   0.00000  -0.00328  -0.00323   2.09399
   A35        2.09246   0.00282   0.00000   0.01260   0.01264   2.10510
   A36        2.09628   0.00023   0.00000  -0.00146  -0.00145   2.09484
   A37        2.09092   0.00156   0.00000   0.01079   0.01076   2.10168
   A38        2.09598  -0.00180   0.00000  -0.00933  -0.00931   2.08667
   A39        2.10054  -0.00711   0.00000  -0.02879  -0.02872   2.07182
   A40        2.09589   0.00645   0.00000   0.03163   0.03159   2.12748
   A41        2.08675   0.00066   0.00000  -0.00284  -0.00287   2.08388
   A42        2.10702   0.00895   0.00000   0.03268   0.03277   2.13979
   A43        2.11408  -0.00718   0.00000  -0.02677  -0.02685   2.08723
   A44        2.06203  -0.00177   0.00000  -0.00579  -0.00587   2.05616
   A45        2.07024  -0.00574   0.00000  -0.01938  -0.01933   2.05091
   A46        2.11498   0.00117   0.00000  -0.00042  -0.00045   2.11453
   A47        2.09795   0.00457   0.00000   0.01982   0.01979   2.11774
   A48        2.06145  -0.00201   0.00000  -0.00265  -0.00264   2.05881
   A49        2.11461   0.00062   0.00000  -0.00096  -0.00097   2.11364
   A50        2.10713   0.00139   0.00000   0.00360   0.00359   2.11072
    D1        1.03945   0.00089   0.00000   0.01390   0.01397   1.05342
    D2       -3.04062  -0.00023   0.00000  -0.01579  -0.01569  -3.05631
    D3       -0.99011  -0.00186   0.00000  -0.04018  -0.04028  -1.03039
    D4        3.12632   0.00115   0.00000   0.01811   0.01816  -3.13871
    D5       -0.95375   0.00003   0.00000  -0.01158  -0.01151  -0.96526
    D6        1.09676  -0.00160   0.00000  -0.03597  -0.03610   1.06066
    D7       -1.05981   0.00154   0.00000   0.02445   0.02448  -1.03534
    D8        1.14330   0.00042   0.00000  -0.00524  -0.00519   1.13812
    D9       -3.08937  -0.00121   0.00000  -0.02963  -0.02978  -3.11915
   D10        1.06008  -0.00153   0.00000  -0.02442  -0.02444   1.03564
   D11       -1.03860  -0.00090   0.00000  -0.01419  -0.01425  -1.05285
   D12       -3.12535  -0.00116   0.00000  -0.01839  -0.01843   3.13940
   D13       -1.14294  -0.00043   0.00000   0.00507   0.00501  -1.13792
   D14        3.04157   0.00020   0.00000   0.01531   0.01521   3.05678
   D15        0.95481  -0.00006   0.00000   0.01110   0.01102   0.96584
   D16        3.08931   0.00124   0.00000   0.03000   0.03015   3.11946
   D17        0.99064   0.00187   0.00000   0.04024   0.04034   1.03098
   D18       -1.09612   0.00161   0.00000   0.03604   0.03616  -1.05996
   D19        2.04227   0.00083   0.00000   0.01464   0.01464   2.05691
   D20       -1.09963   0.00073   0.00000   0.00973   0.00974  -1.08989
   D21       -2.03836  -0.00072   0.00000  -0.01065  -0.01066  -2.04902
   D22        1.10293  -0.00082   0.00000  -0.01556  -0.01556   1.08737
   D23        0.00234   0.00002   0.00000   0.00155   0.00155   0.00388
   D24       -3.13957  -0.00008   0.00000  -0.00336  -0.00335   3.14027
   D25       -3.13934   0.00024   0.00000   0.00695   0.00704  -3.13230
   D26        0.00256   0.00034   0.00000   0.01184   0.01192   0.01448
   D27        3.14006   0.00006   0.00000   0.00242   0.00249  -3.14064
   D28       -0.00211  -0.00014   0.00000  -0.00430  -0.00426  -0.00637
   D29       -0.00186  -0.00004   0.00000  -0.00275  -0.00271  -0.00457
   D30        3.13915  -0.00025   0.00000  -0.00947  -0.00946   3.12969
   D31        0.00325  -0.00045   0.00000  -0.01443  -0.01439  -0.01114
   D32       -3.13053   0.00061   0.00000   0.02270   0.02264  -3.10789
   D33       -0.00968   0.00025   0.00000   0.00795   0.00790  -0.00178
   D34        0.66663  -0.00238   0.00000  -0.13901  -0.13894   0.52769
   D35       -2.47583  -0.00198   0.00000  -0.12264  -0.12249  -2.59832
   D36       -2.45378  -0.00208   0.00000  -0.12424  -0.12439  -2.57818
   D37        0.68694  -0.00168   0.00000  -0.10787  -0.10794   0.57900
   D38        0.01013   0.00002   0.00000   0.00110   0.00113   0.01126
   D39       -3.12722  -0.00009   0.00000  -0.00293  -0.00284  -3.13006
   D40        3.12966  -0.00044   0.00000  -0.01489  -0.01505   3.11462
   D41       -0.00769  -0.00055   0.00000  -0.01892  -0.01902  -0.02671
   D42        3.13661   0.00022   0.00000   0.00901   0.00899  -3.13759
   D43        0.00056  -0.00014   0.00000  -0.00321  -0.00310  -0.00254
   D44       -0.00415  -0.00016   0.00000  -0.00674  -0.00668  -0.01083
   D45       -3.14019  -0.00053   0.00000  -0.01896  -0.01877   3.12422
   D46       -3.13640  -0.00025   0.00000  -0.01026  -0.01019   3.13659
   D47        0.01688  -0.00065   0.00000  -0.02349  -0.02338  -0.00650
   D48        0.00434   0.00014   0.00000   0.00578   0.00579   0.01013
   D49       -3.12557  -0.00026   0.00000  -0.00745  -0.00740  -3.13296
   D50        0.00116   0.00009   0.00000   0.00339   0.00339   0.00455
   D51       -3.14024   0.00007   0.00000   0.00258   0.00255  -3.13769
   D52        3.13726   0.00043   0.00000   0.01536   0.01553  -3.13040
   D53       -0.00415   0.00041   0.00000   0.01456   0.01469   0.01054
   D54       -3.14141   0.00005   0.00000   0.00180   0.00180  -3.13961
   D55        0.00174   0.00003   0.00000   0.00121   0.00124   0.00298
   D56       -0.00000   0.00007   0.00000   0.00260   0.00264   0.00264
   D57       -3.14003   0.00005   0.00000   0.00201   0.00208  -3.13796
   D58       -0.00154  -0.00006   0.00000  -0.00220  -0.00220  -0.00375
   D59        3.13532  -0.00006   0.00000  -0.00190  -0.00189   3.13343
   D60       -3.14158  -0.00009   0.00000  -0.00279  -0.00277   3.13884
   D61       -0.00471  -0.00009   0.00000  -0.00249  -0.00246  -0.00717
   D62       -0.00156  -0.00003   0.00000  -0.00141  -0.00144  -0.00300
   D63        3.12868   0.00032   0.00000   0.01129   0.01138   3.14006
   D64       -3.13846  -0.00004   0.00000  -0.00180  -0.00184  -3.14030
   D65       -0.00821   0.00030   0.00000   0.01090   0.01098   0.00276
   D66       -0.00437  -0.00009   0.00000  -0.00346  -0.00348  -0.00784
   D67        3.13780   0.00012   0.00000   0.00324   0.00326   3.14107
   D68        3.13303   0.00001   0.00000   0.00049   0.00045   3.13348
   D69       -0.00799   0.00021   0.00000   0.00718   0.00720  -0.00080
         Item               Value     Threshold  Converged?
 Maximum Force            0.017549     0.000450     NO 
 RMS     Force            0.003827     0.000300     NO 
 Maximum Displacement     0.343444     0.001800     NO 
 RMS     Displacement     0.089772     0.001200     NO 
 Predicted change in Energy=-4.473642D-03
 GradGradGradGradGradGradGradGradGradGradGradGradGradGradGradGradGradGrad

                          Input orientation:                          
 ---------------------------------------------------------------------
 Center     Atomic      Atomic             Coordinates (Angstroms)
 Number     Number       Type             X           Y           Z
 ---------------------------------------------------------------------
      1          6           0       -3.991874   -0.739478    0.983037
      2          6           0       -3.367356    0.502171    0.327290
      3          6           0       -3.715365    1.783049    1.101805
      4          6           0       -1.873925    0.345601    0.179299
      5          7           0       -1.406302    0.358599   -1.082186
      6          7           0       -0.107034    0.217050   -1.316640
      7          6           0        0.752672    0.072295   -0.290145
      8          6           0        2.175311   -0.031642   -0.676002
      9          6           0        2.645777    0.611583   -1.825246
     10          6           0        3.980147    0.525572   -2.213245
     11          6           0        4.872111   -0.224408   -1.441925
     12         53           0        6.921865   -0.366553   -2.016297
     13          6           0        4.431635   -0.884694   -0.295413
     14          6           0        3.095752   -0.777556    0.063578
     15          9           0        2.688953   -1.424857    1.174517
     16          6           0        0.327208    0.066458    1.042794
     17          6           0       -1.025930    0.202382    1.280868
     18          1           0       -5.082124   -0.648842    1.004936
     19          1           0       -3.737518   -1.647523    0.428032
     20          1           0       -3.647800   -0.868136    2.015704
     21          1           0       -3.762502    0.593393   -0.689821
     22          1           0       -3.361840    1.737845    2.138275
     23          1           0       -4.799634    1.928140    1.126712
     24          1           0       -3.265758    2.662408    0.630698
     25          1           0        1.943407    1.181691   -2.421425
     26          1           0        4.318306    1.037224   -3.106663
     27          1           0        5.100783   -1.478703    0.316005
     28          1           0        1.034660   -0.040584    1.856608
     29          1           0       -1.416625    0.204715    2.292849
 ---------------------------------------------------------------------
                    Distance matrix (angstroms):
                    1          2          3          4          5
     1  C    0.000000
     2  C    1.536788   0.000000
     3  C    2.540414   1.536760   0.000000
     4  C    2.511792   1.508891   2.511608   0.000000
     5  N    3.486560   2.419291   3.482908   1.345431   0.000000
     6  N    4.614698   3.662444   4.617497   2.318677   1.327818
     7  C    4.979025   4.188156   4.982726   2.682179   2.317427
     8  C    6.425544   5.657978   6.415120   4.155739   3.625635
     9  C    7.332819   6.387735   7.099584   4.951430   4.127407
    10  C    8.681572   7.774360   8.472999   6.326675   5.506452
    11  C    9.204128   8.458538   9.178518   6.961486   6.315678
[...]
 Alpha virt. eigenvalues --    2.64101   2.66077   2.67099   2.68251   2.68504
 Alpha virt. eigenvalues --    2.69568   2.70987   2.71233   2.71520   2.74027
 Alpha virt. eigenvalues --    2.74713   2.75300   2.76127   2.76635   2.78237
 Alpha virt. eigenvalues --    2.79341   2.81172   2.82339   2.83352   2.83775
 Alpha virt. eigenvalues --    2.84480   2.84553   2.85341   2.87274   2.87648
 Alpha virt. eigenvalues --    2.88580   2.89886   2.90651   2.91409   2.92410
 Alpha virt. eigenvalues --    2.93576   2.95648   2.96396   2.97363   2.99332
 Alpha virt. eigenvalues --    2.99827   3.01206   3.01522   3.02899   3.04774
 Alpha virt. eigenvalues --    3.05205   3.06058   3.07435   3.09004   3.09958
 Alpha virt. eigenvalues --    3.11384   3.11829   3.12008   3.12761   3.13496
 Alpha virt. eigenvalues --    3.14576   3.14955   3.15226   3.16421   3.17212
 Alpha virt. eigenvalues --    3.17525   3.18907   3.19055   3.20563   3.20996
 Alpha virt. eigenvalues --    3.22205   3.24090   3.25127   3.25519   3.26595
 Alpha virt. eigenvalues --    3.27445   3.27867   3.28940   3.31181   3.31865
 Alpha virt. eigenvalues --    3.32377   3.33168   3.34126   3.34921   3.35769
 Alpha virt. eigenvalues --    3.36173   3.36813   3.37798   3.38401   3.39259
 Alpha virt. eigenvalues --    3.40704   3.41257   3.41941   3.42530   3.43160
 Alpha virt. eigenvalues --    3.44921   3.46578   3.47464   3.49105   3.50962
 Alpha virt. eigenvalues --    3.51668   3.52152   3.53041   3.53175   3.54106
 Alpha virt. eigenvalues --    3.55332   3.56817   3.57119   3.57701   3.58250
 Alpha virt. eigenvalues --    3.59540   3.60581   3.61884   3.64249   3.65063
 Alpha virt. eigenvalues --    3.65993   3.66614   3.70765   3.71330   3.73378
 Alpha virt. eigenvalues --    3.75518   3.76935   3.78344   3.80180   3.81315
 Alpha virt. eigenvalues --    3.86263   3.87156   3.88347   3.90775   3.91217
 Alpha virt. eigenvalues --    3.94309   3.95564   3.95846   3.97116   3.98836
 Alpha virt. eigenvalues --    3.99607   4.00589   4.01077   4.03271   4.03793
 Alpha virt. eigenvalues --    4.05485   4.07674   4.08202   4.08534   4.10823
 Alpha virt. eigenvalues --    4.11858   4.14553   4.15296   4.16323   4.17808
 Alpha virt. eigenvalues --    4.19110   4.19763   4.20094   4.23431   4.26188
 Alpha virt. eigenvalues --    4.26661   4.29002   4.29368   4.30401   4.32359
 Alpha virt. eigenvalues --    4.33435   4.34684   4.35711   4.40178   4.41151
 Alpha virt. eigenvalues --    4.42688   4.44131   4.47405   4.52481   4.53517
 Alpha virt. eigenvalues --    4.54228   4.56639   4.58051   4.60731   4.62529
 Alpha virt. eigenvalues --    4.63901   4.65650   4.66030   4.66679   4.69757
 Alpha virt. eigenvalues --    4.72904   4.76673   4.77042   4.80177   4.83101
 Alpha virt. eigenvalues --    4.84538   4.87258   4.88879   4.88972   4.92331
 Alpha virt. eigenvalues --    4.98263   5.00717   5.03116   5.03440   5.04134
 Alpha virt. eigenvalues --    5.06148   5.09457   5.11340   5.15536   5.20298
 Alpha virt. eigenvalues --    5.23770   5.30082   5.30898   5.35235   5.38487
 Alpha virt. eigenvalues --    5.46995   5.55425   5.60761   5.65276   5.69023
 Alpha virt. eigenvalues --    5.70113   5.79141   5.94478   6.41412   6.89746
 Alpha virt. eigenvalues --    6.91013   6.99409   7.05365   7.09432   7.22209
 Alpha virt. eigenvalues --    7.38283   7.53910   8.36282   8.54642   8.73971
 Alpha virt. eigenvalues --    8.96838   9.01044  15.26709  22.20521  22.45669
 Alpha virt. eigenvalues --   22.45746  22.56808  22.65819  22.67257  22.71876
 Alpha virt. eigenvalues --   22.85233  22.90023  22.93962  23.01884  23.28842
 Alpha virt. eigenvalues --   23.51744  32.43561  32.63315  57.51578
          Condensed to atoms (all electrons):
               1          2          3          4          5          6
     1  C    5.105055   0.244819  -0.077090  -0.007120   0.000524  -0.000888
     2  C    0.244819   5.443785   0.244084   0.117387  -0.070867   0.017536
     3  C   -0.077090   0.244084   5.103672  -0.005317   0.000907  -0.000874
     4  C   -0.007120   0.117387  -0.005317   5.092481   0.530763  -0.070229
     5  N    0.000524  -0.070867   0.000907   0.530763   6.566663   0.257844
     6  N   -0.000888   0.017536  -0.000874  -0.070229   0.257844   6.638150
     7  C   -0.000609  -0.015468  -0.000419  -0.078929  -0.067329   0.490362
     8  C   -0.000012  -0.001358   0.000028  -0.009498   0.009906  -0.131712
     9  C    0.000005   0.000009  -0.000002   0.002634  -0.001449   0.030913
    10  C   -0.000000   0.000002  -0.000000   0.000064  -0.000175  -0.004836
    11  C    0.000000  -0.000001   0.000000  -0.000020   0.000001   0.000821
    12  I    0.000000  -0.000000   0.000000   0.000000   0.000002   0.000001
    13  C    0.000000  -0.000000   0.000000  -0.000020   0.000040  -0.000775
    14  C   -0.000007   0.000003   0.000001  -0.002070  -0.000312  -0.002775
    15  F    0.000000   0.000004  -0.000000   0.000258  -0.000004  -0.000158
    16  C    0.005925   0.029476   0.003841   0.019082  -0.004412  -0.081468
    17  C   -0.016693  -0.118527  -0.014974   0.374011  -0.081743  -0.033579
    18  H    0.416479  -0.055612  -0.000617   0.016656  -0.000326   0.000019
    19  H    0.416690  -0.056738   0.010826   0.009483   0.001242  -0.000150
    20  H    0.393220   0.009924  -0.013746  -0.031113   0.000722   0.000047
    21  H   -0.043845   0.491649  -0.043191  -0.108818   0.021262  -0.000727
    22  H   -0.013611   0.009909   0.393700  -0.031210   0.000657   0.000047
    23  H   -0.000760  -0.055803   0.416962   0.016783  -0.000318   0.000017
    24  H    0.010914  -0.056834   0.417109   0.009094   0.001195  -0.000126
    25  H    0.000001  -0.000016   0.000001   0.000610  -0.001823   0.025421
    26  H   -0.000000   0.000000  -0.000000  -0.000000   0.000004  -0.000156
    27  H   -0.000000   0.000000  -0.000000   0.000001  -0.000000   0.000018
    28  H   -0.000025   0.000393   0.000052   0.001617  -0.000711   0.004539
    29  H   -0.004965   0.008310  -0.005151  -0.004467   0.005212  -0.000747
               7          8          9         10         11         12
     1  C   -0.000609  -0.000012   0.000005  -0.000000   0.000000   0.000000
     2  C   -0.015468  -0.001358   0.000009   0.000002  -0.000001  -0.000000
     3  C   -0.000419   0.000028  -0.000002  -0.000000   0.000000   0.000000
     4  C   -0.078929  -0.009498   0.002634   0.000064  -0.000020   0.000000
     5  N   -0.067329   0.009906  -0.001449  -0.000175   0.000001   0.000002
     6  N    0.490362  -0.131712   0.030913  -0.004836   0.000821   0.000001
     7  C    5.040916   0.331355  -0.165000   0.043324  -0.025504  -0.000460
     8  C    0.331355   5.380836   0.148010   0.182041  -0.247781  -0.015367
     9  C   -0.165000   0.148010   5.629803  -0.110258   0.387157   0.049038
    10  C    0.043324   0.182041  -0.110258   5.798514  -0.209970  -0.185081
    11  C   -0.025504  -0.247781   0.387157  -0.209970   6.087292   0.446248
    12  I   -0.000460  -0.015367   0.049038  -0.185081   0.446248   6.804230
    13  C    0.036433   0.163425  -0.295383   0.320129  -0.226944  -0.183555
    14  C   -0.073541   0.289477   0.099648  -0.230927   0.326027   0.046370
    15  F   -0.016511  -0.056092   0.007628   0.000776   0.007816  -0.000208
    16  C    0.339069  -0.059612   0.056733  -0.006184   0.002404   0.000055
    17  C    0.033217   0.018565  -0.003969   0.000088   0.000053   0.000002
    18  H    0.000041   0.000000  -0.000000   0.000000  -0.000000  -0.000000
    19  H    0.000107   0.000022   0.000000  -0.000000   0.000000  -0.000000
    20  H   -0.000620  -0.000023  -0.000000  -0.000000   0.000000   0.000000
    21  H   -0.000118  -0.000040  -0.000013  -0.000000   0.000000  -0.000000
    22  H   -0.000737  -0.000022   0.000001  -0.000000   0.000000   0.000000
    23  H    0.000055   0.000001  -0.000000   0.000000  -0.000000  -0.000000
    24  H    0.000094   0.000004   0.000001  -0.000000  -0.000000   0.000000
    25  H   -0.005121  -0.033841   0.417552  -0.045745   0.007383   0.000011
    26  H    0.000743   0.015608  -0.055512   0.453061  -0.092489  -0.023344
    27  H    0.001290   0.025580  -0.010076   0.025026  -0.094002  -0.023211
    28  H   -0.002198   0.000811  -0.001351   0.000181  -0.000141   0.000003
    29  H   -0.001821   0.000293   0.000085  -0.000002  -0.000000  -0.000000
              13         14         15         16         17         18
     1  C    0.000000  -0.000007   0.000000   0.005925  -0.016693   0.416479
     2  C   -0.000000   0.000003   0.000004   0.029476  -0.118527  -0.055612
     3  C    0.000000   0.000001  -0.000000   0.003841  -0.014974  -0.000617
     4  C   -0.000020  -0.002070   0.000258   0.019082   0.374011   0.016656
     5  N    0.000040  -0.000312  -0.000004  -0.004412  -0.081743  -0.000326
     6  N   -0.000775  -0.002775  -0.000158  -0.081468  -0.033579   0.000019
     7  C    0.036433  -0.073541  -0.016511   0.339069   0.033217   0.000041
     8  C    0.163425   0.289477  -0.056092  -0.059612   0.018565   0.000000
     9  C   -0.295383   0.099648   0.007628   0.056733  -0.003969  -0.000000
    10  C    0.320129  -0.230927   0.000776  -0.006184   0.000088   0.000000
    11  C   -0.226944   0.326027   0.007816   0.002404   0.000053  -0.000000
    12  I   -0.183555   0.046370  -0.000208   0.000055   0.000002  -0.000000
    13  C    5.819058   0.037448  -0.044353  -0.007509  -0.000622   0.000000
    14  C    0.037448   5.155254   0.218671  -0.045186   0.007231   0.000000
    15  F   -0.044353   0.218671   9.076640   0.006796   0.000885   0.000000
    16  C   -0.007509  -0.045186   0.006796   5.242859   0.309183  -0.000186
    17  C   -0.000622   0.007231   0.000885   0.309183   5.366833   0.001304
    18  H    0.000000   0.000000   0.000000  -0.000186   0.001304   0.523373
    19  H   -0.000000  -0.000001  -0.000000  -0.000453  -0.002063  -0.019715
    20  H   -0.000000   0.000002  -0.000000   0.002736  -0.004514  -0.026989
    21  H   -0.000000   0.000004  -0.000000   0.000377   0.009188  -0.004771
    22  H   -0.000000  -0.000000   0.000000   0.003265  -0.005022  -0.000130
    23  H    0.000000   0.000000  -0.000000  -0.000222   0.001377   0.000996
    24  H    0.000000  -0.000001   0.000000  -0.000188  -0.002186  -0.000245
    25  H    0.000262  -0.000968  -0.000047   0.003654  -0.000413  -0.000000
    26  H    0.024585  -0.007039   0.000016  -0.000078   0.000002   0.000000
    27  H    0.447426  -0.060729   0.002256  -0.000103  -0.000009   0.000000
    28  H    0.000210  -0.010353   0.010456   0.371486  -0.020197  -0.000001
    29  H   -0.000002  -0.000093  -0.000059  -0.005133   0.356887   0.000190
              19         20         21         22         23         24
     1  C    0.416690   0.393220  -0.043845  -0.013611  -0.000760   0.010914
     2  C   -0.056738   0.009924   0.491649   0.009909  -0.055803  -0.056834
     3  C    0.010826  -0.013746  -0.043191   0.393700   0.416962   0.417109
     4  C    0.009483  -0.031113  -0.108818  -0.031210   0.016783   0.009094
     5  N    0.001242   0.000722   0.021262   0.000657  -0.000318   0.001195
     6  N   -0.000150   0.000047  -0.000727   0.000047   0.000017  -0.000126
     7  C    0.000107  -0.000620  -0.000118  -0.000737   0.000055   0.000094
     8  C    0.000022  -0.000023  -0.000040  -0.000022   0.000001   0.000004
     9  C    0.000000  -0.000000  -0.000013   0.000001  -0.000000   0.000001
    10  C   -0.000000  -0.000000  -0.000000  -0.000000   0.000000  -0.000000
    11  C    0.000000   0.000000   0.000000   0.000000  -0.000000  -0.000000
    12  I   -0.000000   0.000000  -0.000000   0.000000  -0.000000   0.000000
    13  C   -0.000000  -0.000000  -0.000000  -0.000000   0.000000   0.000000
    14  C   -0.000001   0.000002   0.000004  -0.000000   0.000000  -0.000001
    15  F   -0.000000  -0.000000  -0.000000   0.000000  -0.000000   0.000000
    16  C   -0.000453   0.002736   0.000377   0.003265  -0.000222  -0.000188
    17  C   -0.002063  -0.004514   0.009188  -0.005022   0.001377  -0.002186
    18  H   -0.019715  -0.026989  -0.004771  -0.000130   0.000996  -0.000245
    19  H    0.509648  -0.024520  -0.003401  -0.000161  -0.000240  -0.000344
    20  H   -0.024520   0.548910   0.006768   0.005083  -0.000096  -0.000167
    21  H   -0.003401   0.006768   0.525886   0.006741  -0.004719  -0.003548
    22  H   -0.000161   0.005083   0.006741   0.549254  -0.026695  -0.025025
    23  H   -0.000240  -0.000096  -0.004719  -0.026695   0.522016  -0.019708
    24  H   -0.000344  -0.000167  -0.003548  -0.025025  -0.019708   0.510823
    25  H    0.000000  -0.000000  -0.000008  -0.000000  -0.000000   0.000000
    26  H    0.000000  -0.000000   0.000000  -0.000000   0.000000  -0.000000
    27  H    0.000000  -0.000000  -0.000000  -0.000000   0.000000   0.000000
    28  H    0.000008   0.000039   0.000030   0.000050  -0.000002   0.000001
    29  H    0.000185  -0.001873  -0.000752  -0.001946   0.000192   0.000226
              25         26         27         28         29
     1  C    0.000001  -0.000000  -0.000000  -0.000025  -0.004965
     2  C   -0.000016   0.000000   0.000000   0.000393   0.008310
     3  C    0.000001  -0.000000  -0.000000   0.000052  -0.005151
     4  C    0.000610  -0.000000   0.000001   0.001617  -0.004467
     5  N   -0.001823   0.000004  -0.000000  -0.000711   0.005212
     6  N    0.025421  -0.000156   0.000018   0.004539  -0.000747
     7  C   -0.005121   0.000743   0.001290  -0.002198  -0.001821
     8  C   -0.033841   0.015608   0.025580   0.000811   0.000293
     9  C    0.417552  -0.055512  -0.010076  -0.001351   0.000085
    10  C   -0.045745   0.453061   0.025026   0.000181  -0.000002
    11  C    0.007383  -0.092489  -0.094002  -0.000141  -0.000000
    12  I    0.000011  -0.023344  -0.023211   0.000003  -0.000000
    13  C    0.000262   0.024585   0.447426   0.000210  -0.000002
    14  C   -0.000968  -0.007039  -0.060729  -0.010353  -0.000093
    15  F   -0.000047   0.000016   0.002256   0.010456  -0.000059
    16  C    0.003654  -0.000078  -0.000103   0.371486  -0.005133
    17  C   -0.000413   0.000002  -0.000009  -0.020197   0.356887
    18  H   -0.000000   0.000000   0.000000  -0.000001   0.000190
    19  H    0.000000   0.000000   0.000000   0.000008   0.000185
    20  H   -0.000000  -0.000000  -0.000000   0.000039  -0.001873
    21  H   -0.000008   0.000000  -0.000000   0.000030  -0.000752
    22  H   -0.000000  -0.000000  -0.000000   0.000050  -0.001946
    23  H   -0.000000   0.000000   0.000000  -0.000002   0.000192
    24  H    0.000000  -0.000000   0.000000   0.000001   0.000226
    25  H    0.446014  -0.003290   0.000023  -0.000056   0.000007
    26  H   -0.003290   0.497225   0.000457  -0.000001   0.000000
    27  H    0.000023   0.000457   0.491889   0.000081   0.000000
    28  H   -0.000056  -0.000001   0.000081   0.470623  -0.003721
    29  H    0.000007   0.000000   0.000000  -0.003721   0.480478
 Mulliken charges:
               1
     1  C   -0.428009
     2  C   -0.186065
     3  C   -0.429806
     4  C    0.157885
     5  N   -0.167475
     6  N   -0.136534
     7  C    0.137381
     8  C   -0.010605
     9  C   -0.186201
    10  C   -0.030030
    11  C   -0.368350
    12  I    0.085266
    13  C   -0.089853
    14  C    0.253866
    15  F   -0.214771
    16  C   -0.186208
    17  C   -0.174313
    18  H    0.149535
    19  H    0.159575
    20  H    0.136211
    21  H    0.152048
    22  H    0.135853
    23  H    0.150164
    24  H    0.158912
    25  H    0.190387
    26  H    0.190207
    27  H    0.194083
    28  H    0.178178
    29  H    0.178669
 Sum of Mulliken charges =  -0.00000
 Mulliken charges with hydrogens summed into heavy atoms:
               1
     1  C    0.017312
     2  C   -0.034018
     3  C    0.015123
     4  C    0.157885
     5  N   -0.167475
     6  N   -0.136534
     7  C    0.137381
     8  C   -0.010605
     9  C    0.004186
    10  C    0.160177
    11  C   -0.368350
    12  I    0.085266
    13  C    0.104230
    14  C    0.253866
    15  F   -0.214771
    16  C   -0.008030
    17  C    0.004356
 Electronic spatial extent (au):  <R**2>=           7127.1012
 Charge=              0.0000 electrons
 Dipole moment (field-independent basis, Debye):
    X=              1.8928    Y=              2.0346    Z=              0.9981  Tot=              2.9527
 Quadrupole moment (field-independent basis, Debye-Ang):
   XX=            -97.5368   YY=           -114.4699   ZZ=           -117.1580
   XY=              8.3385   XZ=              2.8350   YZ=             -0.5490
 Traceless Quadrupole moment (field-independent basis, Debye-Ang):
   XX=             12.1848   YY=             -4.7484   ZZ=             -7.4364
   XY=              8.3385   XZ=              2.8350   YZ=             -0.5490
 Octapole moment (field-independent basis, Debye-Ang**2):
  XXX=           -210.5490  YYY=              8.3412  ZZZ=             -2.4549  XYY=           -121.0073
  XXY=             26.4566  XXZ=              6.8927  XZZ=           -102.8396  YZZ=              2.2441
  YYZ=              6.6434  XYZ=             -0.2224
 Hexadecapole moment (field-independent basis, Debye-Ang**3):
 XXXX=          -9633.0180 YYYY=           -798.3285 ZZZZ=           -327.6366 XXXY=             75.9651
 XXXZ=              7.4401 YYYX=             98.0962 YYYZ=             -1.3218 ZZZX=            -12.9954
 ZZZY=             -3.2394 XXYY=          -1921.8925 XXZZ=          -1874.9679 YYZZ=           -192.9535
 XXYZ=             -1.1544 YYXZ=             19.6310 ZZXY=             10.1686
 N-N= 1.078589156667D+03 E-N=-3.836975732529D+03  KE= 7.115516293910D+02
 Unable to Open any file for archive entry.
 1\1\GINC-COMPUTE-0-32\SP\RM062X\Gen\C13H12F1I1N2\ZTAN64\14-Aug-2024\0\
 \# M062X gen pseudo=read int=(grid=ultrafine) nmr=giao guess=read geom
 =check\\pyrdz1.xyz\\0,1\C,0,-4.0441632587,-0.7149567128,0.8399386207\C
 ,0,-3.371394576,0.5668998895,0.3220897164\C,0,-3.7141701081,1.77564837
 64,1.2081282851\C,0,-1.8755360724,0.3860705842,0.1925867368\N,0,-1.372
 8196203,0.4952561552,-1.0460730969\N,0,-0.0721188878,0.3435114966,-1.2
 587410245\C,0,0.7714416077,0.0829335893,-0.2454401183\C,0,2.1965931397
 ,-0.0364786286,-0.6383969025\C,0,2.6149748412,0.4528798493,-1.88850848
 23\C,0,3.9353713804,0.3695858462,-2.3139549207\C,0,4.8810272326,-0.223
 5632218,-1.4775186912\I,0,6.9185128822,-0.3586617843,-2.1042070099\C,0
 ,4.5166706376,-0.7309784069,-0.2356019188\C,0,3.1869748001,-0.62776092
 09,0.1544145693\F,0,2.8723177024,-1.1509472285,1.3641595592\C,0,0.3053
 09019,-0.0309538101,1.0778340161\C,0,-1.0478940144,0.1231386504,1.2933
 952984\H,0,-5.1308661941,-0.5890305453,0.8722478205\H,0,-3.8176776145,
 -1.5686395133,0.1948092689\H,0,-3.7085497872,-0.9589923539,1.854137966
 1\H,0,-3.7293938663,0.7643814548,-0.6934752435\H,0,-3.3688448179,1.626
 5412388,2.2373460363\H,0,-4.7973647543,1.928326909,1.2420167137\H,0,-3
 .2517013214,2.6901749377,0.8258960771\H,0,1.8616721571,0.900937247,-2.
 5249756491\H,0,4.2210988717,0.7631935984,-3.2815241593\H,0,5.224434019
 8,-1.2054754581,0.4317546438\H,0,0.987444123,-0.224656626,1.8928995237
 \H,0,-1.4643475209,0.0488153878,2.2927623647\\Version=ES64L-G16RevC.01
 \State=1-A\HF=-723.2664413\RMSD=4.925e-09\Dipole=-0.473146,0.0821718,1
 .0577625\Quadrupole=4.7058797,-4.8896332,0.1837535,-0.5619913,-9.06082
 61,-0.3642323\PG=C01 [X(C13H12F1I1N2)]\\@
 The archive entry for this job was punched.


 WHEN HAVING A MEETING OF THE MINDS,
 MAKE SURE YOU HAVE THE EQUIPMENT FOR IT.
 Job cpu time:       0 days  1 hours 21 minutes 50.4 seconds.
 Elapsed time:       0 days  0 hours  5 minutes 24.4 seconds.
 File lengths (MBytes):  RWF=    189 Int=      0 D2E=      0 Chk=     31 Scr=      1
 Normal termination of Gaussian 16 at Wed Aug 14 20:20:30 2024.
 
 
-----Kestrel cluster job statistics-----
Time info:

real	25m29.132s
user	401m6.210s
sys	0m25.070s
 
Disk space usage:
31M	/scratch/362982.kestrel.chem.wisc.edu
