 Entering Gaussian System, Link 0=/share/apps/gaussian/g16/g16
 Initial command:
 /share/apps/gaussian/g16/l1.exe "/scratch/362963.kestrel.chem.wisc.edu/Gau-765.inp" -scrdir="/scratch/362963.kestrel.chem.wisc.edu/"
 Entering Link 1 = /share/apps/gaussian/g16/l1.exe PID=       766.
  
 Copyright (c) 1988-2019, Gaussian, Inc.  All Rights Reserved.
  
 This is part of the Gaussian(R) 16 program.  It is based on
 the Gaussian(R) 09 system (copyright 2009, Gaussian, Inc.),
 the Gaussian(R) 03 system (copyright 2003, Gaussian, Inc.),
 the Gaussian(R) 98 system (copyright 1998, Gaussian, Inc.),
 the Gaussian(R) 94 system (copyright 1995, Gaussian, Inc.),
 the Gaussian 92(TM) system (copyright 1992, Gaussian, Inc.),
 the Gaussian 90(TM) system (copyright 1990, Gaussian, Inc.),
 the Gaussian 88(TM) system (copyright 1988, Gaussian, Inc.),
 the Gaussian 86(TM) system (copyright 1986, Carnegie Mellon
 University), and the Gaussian 82(TM) system (copyright 1983,
 Carnegie Mellon University). Gaussian is a federally registered
 trademark of Gaussian, Inc.
  
 This software contains proprietary and confidential information,
 including trade secrets, belonging to Gaussian, Inc.
  
 This software is provided under written license and may be
 used, copied, transmitted, or stored only in accord with that
 written license.
  
 The following legend is applicable only to US Government
 contracts under FAR:
  
                    RESTRICTED RIGHTS LEGEND
  
 Use, reproduction and disclosure by the US Government is
 subject to restrictions as set forth in subparagraphs (a)
 and (c) of the Commercial Computer Software - Restricted
 Rights clause in FAR 52.227-19.
  
 Gaussian, Inc.
 340 Quinnipiac St., Bldg. 40, Wallingford CT 06492
  
  
 ---------------------------------------------------------------
 Warning -- This program may not be used in any manner that
 competes with the business of Gaussian, Inc. or will provide
 assistance to any competitor of Gaussian, Inc.  The licensee
 of this program is prohibited from giving any competitor of
 Gaussian, Inc. access to this program.  By using this program,
 the user acknowledges that Gaussian, Inc. is engaged in the
 business of creating and licensing software in the field of
 computational chemistry and represents and warrants to the
 licensee that it is not a competitor of Gaussian, Inc. and that
 it will not use this program in any manner prohibited above.
 ---------------------------------------------------------------
  

 Cite this work as:
 Gaussian 16, Revision C.01,
 M. J. Frisch, G. W. Trucks, H. B. Schlegel, G. E. Scuseria, 
 M. A. Robb, J. R. Cheeseman, G. Scalmani, V. Barone, 
 G. A. Petersson, H. Nakatsuji, X. Li, M. Caricato, A. V. Marenich, 
 J. Bloino, B. G. Janesko, R. Gomperts, B. Mennucci, H. P. Hratchian, 
 J. V. Ortiz, A. F. Izmaylov, J. L. Sonnenberg, D. Williams-Young, 
 F. Ding, F. Lipparini, F. Egidi, J. Goings, B. Peng, A. Petrone, 
 T. Henderson, D. Ranasinghe, V. G. Zakrzewski, J. Gao, N. Rega, 
 G. Zheng, W. Liang, M. Hada, M. Ehara, K. Toyota, R. Fukuda, 
 J. Hasegawa, M. Ishida, T. Nakajima, Y. Honda, O. Kitao, H. Nakai, 
 T. Vreven, K. Throssell, J. A. Montgomery, Jr., J. E. Peralta, 
 F. Ogliaro, M. J. Bearpark, J. J. Heyd, E. N. Brothers, K. N. Kudin, 
 V. N. Staroverov, T. A. Keith, R. Kobayashi, J. Normand, 
 K. Raghavachari, A. P. Rendell, J. C. Burant, S. S. Iyengar, 
 J. Tomasi, M. Cossi, J. M. Millam, M. Klene, C. Adamo, R. Cammi, 
 J. W. Ochterski, R. L. Martin, K. Morokuma, O. Farkas, 
 J. B. Foresman, and D. J. Fox, Gaussian, Inc., Wallingford CT, 2019.
 
 ******************************************
 Gaussian 16:  ES64L-G16RevC.01  3-Jul-2019
                14-Aug-2024 
 ******************************************
 %nprocs=16
 Will use up to   16 processors via shared memory.
 %mem=16GB
 %chk=pyrd3_conf-1.chk
 ----------------------------------------------------------------------
 # B3LYP/6-31G(d,p) symmetry=loose empiricaldispersion=GD3BJ int=(grid=
 ultrafine) opt freq=noraman
 ----------------------------------------------------------------------
 1/18=20,19=15,26=4,38=1/1,3;
 2/9=110,12=2,17=4,18=3,40=1/2;
 3/5=1,6=6,7=101,11=2,25=1,30=1,71=1,74=-5,75=-5,124=41/1,2,3;
 4//1;
 5/5=2,38=5/2;
 6/7=2,8=2,9=2,10=2,28=1/1;
 7//1,2,3,16;
 1/18=20,19=15,26=4/3(2);
 2/9=110/2;
 99//99;
 2/9=110/2;
 3/5=1,6=6,7=101,11=2,25=1,30=1,71=1,74=-5,75=-5,124=41/1,2,3;
 4/5=5,16=3,69=1/1;
 5/5=2,38=5/2;
 7//1,2,3,16;
 1/18=20,19=15,26=4/3(-5);
 2/9=110/2;
 6/7=2,8=2,9=2,10=2,19=2,28=1/1;
 99/9=1/99;
 ---------
 pyrd3.xyz
 ---------
 Symbolic Z-matrix:
 Charge =  0 Multiplicity = 1
 Br                   -2.5381    2.4379   -0.1031 
 C                    -1.417     0.9019   -0.0542 
 C                    -0.0297    1.0464   -0.0088 
 C                     0.7585   -0.1071    0.0262 
 C                     2.2702   -0.0349    0.0763 
 N                     0.2318   -1.3585    0.0179 
 C                    -1.12     -1.479    -0.0265 
 C                    -1.9767   -0.3764   -0.0634 
 H                     0.4134    2.0304   -0.0013 
 H                     2.6995   -0.5394   -0.7897 
 H                     2.6264    0.9952    0.0806 
 H                     2.6404   -0.5263    0.9763 
 H                    -1.5104   -2.4868   -0.0321 
 H                    -3.0483   -0.5035   -0.0983 
 

 GradGradGradGradGradGradGradGradGradGradGradGradGradGradGradGradGradGrad
 Berny optimization.
 Initialization pass.
                           ----------------------------
                           !    Initial Parameters    !
                           ! (Angstroms and Degrees)  !
 --------------------------                            --------------------------
 ! Name  Definition              Value          Derivative Info.                !
 --------------------------------------------------------------------------------
 ! R1    R(1,2)                  1.9022         estimate D2E/DX2                !
 ! R2    R(2,3)                  1.3955         estimate D2E/DX2                !
 ! R3    R(2,8)                  1.3955         estimate D2E/DX2                !
 ! R4    R(3,4)                  1.3975         estimate D2E/DX2                !
 ! R5    R(3,9)                  1.0792         estimate D2E/DX2                !
 ! R6    R(4,5)                  1.5143         estimate D2E/DX2                !
 ! R7    R(4,6)                  1.3577         estimate D2E/DX2                !
 ! R8    R(5,10)                 1.0903         estimate D2E/DX2                !
 ! R9    R(5,11)                 1.09           estimate D2E/DX2                !
 ! R10   R(5,12)                 1.0902         estimate D2E/DX2                !
 ! R11   R(6,7)                  1.3579         estimate D2E/DX2                !
 ! R12   R(7,8)                  1.3968         estimate D2E/DX2                !
 ! R13   R(7,13)                 1.0808         estimate D2E/DX2                !
 ! R14   R(8,14)                 1.0797         estimate D2E/DX2                !
 ! A1    A(1,2,3)              120.2054         estimate D2E/DX2                !
 ! A2    A(1,2,8)              120.2059         estimate D2E/DX2                !
 ! A3    A(3,2,8)              119.5887         estimate D2E/DX2                !
 ! A4    A(2,3,4)              118.4258         estimate D2E/DX2                !
 ! A5    A(2,3,9)              120.1852         estimate D2E/DX2                !
 ! A6    A(4,3,9)              121.389          estimate D2E/DX2                !
 ! A7    A(3,4,5)              121.6362         estimate D2E/DX2                !
 ! A8    A(3,4,6)              122.8064         estimate D2E/DX2                !
 ! A9    A(5,4,6)              115.5574         estimate D2E/DX2                !
 ! A10   A(4,5,10)             110.1657         estimate D2E/DX2                !
 ! A11   A(4,5,11)             111.8047         estimate D2E/DX2                !
 ! A12   A(4,5,12)             110.1709         estimate D2E/DX2                !
 ! A13   A(10,5,11)            108.1654         estimate D2E/DX2                !
 ! A14   A(10,5,12)            108.2663         estimate D2E/DX2                !
 ! A15   A(11,5,12)            108.1655         estimate D2E/DX2                !
 ! A16   A(4,6,7)              117.9157         estimate D2E/DX2                !
 ! A17   A(6,7,8)              122.7789         estimate D2E/DX2                !
 ! A18   A(6,7,13)             116.2645         estimate D2E/DX2                !
 ! A19   A(8,7,13)             120.9565         estimate D2E/DX2                !
 ! A20   A(2,8,7)              118.4845         estimate D2E/DX2                !
 ! A21   A(2,8,14)             120.406          estimate D2E/DX2                !
 ! A22   A(7,8,14)             121.1095         estimate D2E/DX2                !
 ! D1    D(1,2,3,4)            179.9964         estimate D2E/DX2                !
 ! D2    D(1,2,3,9)             -0.0044         estimate D2E/DX2                !
 ! D3    D(8,2,3,4)              0.0013         estimate D2E/DX2                !
 ! D4    D(8,2,3,9)           -179.9995         estimate D2E/DX2                !
 ! D5    D(1,2,8,7)           -179.9971         estimate D2E/DX2                !
 ! D6    D(1,2,8,14)             0.0016         estimate D2E/DX2                !
 ! D7    D(3,2,8,7)             -0.002          estimate D2E/DX2                !
 ! D8    D(3,2,8,14)           179.9967         estimate D2E/DX2                !
 ! D9    D(2,3,4,5)            179.9997         estimate D2E/DX2                !
 ! D10   D(2,3,4,6)             -0.0011         estimate D2E/DX2                !
 ! D11   D(9,3,4,5)              0.0005         estimate D2E/DX2                !
 ! D12   D(9,3,4,6)            179.9997         estimate D2E/DX2                !
 ! D13   D(3,4,5,10)          -120.3046         estimate D2E/DX2                !
 ! D14   D(3,4,5,11)             0.0026         estimate D2E/DX2                !
 ! D15   D(3,4,5,12)           120.3135         estimate D2E/DX2                !
 ! D16   D(6,4,5,10)            59.6962         estimate D2E/DX2                !
 ! D17   D(6,4,5,11)          -179.9967         estimate D2E/DX2                !
 ! D18   D(6,4,5,12)           -59.6857         estimate D2E/DX2                !
 ! D19   D(3,4,6,7)              0.0016         estimate D2E/DX2                !
 ! D20   D(5,4,6,7)           -179.9992         estimate D2E/DX2                !
 ! D21   D(4,6,7,8)             -0.0023         estimate D2E/DX2                !
 ! D22   D(4,6,7,13)           179.9972         estimate D2E/DX2                !
 ! D23   D(6,7,8,2)              0.0025         estimate D2E/DX2                !
 ! D24   D(6,7,8,14)          -179.9962         estimate D2E/DX2                !
 ! D25   D(13,7,8,2)          -179.997          estimate D2E/DX2                !
 ! D26   D(13,7,8,14)            0.0044         estimate D2E/DX2                !
 --------------------------------------------------------------------------------
 Trust Radius=3.00D-01 FncErr=1.00D-07 GrdErr=1.00D-06 EigMax=2.50D+02 EigMin=1.00D-04
 Number of steps in this run=     72 maximum allowed number of steps=    100.
 GradGradGradGradGradGradGradGradGradGradGradGradGradGradGradGradGradGrad

                          Input orientation:                          
 ---------------------------------------------------------------------
 Center     Atomic      Atomic             Coordinates (Angstroms)
 Number     Number       Type             X           Y           Z
 ---------------------------------------------------------------------
      1         35           0       -2.538100    2.437900   -0.103100
      2          6           0       -1.417000    0.901900   -0.054200
      3          6           0       -0.029700    1.046400   -0.008800
      4          6           0        0.758500   -0.107100    0.026200
      5          6           0        2.270200   -0.034900    0.076300
      6          7           0        0.231800   -1.358500    0.017900
      7          6           0       -1.120000   -1.479000   -0.026500
      8          6           0       -1.976700   -0.376400   -0.063400
      9          1           0        0.413400    2.030400   -0.001300
     10          1           0        2.699500   -0.539400   -0.789700
     11          1           0        2.626400    0.995200    0.080600
     12          1           0        2.640400   -0.526300    0.976300
     13          1           0       -1.510400   -2.486800   -0.032100
     14          1           0       -3.048300   -0.503500   -0.098300
 ---------------------------------------------------------------------
                    Distance matrix (angstroms):
                    1          2          3          4          5
     1  Br   0.000000
     2  C    1.902249   0.000000
     3  C    2.870058   1.395544   0.000000
     4  C    4.166691   2.399447   1.397514   0.000000
     5  C    5.409868   3.806582   2.542831   1.514252   0.000000
     6  N    4.701025   2.798776   2.419223   1.357750   2.431132
     7  C    4.166411   2.399513   2.750766   2.326725   3.686387
     8  C    2.870023   1.395493   2.412084   2.749885   4.262898
     9  H    2.981237   2.150971   1.079189   2.165354   2.778343
    10  H    6.063678   4.423107   3.251630   2.149432   1.090309
    11  H    5.365369   4.046722   2.658097   2.169579   1.089955
    12  H    6.063699   4.423141   3.251652   2.149411   1.090194
    13  H    5.031290   3.390059   3.830994   3.288507   4.507383
    14  H    2.985324   2.153656   3.394429   3.829407   5.341958
                    6          7          8          9         10
     6  N    0.000000
     7  C    1.357886   0.000000
     8  C    2.418388   1.396790   0.000000
     9  H    3.393816   3.829861   3.392509   0.000000
    10  H    2.722625   4.006732   4.735074   3.528697   0.000000
    11  H    3.358265   4.490952   4.805263   2.444528   1.765719
    12  H    2.722580   4.006726   4.735088   3.528731   1.767037
    13  H    2.076252   1.080789   2.161528   4.909893   4.699956
    14  H    3.391693   2.162197   1.079675   4.291087   5.789346
                   11         12         13         14
    11  H    0.000000
    12  H    1.765626   0.000000
    13  H    5.408340   4.699954   0.000000
    14  H    5.871995   5.789352   2.510577   0.000000
 Stoichiometry    C6H6BrN
 Framework group  C1[X(C6H6BrN)]
 Deg. of freedom    36
 Full point group                 C1      NOp   1
 Largest Abelian subgroup         C1      NOp   1
 Largest concise Abelian subgroup C1      NOp   1
                         Standard orientation:                         
 ---------------------------------------------------------------------
 Center     Atomic      Atomic             Coordinates (Angstroms)
 Number     Number       Type             X           Y           Z
 ---------------------------------------------------------------------
      1         35           0       -2.099939   -0.255249   -0.000008
      2          6           0       -0.251193    0.192733    0.000051
      3          6           0        0.715191   -0.814067    0.000028
      4          6           0        2.062523   -0.442930   -0.000003
      5          6           0        3.170644   -1.474932   -0.000022
      6          7           0        2.468671    0.852650   -0.000034
      7          6           0        1.513900    1.818190   -0.000001
      8          6           0        0.147127    1.530171    0.000015
      9          1           0        0.417940   -1.851512    0.000049
     10          1           0        3.797690   -1.353164    0.883584
     11          1           0        2.777229   -2.491410   -0.000055
     12          1           0        3.797735   -1.353161   -0.883453
     13          1           0        1.866783    2.839746    0.000020
     14          1           0       -0.589337    2.319677   -0.000021
 ---------------------------------------------------------------------
 Rotational constants (GHZ):           3.4190330           0.7461746           0.6148464
 Standard basis: 6-31G(d,p) (6D, 7F)
 There are   165 symmetry adapted cartesian basis functions of A   symmetry.
 There are   165 symmetry adapted basis functions of A   symmetry.
   165 basis functions,   321 primitive gaussians,   165 cartesian basis functions
    42 alpha electrons       42 beta electrons
       nuclear repulsion energy       524.2190610086 Hartrees.
 NAtoms=   14 NActive=   14 NUniq=   14 SFac= 1.00D+00 NAtFMM=   60 NAOKFM=F Big=F
 Integral buffers will be    131072 words long.
 Raffenetti 2 integral format.
 Two-electron integral symmetry is turned on.
 Nuclear repulsion after empirical dispersion term =      524.1923118150 Hartrees.
 One-electron integrals computed using PRISM.
 NBasis=   165 RedAO= T EigKep=  7.53D-04  NBF=   165
 NBsUse=   165 1.00D-06 EigRej= -1.00D+00 NBFU=   165
 ExpMin= 1.43D-01 ExpMax= 5.74D+05 ExpMxC= 5.74D+03 IAcc=3 IRadAn=         5 AccDes= 0.00D+00
 Harris functional with IExCor=  402 and IRadAn=       5 diagonalized for initial guess.
 HarFok:  IExCor=  402 AccDes= 0.00D+00 IRadAn=         5 IDoV= 1 UseB2=F ITyADJ=14
 ICtDFT=  3500011 ScaDFX=  1.000000  1.000000  1.000000  1.000000
 FoFCou: FMM=F IPFlag=           0 FMFlag=      100000 FMFlg1=           0
         NFxFlg=           0 DoJE=T BraDBF=F KetDBF=T FulRan=T
         wScrn=  0.000000 ICntrl=       500 IOpCl=  0 I1Cent=   200000004 NGrid=           0
         NMat0=    1 NMatS0=      1 NMatT0=    0 NMatD0=    1 NMtDS0=    0 NMtDT0=    0
 Petite list used in FoFCou.
 Requested convergence on RMS density matrix=1.00D-08 within 128 cycles.
 Requested convergence on MAX density matrix=1.00D-06.
 Requested convergence on             energy=1.00D-06.
 No special actions if energy rises.
 Integral accuracy reduced to 1.0D-05 until final iterations.
 Initial convergence to 1.0D-05 achieved.  Increase integral accuracy.
 SCF Done:  E(RB3LYP) =  -2858.74510625     A.U. after   14 cycles
            NFock= 14  Conv=0.44D-08     -V/T= 2.0065

 **********************************************************************

            Population analysis using the SCF Density.

 **********************************************************************

 Orbital symmetries:
       Occupied  (A) (A) (A) (A) (A) (A) (A) (A) (A) (A) (A) (A)
                 (A) (A) (A) (A) (A) (A) (A) (A) (A) (A) (A) (A)
                 (A) (A) (A) (A) (A) (A) (A) (A) (A) (A) (A) (A)
                 (A) (A) (A) (A) (A) (A)
       Virtual   (A) (A) (A) (A) (A) (A) (A) (A) (A) (A) (A) (A)
                 (A) (A) (A) (A) (A) (A) (A) (A) (A) (A) (A) (A)
                 (A) (A) (A) (A) (A) (A) (A) (A) (A) (A) (A) (A)
                 (A) (A) (A) (A) (A) (A) (A) (A) (A) (A) (A) (A)
                 (A) (A) (A) (A) (A) (A) (A) (A) (A) (A) (A) (A)
                 (A) (A) (A) (A) (A) (A) (A) (A) (A) (A) (A) (A)
                 (A) (A) (A) (A) (A) (A) (A) (A) (A) (A) (A) (A)
                 (A) (A) (A) (A) (A) (A) (A) (A) (A) (A) (A) (A)
                 (A) (A) (A) (A) (A) (A) (A) (A) (A) (A) (A) (A)
                 (A) (A) (A) (A) (A) (A) (A) (A) (A) (A) (A) (A)
                 (A) (A) (A)
 The electronic state is 1-A.
 Alpha  occ. eigenvalues -- -482.92158 -61.88337 -56.40470 -56.40055 -56.40051
 Alpha  occ. eigenvalues --  -14.33474 -10.26468 -10.24183 -10.23486 -10.20998
 Alpha  occ. eigenvalues --  -10.20950 -10.18767  -8.59486  -6.54888  -6.53616
 Alpha  occ. eigenvalues --   -6.53567  -2.66461  -2.66102  -2.66064  -2.65049
 Alpha  occ. eigenvalues --   -2.65048  -0.94208  -0.84489  -0.78925  -0.75897
 Alpha  occ. eigenvalues --   -0.70926  -0.63521  -0.59691  -0.51170  -0.50039
 Alpha  occ. eigenvalues --   -0.47037  -0.43568  -0.42861  -0.40646  -0.39028
 Alpha  occ. eigenvalues --   -0.38512  -0.37215  -0.33213  -0.29591  -0.26688
 Alpha  occ. eigenvalues --   -0.26229  -0.26120
 Alpha virt. eigenvalues --   -0.03677  -0.01776  -0.00113   0.11254   0.12222
 Alpha virt. eigenvalues --    0.12946   0.14066   0.16673   0.17467   0.18804
 Alpha virt. eigenvalues --    0.20652   0.23539   0.25740   0.28476   0.31219
 Alpha virt. eigenvalues --    0.32943   0.41751   0.43708   0.44640   0.45412
 Alpha virt. eigenvalues --    0.45501   0.47752   0.47986   0.48123   0.51625
 Alpha virt. eigenvalues --    0.52692   0.54160   0.54476   0.55918   0.58047
 Alpha virt. eigenvalues --    0.61128   0.63728   0.63911   0.65241   0.66245
 Alpha virt. eigenvalues --    0.67558   0.71655   0.75742   0.76523   0.77311
 Alpha virt. eigenvalues --    0.80627   0.83904   0.86113   0.86213   0.86283
 Alpha virt. eigenvalues --    0.87419   0.89214   0.91233   0.93454   0.96985
 Alpha virt. eigenvalues --    1.01261   1.05495   1.10271   1.20161   1.20907
 Alpha virt. eigenvalues --    1.23202   1.24564   1.27654   1.33375   1.36411
 Alpha virt. eigenvalues --    1.40276   1.41685   1.46518   1.47658   1.52017
 Alpha virt. eigenvalues --    1.55547   1.68441   1.72950   1.73108   1.77517
 Alpha virt. eigenvalues --    1.81280   1.85149   1.86488   1.88018   1.96377
 Alpha virt. eigenvalues --    1.96797   2.02603   2.03765   2.05090   2.07358
 Alpha virt. eigenvalues --    2.08589   2.08659   2.14394   2.15533   2.19477
 Alpha virt. eigenvalues --    2.28390   2.30727   2.32509   2.37416   2.41212
 Alpha virt. eigenvalues --    2.44807   2.46755   2.48423   2.53663   2.55335
 Alpha virt. eigenvalues --    2.59511   2.61224   2.63988   2.66912   2.67619
 Alpha virt. eigenvalues --    2.76569   2.82466   2.85402   2.87068   2.92011
 Alpha virt. eigenvalues --    3.03201   3.14431   3.20269   3.22360   3.28270
 Alpha virt. eigenvalues --    3.42789   3.45341   3.46750   3.70553   4.07117
 Alpha virt. eigenvalues --    4.12531   4.15629   4.27280   4.37314   4.52384
 Alpha virt. eigenvalues --    4.67399   8.59612  72.80014
          Condensed to atoms (all electrons):
               1          2          3          4          5          6
     1  Br  34.959867   0.266062  -0.058819   0.005043  -0.000158  -0.000054
     2  C    0.266062   4.801660   0.502089  -0.023766   0.004744  -0.044779
     3  C   -0.058819   0.502089   4.985429   0.494987  -0.066274  -0.036140
     4  C    0.005043  -0.023766   0.494987   4.664285   0.371081   0.416871
     5  C   -0.000158   0.004744  -0.066274   0.371081   5.007459  -0.080226
     6  N   -0.000054  -0.044779  -0.036140   0.416871  -0.080226   6.831750
     7  C    0.004852  -0.025541  -0.040469  -0.047789   0.004600   0.454382
     8  C   -0.062598   0.523198  -0.043856  -0.038217   0.000886  -0.031181
     9  H   -0.003103  -0.045252   0.363171  -0.033372  -0.005438   0.004871
    10  H    0.000003  -0.000167   0.001364  -0.024678   0.374758  -0.000523
    11  H   -0.000004   0.000328   0.000764  -0.030864   0.369220   0.004072
    12  H    0.000003  -0.000167   0.001366  -0.024674   0.374772  -0.000521
    13  H   -0.000138   0.002892   0.000902   0.004405  -0.000270  -0.047510
    14  H   -0.003478  -0.043218   0.006086   0.000172   0.000014   0.004662
               7          8          9         10         11         12
     1  Br   0.004852  -0.062598  -0.003103   0.000003  -0.000004   0.000003
     2  C   -0.025541   0.523198  -0.045252  -0.000167   0.000328  -0.000167
     3  C   -0.040469  -0.043856   0.363171   0.001364   0.000764   0.001366
     4  C   -0.047789  -0.038217  -0.033372  -0.024678  -0.030864  -0.024674
     5  C    0.004600   0.000886  -0.005438   0.374758   0.369220   0.374772
     6  N    0.454382  -0.031181   0.004871  -0.000523   0.004072  -0.000521
     7  C    4.730843   0.469072  -0.000011   0.000203  -0.000213   0.000203
     8  C    0.469072   4.980308   0.006067   0.000013   0.000007   0.000013
     9  H   -0.000011   0.006067   0.602384   0.000040   0.002824   0.000040
    10  H    0.000203   0.000013   0.000040   0.565130  -0.028566  -0.025404
    11  H   -0.000213   0.000007   0.002824  -0.028566   0.604330  -0.028570
    12  H    0.000203   0.000013   0.000040  -0.025404  -0.028570   0.565095
    13  H    0.385865  -0.059332   0.000026  -0.000002   0.000002  -0.000002
    14  H   -0.033073   0.363033  -0.000110  -0.000000  -0.000000  -0.000000
              13         14
     1  Br  -0.000138  -0.003478
     2  C    0.002892  -0.043218
     3  C    0.000902   0.006086
     4  C    0.004405   0.000172
     5  C   -0.000270   0.000014
     6  N   -0.047510   0.004662
     7  C    0.385865  -0.033073
     8  C   -0.059332   0.363033
     9  H    0.000026  -0.000110
    10  H   -0.000002  -0.000000
    11  H    0.000002  -0.000000
    12  H   -0.000002  -0.000000
    13  H    0.605010  -0.002562
    14  H   -0.002562   0.598566
 Mulliken charges:
               1
     1  Br  -0.107479
     2  C    0.081917
     3  C   -0.110601
     4  C    0.266516
     5  C   -0.355168
     6  N   -0.475675
     7  C    0.097075
     8  C   -0.107414
     9  H    0.107862
    10  H    0.137829
    11  H    0.106670
    12  H    0.137847
    13  H    0.110713
    14  H    0.109909
 Sum of Mulliken charges =  -0.00000
 Mulliken charges with hydrogens summed into heavy atoms:
               1
     1  Br  -0.107479
     2  C    0.081917
     3  C   -0.002739
     4  C    0.266516
     5  C    0.027178
     6  N   -0.475675
     7  C    0.207788
     8  C    0.002495
 Electronic spatial extent (au):  <R**2>=           1661.0908
 Charge=             -0.0000 electrons
 Dipole moment (field-independent basis, Debye):
    X=             -0.1403    Y=             -0.3977    Z=              0.0000  Tot=              0.4218
 Quadrupole moment (field-independent basis, Debye-Ang):
   XX=            -61.8748   YY=            -52.7747   ZZ=            -60.3329
   XY=             -3.7697   XZ=              0.0002   YZ=              0.0001
 Traceless Quadrupole moment (field-independent basis, Debye-Ang):
   XX=             -3.5473   YY=              5.5527   ZZ=             -2.0054
   XY=             -3.7697   XZ=              0.0002   YZ=              0.0001
 Octapole moment (field-independent basis, Debye-Ang**2):
  XXX=            -81.8805  YYY=              1.7539  ZZZ=             -0.0005  XYY=            -16.7166
  XXY=            -17.4495  XXZ=             -0.0005  XZZ=            -20.4474  YZZ=             -3.8907
  YYZ=             -0.0004  XYZ=              0.0006
 Hexadecapole moment (field-independent basis, Debye-Ang**3):
 XXXX=          -1441.7621 YYYY=           -424.8475 ZZZZ=            -69.0594 XXXY=            -23.1299
 XXXZ=              0.0006 YYYX=             27.8204 YYYZ=              0.0010 ZZZX=              0.0004
 ZZZY=              0.0002 XXYY=           -310.9887 XXZZ=           -248.5148 YYZZ=            -94.7915
 XXYZ=              0.0025 YYXZ=             -0.0005 ZZXY=              3.2645
 N-N= 5.241923118150D+02 E-N=-7.846842270793D+03  KE= 2.840171544215D+03
 Calling FoFJK, ICntrl=      2127 FMM=F ISym2X=0 I1Cent= 0 IOpClX= 0 NMat=1 NMatS=1 NMatT=0.
 ***** Axes restored to original set *****
 -------------------------------------------------------------------
 Center     Atomic                   Forces (Hartrees/Bohr)
 Number     Number              X              Y              Z
 -------------------------------------------------------------------
      1       35           0.000124341   -0.000224652    0.000003989
      2        6           0.006009065   -0.008137969    0.000269288
      3        6          -0.007168011   -0.000447561   -0.000240722
      4        6          -0.000417582   -0.014427665    0.000099730
      5        6          -0.006213226    0.003619680   -0.000297477
      6        7          -0.013088033    0.006781349   -0.000493177
      7        6           0.023342389    0.016523038    0.000659237
      8        6          -0.001603337    0.001147303   -0.000063449
      9        1           0.002310469    0.002255355    0.000060993
     10        1           0.000791265   -0.002497314   -0.000968308
     11        1          -0.000250193    0.002313608   -0.000027131
     12        1           0.000743051   -0.002518962    0.001117564
     13        1          -0.001804993   -0.003458413   -0.000032679
     14        1          -0.002775206   -0.000927796   -0.000087857
 -------------------------------------------------------------------
 Cartesian Forces:  Max     0.023342389 RMS     0.005995158

 GradGradGradGradGradGradGradGradGradGradGradGradGradGradGradGradGradGrad
 Berny optimization.
 FormGI is forming the generalized inverse of G from B-inverse, IUseBI=4.
 Internal  Forces:  Max     0.018342596 RMS     0.003635837
 Search for a local minimum.
 Step number   1 out of a maximum of   72
 All quantities printed in internal units (Hartrees-Bohrs-Radians)
 Mixed Optimization -- RFO/linear search
 Second derivative matrix not updated -- first step.
 ITU=  0
     Eigenvalues ---    0.00577   0.01459   0.02133   0.02139   0.02141
     Eigenvalues ---    0.02148   0.02149   0.02170   0.02223   0.07086
     Eigenvalues ---    0.07282   0.16000   0.16000   0.16000   0.16000
     Eigenvalues ---    0.16000   0.16000   0.18141   0.22317   0.23496
     Eigenvalues ---    0.24557   0.25000   0.25000   0.30927   0.34777
     Eigenvalues ---    0.34790   0.34818   0.35899   0.36034   0.36092
     Eigenvalues ---    0.42233   0.44098   0.46094   0.46321   0.51701
     Eigenvalues ---    0.52747
 RFO step:  Lambda=-2.02324424D-03 EMin= 5.77418178D-03
 Linear search not attempted -- first point.
 Iteration  1 RMS(Cart)=  0.01233454 RMS(Int)=  0.00007867
 Iteration  2 RMS(Cart)=  0.00010880 RMS(Int)=  0.00002833
 Iteration  3 RMS(Cart)=  0.00000000 RMS(Int)=  0.00002833
 Variable       Old X    -DE/DX   Delta X   Delta X   Delta X     New X
                                 (Linear)    (Quad)   (Total)
    R1        3.59473  -0.00025   0.00000  -0.00139  -0.00139   3.59334
    R2        2.63720  -0.00528   0.00000  -0.00981  -0.00984   2.62735
    R3        2.63710  -0.00651   0.00000  -0.01298  -0.01295   2.62415
    R4        2.64092   0.00040   0.00000   0.00137   0.00132   2.64224
    R5        2.03937   0.00301   0.00000   0.00828   0.00828   2.04765
    R6        2.86152  -0.00488   0.00000  -0.01569  -0.01569   2.84584
    R7        2.56577  -0.01352   0.00000  -0.02606  -0.02608   2.53969
    R8        2.06039   0.00224   0.00000   0.00639   0.00639   2.06678
    R9        2.05972   0.00210   0.00000   0.00601   0.00601   2.06573
   R10        2.06017   0.00231   0.00000   0.00660   0.00660   2.06677
   R11        2.56603  -0.01834   0.00000  -0.03557  -0.03554   2.53050
   R12        2.63955  -0.00344   0.00000  -0.00801  -0.00796   2.63159
   R13        2.04239   0.00388   0.00000   0.01074   0.01074   2.05313
   R14        2.04029   0.00287   0.00000   0.00791   0.00791   2.04820
    A1        2.09798  -0.00010   0.00000  -0.00295  -0.00295   2.09503
    A2        2.09799  -0.00022   0.00000  -0.00341  -0.00340   2.09459
    A3        2.08722   0.00032   0.00000   0.00636   0.00635   2.09357
    A4        2.06692  -0.00155   0.00000  -0.00219  -0.00227   2.06465
    A5        2.09763   0.00198   0.00000   0.00853   0.00857   2.10620
    A6        2.11864  -0.00043   0.00000  -0.00634  -0.00630   2.11234
    A7        2.12295  -0.00146   0.00000  -0.00548  -0.00544   2.11751
    A8        2.14338  -0.00008   0.00000  -0.00092  -0.00100   2.14238
    A9        2.01686   0.00154   0.00000   0.00640   0.00644   2.02329
   A10        1.92275  -0.00019   0.00000  -0.00291  -0.00294   1.91982
   A11        1.95136  -0.00085   0.00000  -0.00174  -0.00174   1.94962
   A12        1.92285  -0.00020   0.00000  -0.00298  -0.00300   1.91984
   A13        1.88784   0.00114   0.00000   0.01042   0.01042   1.89826
   A14        1.88960  -0.00101   0.00000  -0.01322  -0.01327   1.87633
   A15        1.88784   0.00115   0.00000   0.01044   0.01044   1.89829
   A16        2.05802  -0.00037   0.00000  -0.00815  -0.00814   2.04988
   A17        2.14290   0.00732   0.00000   0.02898   0.02906   2.17195
   A18        2.02920  -0.00322   0.00000  -0.01175  -0.01179   2.01741
   A19        2.11109  -0.00410   0.00000  -0.01723  -0.01726   2.09383
   A20        2.06794  -0.00564   0.00000  -0.02407  -0.02400   2.04395
   A21        2.10148   0.00343   0.00000   0.01578   0.01574   2.11722
   A22        2.11376   0.00221   0.00000   0.00829   0.00826   2.12201
    D1        3.14153   0.00000   0.00000   0.00007   0.00007  -3.14159
    D2       -0.00008   0.00000   0.00000   0.00008   0.00008  -0.00000
    D3        0.00002  -0.00000   0.00000  -0.00004  -0.00004  -0.00002
    D4       -3.14158  -0.00000   0.00000  -0.00003  -0.00003   3.14157
    D5       -3.14154  -0.00000   0.00000  -0.00006  -0.00006   3.14159
    D6        0.00003  -0.00000   0.00000  -0.00005  -0.00005  -0.00002
    D7       -0.00003   0.00000   0.00000   0.00005   0.00005   0.00002
    D8        3.14154   0.00000   0.00000   0.00006   0.00006  -3.14159
    D9        3.14159   0.00000   0.00000  -0.00000   0.00000   3.14159
   D10       -0.00002   0.00000   0.00000   0.00003   0.00003   0.00001
   D11        0.00001  -0.00000   0.00000  -0.00001  -0.00001  -0.00000
   D12        3.14159   0.00000   0.00000   0.00002   0.00002  -3.14158
   D13       -2.09971  -0.00075   0.00000  -0.01000  -0.00998  -2.10969
   D14        0.00005   0.00000   0.00000   0.00003   0.00003   0.00008
   D15        2.09987   0.00075   0.00000   0.01005   0.01003   2.10990
   D16        1.04189  -0.00075   0.00000  -0.01003  -0.01001   1.03188
   D17       -3.14153   0.00000   0.00000   0.00000   0.00000  -3.14153
   D18       -1.04171   0.00075   0.00000   0.01002   0.01000  -1.03171
   D19        0.00003  -0.00000   0.00000  -0.00003  -0.00003  -0.00000
   D20       -3.14158  -0.00000   0.00000   0.00000   0.00000  -3.14158
   D21       -0.00004   0.00000   0.00000   0.00004   0.00004  -0.00000
   D22        3.14154   0.00000   0.00000   0.00004   0.00004   3.14159
   D23        0.00004  -0.00000   0.00000  -0.00005  -0.00005  -0.00001
   D24       -3.14153  -0.00000   0.00000  -0.00006  -0.00006  -3.14159
   D25       -3.14154  -0.00000   0.00000  -0.00005  -0.00005   3.14159
   D26        0.00008  -0.00000   0.00000  -0.00007  -0.00007   0.00001
         Item               Value     Threshold  Converged?
 Maximum Force            0.018343     0.000450     NO 
 RMS     Force            0.003636     0.000300     NO 
 Maximum Displacement     0.042522     0.001800     NO 
 RMS     Displacement     0.012357     0.001200     NO 
 Predicted change in Energy=-1.018007D-03
 GradGradGradGradGradGradGradGradGradGradGradGradGradGradGradGradGradGrad

                          Input orientation:                          
 ---------------------------------------------------------------------
 Center     Atomic      Atomic             Coordinates (Angstroms)
 Number     Number       Type             X           Y           Z
 ---------------------------------------------------------------------
      1         35           0       -2.531580    2.432736   -0.102889
      2          6           0       -1.413345    0.895558   -0.053986
      3          6           0       -0.031419    1.041406   -0.008805
      4          6           0        0.756129   -0.113385    0.026170
      5          6           0        2.259204   -0.034760    0.075902
      6          7           0        0.232431   -1.351070    0.017847
      7          6           0       -1.101772   -1.456498   -0.026050
      8          6           0       -1.976625   -0.373672   -0.063409
      9          1           0        0.420584    2.026170   -0.001016
     10          1           0        2.689410   -0.548505   -0.788478
     11          1           0        2.609962    1.000565    0.080001
     12          1           0        2.630425   -0.535531    0.974554
     13          1           0       -1.492457   -2.470281   -0.031593
     14          1           0       -3.050947   -0.512833   -0.098347
 ---------------------------------------------------------------------
                    Distance matrix (angstroms):
                    1          2          3          4          5
     1  Br   0.000000
     2  C    1.901514   0.000000
     3  C    2.862771   1.390336   0.000000
     4  C    4.160339   2.393953   1.398212   0.000000
     5  C    5.391857   3.790776   2.532245   1.505952   0.000000
     6  N    4.687379   2.785871   2.407129   1.343947   2.417407
     7  C    4.144442   2.372768   2.717624   2.293137   3.650740
     8  C    2.861024   1.388638   2.406087   2.746583   4.251649
     9  H    2.981769   2.155084   1.083571   2.165878   2.762947
    10  H    6.051163   4.411054   3.246323   2.142558   1.093692
    11  H    5.340413   4.026906   2.643188   2.163441   1.093136
    12  H    6.051263   4.411121   3.246404   2.142574   1.093687
    13  H    5.012429   3.366843   3.803564   3.257980   4.474179
    14  H    2.991010   2.160388   3.397239   3.829999   5.334476
                    6          7          8          9         10
     6  N    0.000000
     7  C    1.339082   0.000000
     8  C    2.416989   1.392579   0.000000
     9  H    3.382530   3.800944   3.392601   0.000000
    10  H    2.707586   3.972256   4.725270   3.520883   0.000000
    11  H    3.344653   4.452570   4.790185   2.419050   1.777691
    12  H    2.707539   3.972239   4.725301   3.521001   1.764066
    13  H    2.056773   1.086472   2.152023   4.886587   4.664130
    14  H    3.390680   2.166798   1.083862   4.302039   5.781804
                   11         12         13         14
    11  H    0.000000
    12  H    1.777705   0.000000
    13  H    5.374855   4.664090   0.000000
    14  H    5.862429   5.781835   2.502989   0.000000
 Stoichiometry    C6H6BrN
 Framework group  C1[X(C6H6BrN)]
 Deg. of freedom    36
 Full point group                 C1      NOp   1
 Largest Abelian subgroup         C1      NOp   1
 Largest concise Abelian subgroup C1      NOp   1
                         Standard orientation:                         
 ---------------------------------------------------------------------
 Center     Atomic      Atomic             Coordinates (Angstroms)
 Number     Number       Type             X           Y           Z
 ---------------------------------------------------------------------
      1         35           0       -2.094637   -0.254844    0.000001
      2          6           0       -0.247419    0.196314   -0.000011
      3          6           0        0.714220   -0.807819   -0.000005
      4          6           0        2.061801   -0.434963   -0.000009
      5          6           0        3.159420   -1.466041    0.000002
      6          7           0        2.461084    0.848301   -0.000004
      7          6           0        1.509800    1.790744    0.000003
      8          6           0        0.141996    1.529233    0.000004
      9          1           0        0.423517   -1.851668    0.000007
     10          1           0        3.793141   -1.337688    0.882095
     11          1           0        2.758708   -2.483084   -0.000063
     12          1           0        3.793279   -1.337599   -0.881972
     13          1           0        1.866095    2.817133    0.000014
     14          1           0       -0.588942    2.329537    0.000005
 ---------------------------------------------------------------------
 Rotational constants (GHZ):           3.4671023           0.7500879           0.6190431
 Standard basis: 6-31G(d,p) (6D, 7F)
 There are   165 symmetry adapted cartesian basis functions of A   symmetry.
 There are   165 symmetry adapted basis functions of A   symmetry.
   165 basis functions,   321 primitive gaussians,   165 cartesian basis functions
    42 alpha electrons       42 beta electrons
       nuclear repulsion energy       526.1066129251 Hartrees.
 NAtoms=   14 NActive=   14 NUniq=   14 SFac= 1.00D+00 NAtFMM=   60 NAOKFM=F Big=F
 Integral buffers will be    131072 words long.
 Raffenetti 2 integral format.
 Two-electron integral symmetry is turned on.
 Nuclear repulsion after empirical dispersion term =      526.0798013398 Hartrees.
 One-electron integrals computed using PRISM.
 NBasis=   165 RedAO= T EigKep=  7.53D-04  NBF=   165
 NBsUse=   165 1.00D-06 EigRej= -1.00D+00 NBFU=   165
 Initial guess from the checkpoint file:  "pyrd3_conf-1.chk"
 B after Tr=    -0.000000    0.000000   -0.000000
         Rot=    1.000000   -0.000001    0.000000   -0.000064 Ang=  -0.01 deg.
 ExpMin= 1.43D-01 ExpMax= 5.74D+05 ExpMxC= 5.74D+03 IAcc=3 IRadAn=         5 AccDes= 0.00D+00
 Harris functional with IExCor=  402 and IRadAn=       5 diagonalized for initial guess.
 HarFok:  IExCor=  402 AccDes= 0.00D+00 IRadAn=         5 IDoV= 1 UseB2=F ITyADJ=14
 ICtDFT=  3500011 ScaDFX=  1.000000  1.000000  1.000000  1.000000
 FoFCou: FMM=F IPFlag=           0 FMFlag=      100000 FMFlg1=           0
         NFxFlg=           0 DoJE=T BraDBF=F KetDBF=T FulRan=T
         wScrn=  0.000000 ICntrl=       500 IOpCl=  0 I1Cent=   200000004 NGrid=           0
         NMat0=    1 NMatS0=      1 NMatT0=    0 NMatD0=    1 NMtDS0=    0 NMtDT0=    0
 Petite list used in FoFCou.
 Requested convergence on RMS density matrix=1.00D-08 within 128 cycles.
 Requested convergence on MAX density matrix=1.00D-06.
 Requested convergence on             energy=1.00D-06.
 No special actions if energy rises.
 Integral accuracy reduced to 1.0D-05 until final iterations.
 Initial convergence to 1.0D-05 achieved.  Increase integral accuracy.
 SCF Done:  E(RB3LYP) =  -2858.74615224     A.U. after   12 cycles
            NFock= 12  Conv=0.56D-08     -V/T= 2.0065
 Calling FoFJK, ICntrl=      2127 FMM=F ISym2X=0 I1Cent= 0 IOpClX= 0 NMat=1 NMatS=1 NMatT=0.
 ***** Axes restored to original set *****
 -------------------------------------------------------------------
 Center     Atomic                   Forces (Hartrees/Bohr)
 Number     Number              X              Y              Z
 -------------------------------------------------------------------
      1       35          -0.000640638    0.001154171   -0.000029689
      2        6           0.001873249   -0.000858889    0.000066750
      3        6          -0.001189087    0.002108368   -0.000054802
      4        6           0.002985516   -0.002223316    0.000116707
      5        6          -0.000475900    0.002362474   -0.000038126
      6        7          -0.004443428    0.001587170   -0.000160178
      7        6           0.004774062   -0.001941263    0.000173911
      8        6          -0.003238533    0.000478170   -0.000110456
      9        1           0.000203213   -0.000342450    0.000009991
     10        1           0.000370919   -0.000428796    0.000137443
     11        1           0.000124322   -0.000414246    0.000008450
     12        1           0.000378560   -0.000430629   -0.000103613
     13        1          -0.001439274   -0.000643971   -0.000043228
     14        1           0.000717019   -0.000406794    0.000026840
 -------------------------------------------------------------------
 Cartesian Forces:  Max     0.004774062 RMS     0.001506638

 GradGradGradGradGradGradGradGradGradGradGradGradGradGradGradGradGradGrad
 Berny optimization.
 Using GEDIIS/GDIIS optimizer.
 FormGI is forming the generalized inverse of G from B-inverse, IUseBI=4.
 Internal  Forces:  Max     0.002129004 RMS     0.000723352
 Search for a local minimum.
 Step number   2 out of a maximum of   72
 All quantities printed in internal units (Hartrees-Bohrs-Radians)
 Mixed Optimization -- En-DIIS/RFO-DIIS
 Update second derivatives using D2CorX and points    1    2
 DE= -1.05D-03 DEPred=-1.02D-03 R= 1.03D+00
 TightC=F SS=  1.41D+00  RLast= 7.87D-02 DXNew= 5.0454D-01 2.3609D-01
 Trust test= 1.03D+00 RLast= 7.87D-02 DXMaxT set to 3.00D-01
 ITU=  1  0
 Use linear search instead of GDIIS.
     Eigenvalues ---    0.00577   0.01457   0.02133   0.02139   0.02141
     Eigenvalues ---    0.02148   0.02149   0.02170   0.02223   0.07073
     Eigenvalues ---    0.07212   0.15505   0.16000   0.16000   0.16000
     Eigenvalues ---    0.16000   0.16111   0.18075   0.21773   0.23354
     Eigenvalues ---    0.24833   0.24991   0.25472   0.31246   0.34641
     Eigenvalues ---    0.34784   0.34890   0.35527   0.36066   0.36382
     Eigenvalues ---    0.42110   0.44075   0.45673   0.46325   0.50845
     Eigenvalues ---    0.55585
 RFO step:  Lambda=-1.23942939D-04 EMin= 5.77418179D-03
 Quartic linear search produced a step of  0.02246.
 Iteration  1 RMS(Cart)=  0.00367777 RMS(Int)=  0.00000779
 Iteration  2 RMS(Cart)=  0.00001052 RMS(Int)=  0.00000197
 Iteration  3 RMS(Cart)=  0.00000000 RMS(Int)=  0.00000197
 Variable       Old X    -DE/DX   Delta X   Delta X   Delta X     New X
                                 (Linear)    (Quad)   (Total)
    R1        3.59334   0.00131  -0.00003   0.00733   0.00730   3.60064
    R2        2.62735   0.00017  -0.00022   0.00014  -0.00008   2.62727
    R3        2.62415   0.00147  -0.00029   0.00288   0.00258   2.62673
    R4        2.64224   0.00147   0.00003   0.00332   0.00335   2.64559
    R5        2.04765  -0.00023   0.00019  -0.00033  -0.00014   2.04751
    R6        2.84584   0.00045  -0.00035   0.00091   0.00056   2.84639
    R7        2.53969   0.00081  -0.00059   0.00045  -0.00014   2.53956
    R8        2.06678   0.00024   0.00014   0.00094   0.00109   2.06787
    R9        2.06573  -0.00035   0.00014  -0.00081  -0.00067   2.06506
   R10        2.06677   0.00024   0.00015   0.00096   0.00110   2.06787
   R11        2.53050  -0.00202  -0.00080  -0.00534  -0.00614   2.52436
   R12        2.63159   0.00160  -0.00018   0.00322   0.00304   2.63463
   R13        2.05313   0.00112   0.00024   0.00359   0.00383   2.05697
   R14        2.04820  -0.00066   0.00018  -0.00157  -0.00139   2.04681
    A1        2.09503  -0.00061  -0.00007  -0.00293  -0.00299   2.09204
    A2        2.09459  -0.00003  -0.00008  -0.00058  -0.00066   2.09393
    A3        2.09357   0.00065   0.00014   0.00351   0.00365   2.09721
    A4        2.06465  -0.00018  -0.00005  -0.00046  -0.00052   2.06413
    A5        2.10620   0.00043   0.00019   0.00265   0.00284   2.10904
    A6        2.11234  -0.00024  -0.00014  -0.00218  -0.00232   2.11001
    A7        2.11751  -0.00061  -0.00012  -0.00266  -0.00278   2.11473
    A8        2.14238  -0.00137  -0.00002  -0.00570  -0.00572   2.13666
    A9        2.02329   0.00198   0.00014   0.00836   0.00850   2.03179
   A10        1.91982   0.00022  -0.00007   0.00076   0.00069   1.92050
   A11        1.94962   0.00038  -0.00004   0.00352   0.00347   1.95310
   A12        1.91984   0.00022  -0.00007   0.00073   0.00066   1.92050
   A13        1.89826  -0.00013   0.00023   0.00065   0.00088   1.89914
   A14        1.87633  -0.00061  -0.00030  -0.00669  -0.00699   1.86934
   A15        1.89829  -0.00013   0.00023   0.00064   0.00086   1.89915
   A16        2.04988   0.00213  -0.00018   0.00790   0.00772   2.05759
   A17        2.17195  -0.00061   0.00065  -0.00191  -0.00125   2.17070
   A18        2.01741   0.00145  -0.00026   0.00834   0.00808   2.02549
   A19        2.09383  -0.00084  -0.00039  -0.00644  -0.00682   2.08700
   A20        2.04395  -0.00061  -0.00054  -0.00333  -0.00387   2.04007
   A21        2.11722   0.00081   0.00035   0.00505   0.00540   2.12262
   A22        2.12201  -0.00020   0.00019  -0.00171  -0.00153   2.12049
    D1       -3.14159  -0.00000   0.00000  -0.00001  -0.00001   3.14159
    D2       -0.00000  -0.00000   0.00000  -0.00000  -0.00000  -0.00000
    D3       -0.00002   0.00000  -0.00000   0.00003   0.00003   0.00001
    D4        3.14157   0.00000  -0.00000   0.00003   0.00003  -3.14159
    D5        3.14159   0.00000  -0.00000   0.00001   0.00001  -3.14159
    D6       -0.00002   0.00000  -0.00000   0.00002   0.00002   0.00000
    D7        0.00002  -0.00000   0.00000  -0.00002  -0.00002  -0.00001
    D8       -3.14159  -0.00000   0.00000  -0.00001  -0.00001   3.14159
    D9        3.14159  -0.00000   0.00000  -0.00000  -0.00000   3.14159
   D10        0.00001  -0.00000   0.00000  -0.00002  -0.00002  -0.00001
   D11       -0.00000  -0.00000  -0.00000  -0.00000  -0.00000  -0.00001
   D12       -3.14158  -0.00000   0.00000  -0.00002  -0.00002   3.14159
   D13       -2.10969  -0.00024  -0.00022  -0.00366  -0.00389  -2.11358
   D14        0.00008   0.00000   0.00000   0.00000   0.00001   0.00008
   D15        2.10990   0.00024   0.00023   0.00363   0.00386   2.11376
   D16        1.03188  -0.00024  -0.00022  -0.00365  -0.00387   1.02801
   D17       -3.14153   0.00000   0.00000   0.00002   0.00002  -3.14151
   D18       -1.03171   0.00024   0.00022   0.00365   0.00388  -1.02783
   D19       -0.00000   0.00000  -0.00000   0.00000   0.00000   0.00000
   D20       -3.14158  -0.00000   0.00000  -0.00001  -0.00001  -3.14159
   D21       -0.00000   0.00000   0.00000   0.00000   0.00000   0.00000
   D22        3.14159   0.00000   0.00000   0.00001   0.00001  -3.14159
   D23       -0.00001   0.00000  -0.00000   0.00001   0.00001   0.00000
   D24       -3.14159  -0.00000  -0.00000  -0.00000  -0.00000  -3.14159
   D25        3.14159   0.00000  -0.00000  -0.00000  -0.00000   3.14159
   D26        0.00001  -0.00000  -0.00000  -0.00001  -0.00001  -0.00000
         Item               Value     Threshold  Converged?
 Maximum Force            0.002129     0.000450     NO 
 RMS     Force            0.000723     0.000300     NO 
 Maximum Displacement     0.014262     0.001800     NO 
 RMS     Displacement     0.003674     0.001200     NO 
 Predicted change in Energy=-6.268622D-05
 GradGradGradGradGradGradGradGradGradGradGradGradGradGradGradGradGradGrad

                          Input orientation:                          
 ---------------------------------------------------------------------
 Center     Atomic      Atomic             Coordinates (Angstroms)
 Number     Number       Type             X           Y           Z
 ---------------------------------------------------------------------
      1         35           0       -2.530271    2.436361   -0.102866
      2          6           0       -1.412858    0.893812   -0.053972
      3          6           0       -0.031118    1.041016   -0.008799
      4          6           0        0.757966   -0.114873    0.026228
      5          6           0        2.261073   -0.031349    0.075931
      6          7           0        0.227807   -1.349724    0.017672
      7          6           0       -1.102898   -1.458178   -0.026076
      8          6           0       -1.980073   -0.375162   -0.063511
      9          1           0        0.422681    2.024870   -0.000926
     10          1           0        2.693964   -0.547284   -0.786530
     11          1           0        2.611948    1.003561    0.080054
     12          1           0        2.635066   -0.534341    0.972903
     13          1           0       -1.500004   -2.471641   -0.031822
     14          1           0       -3.053282   -0.517167   -0.098385
 ---------------------------------------------------------------------
                    Distance matrix (angstroms):
                    1          2          3          4          5
     1  Br   0.000000
     2  C    1.905376   0.000000
     3  C    2.863843   1.390293   0.000000
     4  C    4.163888   2.395069   1.399985   0.000000
     5  C    5.392452   3.790853   2.532052   1.506246   0.000000
     6  N    4.685719   2.780354   2.404866   1.343875   2.423980
     7  C    4.148581   2.372490   2.719371   2.295653   3.655482
     8  C    2.865122   1.390006   2.409767   2.751847   4.257343
     9  H    2.983226   2.156689   1.083497   2.166022   2.759281
    10  H    6.054929   4.413546   3.248636   2.143745   1.094268
    11  H    5.341235   4.028532   2.644825   2.165881   1.092780
    12  H    6.055002   4.413590   3.248696   2.143747   1.094272
    13  H    5.015474   3.366654   3.807481   3.264376   4.484678
    14  H    2.999481   2.164215   3.401387   3.834447   5.339361
                    6          7          8          9         10
     6  N    0.000000
     7  C    1.335833   0.000000
     8  C    2.414766   1.394189   0.000000
     9  H    3.380267   3.802584   3.396659   0.000000
    10  H    2.715250   3.977961   4.732758   3.520210   0.000000
    11  H    3.350518   4.457746   4.796680   2.417131   1.778430
    12  H    2.715182   3.977915   4.732758   3.520306   1.760466
    13  H    2.060698   1.088500   2.150975   4.890427   4.675692
    14  H    3.387058   2.166732   1.083125   4.307408   5.788375
                   11         12         13         14
    11  H    0.000000
    12  H    1.778442   0.000000
    13  H    5.384950   4.675618   0.000000
    14  H    5.868499   5.788372   2.497413   0.000000
 Stoichiometry    C6H6BrN
 Framework group  C1[X(C6H6BrN)]
 Deg. of freedom    36
 Full point group                 C1      NOp   1
 Largest Abelian subgroup         C1      NOp   1
 Largest concise Abelian subgroup C1      NOp   1
                         Standard orientation:                         
 ---------------------------------------------------------------------
 Center     Atomic      Atomic             Coordinates (Angstroms)
 Number     Number       Type             X           Y           Z
 ---------------------------------------------------------------------
      1         35           0       -2.095414   -0.255926   -0.000000
      2          6           0       -0.245059    0.198658    0.000004
      3          6           0        0.714906   -0.807016   -0.000002
      4          6           0        2.064613   -0.435194   -0.000001
      5          6           0        3.158417   -1.470747    0.000001
      6          7           0        2.457967    0.849824   -0.000001
      7          6           0        1.511925    1.792934   -0.000000
      8          6           0        0.142055    1.533672    0.000002
      9          1           0        0.425483   -1.851142   -0.000006
     10          1           0        3.795745   -1.342900    0.880279
     11          1           0        2.757401   -2.487287   -0.000081
     12          1           0        3.795855   -1.342786   -0.880187
     13          1           0        1.863779    2.822998   -0.000004
     14          1           0       -0.585672    2.335901   -0.000000
 ---------------------------------------------------------------------
 Rotational constants (GHZ):           3.4529013           0.7498697           0.6184307
 Standard basis: 6-31G(d,p) (6D, 7F)
 There are   165 symmetry adapted cartesian basis functions of A   symmetry.
 There are   165 symmetry adapted basis functions of A   symmetry.
   165 basis functions,   321 primitive gaussians,   165 cartesian basis functions
    42 alpha electrons       42 beta electrons
       nuclear repulsion energy       525.7562018852 Hartrees.
 NAtoms=   14 NActive=   14 NUniq=   14 SFac= 1.00D+00 NAtFMM=   60 NAOKFM=F Big=F
 Integral buffers will be    131072 words long.
 Raffenetti 2 integral format.
 Two-electron integral symmetry is turned on.
 Nuclear repulsion after empirical dispersion term =      525.7294058878 Hartrees.
 One-electron integrals computed using PRISM.
 NBasis=   165 RedAO= T EigKep=  7.53D-04  NBF=   165
 NBsUse=   165 1.00D-06 EigRej= -1.00D+00 NBFU=   165
 Initial guess from the checkpoint file:  "pyrd3_conf-1.chk"
 B after Tr=    -0.000000   -0.000000   -0.000000
         Rot=    1.000000   -0.000000   -0.000000    0.000015 Ang=  -0.00 deg.
 Requested convergence on RMS density matrix=1.00D-08 within 128 cycles.
 Requested convergence on MAX density matrix=1.00D-06.
 Requested convergence on             energy=1.00D-06.
 No special actions if energy rises.
 SCF Done:  E(RB3LYP) =  -2858.74622085     A.U. after    9 cycles
            NFock=  9  Conv=0.83D-08     -V/T= 2.0065
 Calling FoFJK, ICntrl=      2127 FMM=F ISym2X=0 I1Cent= 0 IOpClX= 0 NMat=1 NMatS=1 NMatT=0.
 ***** Axes restored to original set *****
 -------------------------------------------------------------------
 Center     Atomic                   Forces (Hartrees/Bohr)
 Number     Number              X              Y              Z
 -------------------------------------------------------------------
      1       35          -0.000084546    0.000187942   -0.000004385
      2        6           0.000235890   -0.000526470    0.000012691
      3        6          -0.000280414    0.000669847   -0.000014839
      4        6           0.000536267   -0.000294388    0.000020575
      5        6          -0.000259834    0.000200165   -0.000008041
      6        7          -0.000292687    0.000159927   -0.000011093
      7        6           0.000966639   -0.001211858    0.000041472
      8        6          -0.000799203    0.001036803   -0.000034793
      9        1          -0.000131997   -0.000165579   -0.000003253
     10        1           0.000083751   -0.000015153    0.000054765
     11        1          -0.000175692   -0.000260118   -0.000003566
     12        1           0.000086178   -0.000013849   -0.000051543
     13        1          -0.000136503    0.000228967   -0.000006335
     14        1           0.000252151    0.000003764    0.000008344
 -------------------------------------------------------------------
 Cartesian Forces:  Max     0.001211858 RMS     0.000375277

 GradGradGradGradGradGradGradGradGradGradGradGradGradGradGradGradGradGrad
 Berny optimization.
 Using GEDIIS/GDIIS optimizer.
 FormGI is forming the generalized inverse of G from B-inverse, IUseBI=4.
 Internal  Forces:  Max     0.000984945 RMS     0.000177488
 Search for a local minimum.
 Step number   3 out of a maximum of   72
 All quantities printed in internal units (Hartrees-Bohrs-Radians)
 Mixed Optimization -- En-DIIS/RFO-DIIS
 Swapping is turned off.
 Update second derivatives using D2CorX and points    1    2    3
 DE= -6.86D-05 DEPred=-6.27D-05 R= 1.09D+00
 TightC=F SS=  1.41D+00  RLast= 2.51D-02 DXNew= 5.0454D-01 7.5297D-02
 Trust test= 1.09D+00 RLast= 2.51D-02 DXMaxT set to 3.00D-01
 ITU=  1  1  0
     Eigenvalues ---    0.00577   0.01453   0.02133   0.02139   0.02141
     Eigenvalues ---    0.02148   0.02149   0.02171   0.02223   0.07032
     Eigenvalues ---    0.07269   0.14228   0.16000   0.16000   0.16000
     Eigenvalues ---    0.16037   0.16238   0.17887   0.22090   0.23142
     Eigenvalues ---    0.24752   0.24984   0.25113   0.31573   0.34542
     Eigenvalues ---    0.34783   0.34907   0.35826   0.36063   0.36356
     Eigenvalues ---    0.42336   0.43011   0.45150   0.47068   0.51197
     Eigenvalues ---    0.55232
 En-DIIS/RFO-DIIS/Sim-DIIS IScMMF=       -3 using points:     3    2
 RFO step:  Lambda=-6.50473081D-06.
 DidBck=F Rises=F RFO-DIIS coefs:    1.13236   -0.13236
 Iteration  1 RMS(Cart)=  0.00075612 RMS(Int)=  0.00000063
 Iteration  2 RMS(Cart)=  0.00000061 RMS(Int)=  0.00000024
 Variable       Old X    -DE/DX   Delta X   Delta X   Delta X     New X
                                 (Linear)    (Quad)   (Total)
    R1        3.60064   0.00020   0.00097   0.00053   0.00150   3.60214
    R2        2.62727  -0.00019  -0.00001  -0.00057  -0.00058   2.62669
    R3        2.62673  -0.00026   0.00034  -0.00097  -0.00063   2.62610
    R4        2.64559   0.00047   0.00044   0.00079   0.00124   2.64683
    R5        2.04751  -0.00021  -0.00002  -0.00054  -0.00056   2.04695
    R6        2.84639  -0.00027   0.00007  -0.00116  -0.00108   2.84531
    R7        2.53956   0.00006  -0.00002  -0.00009  -0.00011   2.53944
    R8        2.06787  -0.00000   0.00014  -0.00005   0.00009   2.06796
    R9        2.06506  -0.00030  -0.00009  -0.00084  -0.00093   2.06412
   R10        2.06787  -0.00001   0.00015  -0.00006   0.00008   2.06796
   R11        2.52436  -0.00022  -0.00081  -0.00016  -0.00098   2.52338
   R12        2.63463   0.00098   0.00040   0.00203   0.00243   2.63707
   R13        2.05697  -0.00016   0.00051  -0.00076  -0.00026   2.05671
   R14        2.04681  -0.00025  -0.00018  -0.00057  -0.00075   2.04606
    A1        2.09204  -0.00014  -0.00040  -0.00034  -0.00073   2.09131
    A2        2.09393   0.00001  -0.00009   0.00010   0.00002   2.09395
    A3        2.09721   0.00013   0.00048   0.00023   0.00072   2.09793
    A4        2.06413  -0.00003  -0.00007  -0.00025  -0.00032   2.06381
    A5        2.10904  -0.00004   0.00038  -0.00041  -0.00003   2.10901
    A6        2.11001   0.00007  -0.00031   0.00066   0.00035   2.11036
    A7        2.11473  -0.00006  -0.00037  -0.00003  -0.00040   2.11433
    A8        2.13666   0.00001  -0.00076   0.00056  -0.00020   2.13646
    A9        2.03179   0.00004   0.00112  -0.00053   0.00060   2.03239
   A10        1.92050   0.00013   0.00009   0.00086   0.00095   1.92145
   A11        1.95310  -0.00016   0.00046  -0.00152  -0.00106   1.95204
   A12        1.92050   0.00013   0.00009   0.00086   0.00094   1.92144
   A13        1.89914   0.00001   0.00012   0.00002   0.00013   1.89927
   A14        1.86934  -0.00012  -0.00093  -0.00019  -0.00111   1.86822
   A15        1.89915   0.00001   0.00011   0.00001   0.00013   1.89928
   A16        2.05759   0.00007   0.00102  -0.00037   0.00066   2.05825
   A17        2.17070  -0.00018  -0.00017  -0.00037  -0.00054   2.17016
   A18        2.02549   0.00031   0.00107   0.00101   0.00208   2.02756
   A19        2.08700  -0.00013  -0.00090  -0.00064  -0.00154   2.08546
   A20        2.04007  -0.00000  -0.00051   0.00020  -0.00032   2.03976
   A21        2.12262   0.00003   0.00071  -0.00018   0.00053   2.12316
   A22        2.12049  -0.00003  -0.00020  -0.00002  -0.00022   2.12027
    D1        3.14159   0.00000  -0.00000   0.00001   0.00001  -3.14159
    D2       -0.00000   0.00000  -0.00000   0.00001   0.00001   0.00000
    D3        0.00001  -0.00000   0.00000  -0.00001  -0.00001  -0.00000
    D4       -3.14159  -0.00000   0.00000  -0.00001  -0.00001   3.14159
    D5       -3.14159  -0.00000   0.00000  -0.00001  -0.00001   3.14159
    D6        0.00000  -0.00000   0.00000  -0.00001  -0.00001  -0.00000
    D7       -0.00001   0.00000  -0.00000   0.00001   0.00001   0.00000
    D8        3.14159   0.00000  -0.00000   0.00001   0.00001  -3.14159
    D9        3.14159   0.00000  -0.00000  -0.00000  -0.00000   3.14158
   D10       -0.00001   0.00000  -0.00000   0.00001   0.00001   0.00000
   D11       -0.00001  -0.00000  -0.00000  -0.00000  -0.00000  -0.00001
   D12        3.14159   0.00000  -0.00000   0.00001   0.00000  -3.14159
   D13       -2.11358   0.00001  -0.00051   0.00040  -0.00011  -2.11369
   D14        0.00008   0.00000   0.00000   0.00000   0.00000   0.00008
   D15        2.11376  -0.00001   0.00051  -0.00040   0.00011   2.11387
   D16        1.02801   0.00001  -0.00051   0.00039  -0.00012   1.02789
   D17       -3.14151   0.00000   0.00000  -0.00001  -0.00000  -3.14152
   D18       -1.02783  -0.00001   0.00051  -0.00041   0.00010  -1.02773
   D19        0.00000   0.00000   0.00000  -0.00000  -0.00000   0.00000
   D20       -3.14159   0.00000  -0.00000   0.00001   0.00001  -3.14158
   D21        0.00000  -0.00000   0.00000  -0.00000  -0.00000  -0.00000
   D22       -3.14159  -0.00000   0.00000  -0.00001  -0.00000   3.14159
   D23        0.00000  -0.00000   0.00000  -0.00000  -0.00000  -0.00000
   D24       -3.14159  -0.00000  -0.00000  -0.00000  -0.00000   3.14159
   D25        3.14159   0.00000  -0.00000   0.00000  -0.00000   3.14159
   D26       -0.00000   0.00000  -0.00000   0.00000  -0.00000  -0.00000
         Item               Value     Threshold  Converged?
 Maximum Force            0.000985     0.000450     NO 
 RMS     Force            0.000177     0.000300     YES
 Maximum Displacement     0.003649     0.001800     NO 
 RMS     Displacement     0.000756     0.001200     YES
 Predicted change in Energy=-3.252504D-06
 GradGradGradGradGradGradGradGradGradGradGradGradGradGradGradGradGradGrad

                          Input orientation:                          
 ---------------------------------------------------------------------
 Center     Atomic      Atomic             Coordinates (Angstroms)
 Number     Number       Type             X           Y           Z
 ---------------------------------------------------------------------
      1         35           0       -2.529721    2.437220   -0.102857
      2          6           0       -1.412537    0.893526   -0.053951
      3          6           0       -0.031146    1.041089   -0.008797
      4          6           0        0.758267   -0.115369    0.026246
      5          6           0        2.260771   -0.031331    0.075919
      6          7           0        0.227840   -1.350041    0.017678
      7          6           0       -1.102304   -1.459015   -0.026049
      8          6           0       -1.980163   -0.374897   -0.063516
      9          1           0        0.422220    2.024817   -0.000941
     10          1           0        2.694815   -0.547004   -0.786180
     11          1           0        2.610017    1.003609    0.079985
     12          1           0        2.635942   -0.534053    0.972604
     13          1           0       -1.501036   -2.471692   -0.031861
     14          1           0       -3.052964   -0.516959   -0.098381
 ---------------------------------------------------------------------
                    Distance matrix (angstroms):
                    1          2          3          4          5
     1  Br   0.000000
     2  C    1.906170   0.000000
     3  C    2.863723   1.389984   0.000000
     4  C    4.164522   2.395139   1.400641   0.000000
     5  C    5.392079   3.790174   2.531826   1.505672   0.000000
     6  N    4.686366   2.780210   2.405261   1.343816   2.423880
     7  C    4.150189   2.373072   2.719962   2.295614   3.654990
     8  C    2.865583   1.389672   2.409705   2.752165   4.257112
     9  H    2.982351   2.156145   1.083200   2.166578   2.759334
    10  H    6.055436   4.413800   3.249188   2.143960   1.094316
    11  H    5.339062   4.026289   2.642920   2.164250   1.092287
    12  H    6.055506   4.413840   3.249243   2.143958   1.094315
    13  H    5.016039   3.366454   3.807984   3.264978   4.485328
    14  H    3.000163   2.163896   3.401018   3.834356   5.338726
                    6          7          8          9         10
     6  N    0.000000
     7  C    1.335317   0.000000
     8  C    2.415115   1.395475   0.000000
     9  H    3.380503   3.802879   3.396173   0.000000
    10  H    2.716067   3.978401   4.733634   3.520731   0.000000
    11  H    3.349376   4.456129   4.794854   2.415755   1.778154
    12  H    2.716003   3.978359   4.733635   3.520820   1.759816
    13  H    2.061448   1.088364   2.151073   4.890650   4.677456
    14  H    3.386912   2.167435   1.082727   4.306626   5.788863
                   11         12         13         14
    11  H    0.000000
    12  H    1.778158   0.000000
    13  H    5.384328   4.677390   0.000000
    14  H    5.866285   5.788864   2.496775   0.000000
 Stoichiometry    C6H6BrN
 Framework group  C1[X(C6H6BrN)]
 Deg. of freedom    36
 Full point group                 C1      NOp   1
 Largest Abelian subgroup         C1      NOp   1
 Largest concise Abelian subgroup C1      NOp   1
                         Standard orientation:                         
 ---------------------------------------------------------------------
 Center     Atomic      Atomic             Coordinates (Angstroms)
 Number     Number       Type             X           Y           Z
 ---------------------------------------------------------------------
      1         35           0       -2.095696   -0.255755    0.000001
      2          6           0       -0.244599    0.199131   -0.000003
      3          6           0        0.714478   -0.806965   -0.000005
      4          6           0        2.064947   -0.435447   -0.000005
      5          6           0        3.157557   -1.471426    0.000004
      6          7           0        2.458482    0.849454   -0.000002
      7          6           0        1.513571    1.792966    0.000001
      8          6           0        0.142365    1.533840    0.000002
      9          1           0        0.424399   -1.850602   -0.000007
     10          1           0        3.795654   -1.344780    0.879958
     11          1           0        2.754882   -2.486780   -0.000076
     12          1           0        3.795760   -1.344677   -0.879858
     13          1           0        1.864075    2.823346    0.000003
     14          1           0       -0.584701    2.336132    0.000005
 ---------------------------------------------------------------------
 Rotational constants (GHZ):           3.4522506           0.7497439           0.6183225
 Standard basis: 6-31G(d,p) (6D, 7F)
 There are   165 symmetry adapted cartesian basis functions of A   symmetry.
 There are   165 symmetry adapted basis functions of A   symmetry.
   165 basis functions,   321 primitive gaussians,   165 cartesian basis functions
    42 alpha electrons       42 beta electrons
       nuclear repulsion energy       525.7108657797 Hartrees.
 NAtoms=   14 NActive=   14 NUniq=   14 SFac= 1.00D+00 NAtFMM=   60 NAOKFM=F Big=F
 Integral buffers will be    131072 words long.
 Raffenetti 2 integral format.
 Two-electron integral symmetry is turned on.
 Nuclear repulsion after empirical dispersion term =      525.6840705453 Hartrees.
 One-electron integrals computed using PRISM.
 NBasis=   165 RedAO= T EigKep=  7.53D-04  NBF=   165
 NBsUse=   165 1.00D-06 EigRej= -1.00D+00 NBFU=   165
 Initial guess from the checkpoint file:  "pyrd3_conf-1.chk"
 B after Tr=     0.000000    0.000000   -0.000000
         Rot=    1.000000    0.000000   -0.000000    0.000111 Ang=   0.01 deg.
 Requested convergence on RMS density matrix=1.00D-08 within 128 cycles.
 Requested convergence on MAX density matrix=1.00D-06.
 Requested convergence on             energy=1.00D-06.
 No special actions if energy rises.
 SCF Done:  E(RB3LYP) =  -2858.74622421     A.U. after    9 cycles
            NFock=  9  Conv=0.35D-08     -V/T= 2.0065
 Calling FoFJK, ICntrl=      2127 FMM=F ISym2X=0 I1Cent= 0 IOpClX= 0 NMat=1 NMatS=1 NMatT=0.
 ***** Axes restored to original set *****
 -------------------------------------------------------------------
 Center     Atomic                   Forces (Hartrees/Bohr)
 Number     Number              X              Y              Z
 -------------------------------------------------------------------
      1       35           0.000000827    0.000009954    0.000000072
      2        6          -0.000102868   -0.000196026   -0.000002496
      3        6           0.000150956   -0.000001805    0.000005400
      4        6           0.000005073    0.000163821   -0.000001555
      5        6          -0.000024722   -0.000056100    0.000000251
      6        7          -0.000018872   -0.000060051   -0.000000108
      7        6          -0.000035843   -0.000175817    0.000000095
      8        6           0.000004412    0.000213673   -0.000001292
      9        1          -0.000011088   -0.000011265   -0.000000277
     10        1           0.000002843    0.000022764    0.000007259
     11        1           0.000022588    0.000014357    0.000000636
     12        1           0.000003414    0.000022919   -0.000007759
     13        1           0.000011495    0.000076170   -0.000000175
     14        1          -0.000008215   -0.000022593   -0.000000051
 -------------------------------------------------------------------
 Cartesian Forces:  Max     0.000213673 RMS     0.000067797

 GradGradGradGradGradGradGradGradGradGradGradGradGradGradGradGradGradGrad
 Berny optimization.
 Using GEDIIS/GDIIS optimizer.
 FormGI is forming the generalized inverse of G from B-inverse, IUseBI=4.
 Internal  Forces:  Max     0.000125343 RMS     0.000033605
 Search for a local minimum.
 Step number   4 out of a maximum of   72
 All quantities printed in internal units (Hartrees-Bohrs-Radians)
 Mixed Optimization -- En-DIIS/RFO-DIIS
 Swapping is turned off.
 Update second derivatives using D2CorX and points    1    2    3    4
 DE= -3.36D-06 DEPred=-3.25D-06 R= 1.03D+00
 TightC=F SS=  1.41D+00  RLast= 5.32D-03 DXNew= 5.0454D-01 1.5957D-02
 Trust test= 1.03D+00 RLast= 5.32D-03 DXMaxT set to 3.00D-01
 ITU=  1  1  1  0
     Eigenvalues ---    0.00577   0.01453   0.02133   0.02139   0.02141
     Eigenvalues ---    0.02148   0.02149   0.02171   0.02223   0.07034
     Eigenvalues ---    0.07287   0.13592   0.15978   0.16000   0.16000
     Eigenvalues ---    0.16022   0.16335   0.17890   0.21844   0.22709
     Eigenvalues ---    0.24779   0.24897   0.25118   0.31801   0.34715
     Eigenvalues ---    0.34784   0.35033   0.35777   0.36071   0.36289
     Eigenvalues ---    0.42169   0.43542   0.44710   0.48152   0.51058
     Eigenvalues ---    0.55571
 En-DIIS/RFO-DIIS/Sim-DIIS IScMMF=       -3 using points:     4    3    2
 RFO step:  Lambda=-1.90083366D-07.
 DidBck=F Rises=F RFO-DIIS coefs:    1.06610   -0.06733    0.00123
 Iteration  1 RMS(Cart)=  0.00012662 RMS(Int)=  0.00000001
 Iteration  2 RMS(Cart)=  0.00000001 RMS(Int)=  0.00000001
 Variable       Old X    -DE/DX   Delta X   Delta X   Delta X     New X
                                 (Linear)    (Quad)   (Total)
    R1        3.60214   0.00001   0.00009  -0.00002   0.00007   3.60221
    R2        2.62669   0.00009  -0.00004   0.00021   0.00017   2.62686
    R3        2.62610  -0.00013  -0.00004  -0.00027  -0.00031   2.62579
    R4        2.64683  -0.00009   0.00008  -0.00025  -0.00017   2.64666
    R5        2.04695  -0.00001  -0.00004  -0.00002  -0.00005   2.04690
    R6        2.84531   0.00000  -0.00007   0.00005  -0.00002   2.84529
    R7        2.53944   0.00012  -0.00001   0.00022   0.00022   2.53966
    R8        2.06796  -0.00002   0.00000  -0.00005  -0.00004   2.06792
    R9        2.06412   0.00002  -0.00006   0.00010   0.00004   2.06417
   R10        2.06796  -0.00002   0.00000  -0.00005  -0.00004   2.06791
   R11        2.52338   0.00005  -0.00006   0.00012   0.00006   2.52345
   R12        2.63707   0.00006   0.00016   0.00003   0.00019   2.63725
   R13        2.05671  -0.00008  -0.00002  -0.00020  -0.00022   2.05649
   R14        2.04606   0.00001  -0.00005   0.00007   0.00002   2.04608
    A1        2.09131  -0.00004  -0.00004  -0.00013  -0.00017   2.09114
    A2        2.09395  -0.00002   0.00000  -0.00006  -0.00006   2.09389
    A3        2.09793   0.00006   0.00004   0.00019   0.00023   2.09816
    A4        2.06381  -0.00002  -0.00002  -0.00009  -0.00011   2.06370
    A5        2.10901   0.00000  -0.00001   0.00002   0.00002   2.10903
    A6        2.11036   0.00001   0.00003   0.00007   0.00009   2.11046
    A7        2.11433   0.00000  -0.00002   0.00000  -0.00002   2.11431
    A8        2.13646  -0.00002  -0.00001  -0.00005  -0.00005   2.13641
    A9        2.03239   0.00002   0.00003   0.00004   0.00007   2.03246
   A10        1.92145   0.00001   0.00006   0.00005   0.00011   1.92156
   A11        1.95204   0.00001  -0.00007   0.00010   0.00003   1.95206
   A12        1.92144   0.00001   0.00006   0.00005   0.00011   1.92156
   A13        1.89927  -0.00002   0.00001  -0.00016  -0.00015   1.89912
   A14        1.86822   0.00000  -0.00006   0.00011   0.00005   1.86827
   A15        1.89928  -0.00002   0.00001  -0.00016  -0.00015   1.89913
   A16        2.05825   0.00001   0.00003   0.00009   0.00012   2.05837
   A17        2.17016  -0.00004  -0.00003  -0.00012  -0.00015   2.17001
   A18        2.02756   0.00004   0.00013   0.00010   0.00023   2.02779
   A19        2.08546   0.00000  -0.00009   0.00001  -0.00008   2.08538
   A20        2.03976  -0.00000  -0.00002  -0.00002  -0.00004   2.03972
   A21        2.12316   0.00002   0.00003   0.00014   0.00017   2.12332
   A22        2.12027  -0.00002  -0.00001  -0.00012  -0.00013   2.12014
    D1       -3.14159  -0.00000   0.00000  -0.00000  -0.00000   3.14159
    D2        0.00000  -0.00000   0.00000  -0.00000  -0.00000  -0.00000
    D3       -0.00000   0.00000  -0.00000   0.00001   0.00001   0.00000
    D4        3.14159   0.00000  -0.00000   0.00001   0.00001  -3.14159
    D5        3.14159   0.00000  -0.00000   0.00001   0.00000  -3.14159
    D6       -0.00000   0.00000  -0.00000   0.00000   0.00000   0.00000
    D7        0.00000  -0.00000   0.00000  -0.00001  -0.00000  -0.00000
    D8       -3.14159  -0.00000   0.00000  -0.00001  -0.00001   3.14159
    D9        3.14158   0.00000  -0.00000   0.00000   0.00000   3.14159
   D10        0.00000  -0.00000   0.00000  -0.00000  -0.00000  -0.00000
   D11       -0.00001   0.00000  -0.00000   0.00000   0.00000  -0.00000
   D12       -3.14159  -0.00000   0.00000  -0.00000  -0.00000   3.14159
   D13       -2.11369   0.00001  -0.00000   0.00009   0.00009  -2.11360
   D14        0.00008  -0.00000   0.00000  -0.00001  -0.00001   0.00008
   D15        2.11387  -0.00001   0.00000  -0.00010  -0.00010   2.11377
   D16        1.02789   0.00001  -0.00000   0.00010   0.00010   1.02799
   D17       -3.14152  -0.00000  -0.00000   0.00000   0.00000  -3.14152
   D18       -1.02773  -0.00001   0.00000  -0.00010  -0.00010  -1.02783
   D19        0.00000   0.00000  -0.00000   0.00000   0.00000   0.00000
   D20       -3.14158  -0.00000   0.00000  -0.00001  -0.00001  -3.14159
   D21       -0.00000   0.00000  -0.00000  -0.00000  -0.00000  -0.00000
   D22        3.14159   0.00000  -0.00000   0.00000   0.00000  -3.14159
   D23       -0.00000   0.00000  -0.00000   0.00000   0.00000   0.00000
   D24        3.14159   0.00000  -0.00000   0.00000   0.00000  -3.14159
   D25        3.14159   0.00000  -0.00000   0.00000   0.00000   3.14159
   D26       -0.00000   0.00000  -0.00000   0.00000   0.00000  -0.00000
         Item               Value     Threshold  Converged?
 Maximum Force            0.000125     0.000450     YES
 RMS     Force            0.000034     0.000300     YES
 Maximum Displacement     0.000485     0.001800     YES
 RMS     Displacement     0.000127     0.001200     YES
 Predicted change in Energy=-9.504128D-08
 Optimization completed.
    -- Stationary point found.
                           ----------------------------
                           !   Optimized Parameters   !
                           ! (Angstroms and Degrees)  !
 --------------------------                            --------------------------
 ! Name  Definition              Value          Derivative Info.                !
 --------------------------------------------------------------------------------
 ! R1    R(1,2)                  1.9062         -DE/DX =    0.0                 !
 ! R2    R(2,3)                  1.39           -DE/DX =    0.0001              !
 ! R3    R(2,8)                  1.3897         -DE/DX =   -0.0001              !
 ! R4    R(3,4)                  1.4006         -DE/DX =   -0.0001              !
 ! R5    R(3,9)                  1.0832         -DE/DX =    0.0                 !
 ! R6    R(4,5)                  1.5057         -DE/DX =    0.0                 !
 ! R7    R(4,6)                  1.3438         -DE/DX =    0.0001              !
 ! R8    R(5,10)                 1.0943         -DE/DX =    0.0                 !
 ! R9    R(5,11)                 1.0923         -DE/DX =    0.0                 !
 ! R10   R(5,12)                 1.0943         -DE/DX =    0.0                 !
 ! R11   R(6,7)                  1.3353         -DE/DX =    0.0                 !
 ! R12   R(7,8)                  1.3955         -DE/DX =    0.0001              !
 ! R13   R(7,13)                 1.0884         -DE/DX =   -0.0001              !
 ! R14   R(8,14)                 1.0827         -DE/DX =    0.0                 !
 ! A1    A(1,2,3)              119.8232         -DE/DX =    0.0                 !
 ! A2    A(1,2,8)              119.9743         -DE/DX =    0.0                 !
 ! A3    A(3,2,8)              120.2025         -DE/DX =    0.0001              !
[...]
 Initial guess from the checkpoint file:  "pyrd3_conf-1.chk"
 B after Tr=     0.000000    0.000000    0.000000
         Rot=    1.000000    0.000000   -0.000000   -0.000000 Ang=   0.00 deg.
 Requested convergence on RMS density matrix=1.00D-08 within 128 cycles.
 Requested convergence on MAX density matrix=1.00D-06.
 Requested convergence on             energy=1.00D-06.
 No special actions if energy rises.
 SCF Done:  E(RM062X) =  -2861.17636312     A.U. after    1 cycles
            NFock=  1  Conv=0.19D-08     -V/T= 2.0017
 DoSCS=F DFT=T ScalE2(SS,OS)=  1.000000  1.000000
 Range of M.O.s used for correlation:     1   301
 NBasis=   301 NAE=    42 NBE=    42 NFC=     0 NFV=     0
 NROrb=    301 NOA=    42 NOB=    42 NVA=   259 NVB=   259

 **** Warning!!: The largest alpha MO coefficient is  0.28643393D+02

          Differentiating once with respect to magnetic field using GIAOs.
          Electric field/nuclear overlap derivatives assumed to be zero.
 FoFCou: FMM=F IPFlag=           0 FMFlag=      100000 FMFlg1=           0
         NFxFlg=           0 DoJE=F BraDBF=F KetDBF=T FulRan=T
         wScrn=  0.000000 ICntrl=      6100 IOpCl=  0 I1Cent=           7 NGrid=          14
         NMat0=    1 NMatS0=      1 NMatT0=    0 NMatD0=    1 NMtDS0=    0 NMtDT0=    0
 Symmetry not used in FoFCou.
   1 Symmetry operations used in ECPInt.
 ECPInt:  NShTT=    6903 NPrTT=   23458 LenC2=    6904 LenP2D=   23458.
 LDataN:  DoStor=T MaxTD1= 7 Len=  274
 FoFJK:  IHMeth= 1 ICntrl=    6127 DoSepK=F KAlg= 0 I1Cent=           0 FoldK=F
 IRaf=         1 NMat=       1 IRICut=       1 DoRegI=T DoRafI=F ISym2E= 0 IDoP0=0 IntGTp=1.
          There are     3 degrees of freedom in the 1st order CPHF.  IDoFFX=0 NUNeed=     3.
      3 vectors produced by pass  0 Test12= 3.63D-13 3.33D-08 XBig12= 8.72D+00 6.26D-01.
 AX will form     3 AO Fock derivatives at one time.
      3 vectors produced by pass  1 Test12= 3.63D-13 3.33D-08 XBig12= 5.95D-02 1.20D-01.
      3 vectors produced by pass  2 Test12= 3.63D-13 3.33D-08 XBig12= 1.11D-03 1.42D-02.
      3 vectors produced by pass  3 Test12= 3.63D-13 3.33D-08 XBig12= 1.17D-05 7.42D-04.
      3 vectors produced by pass  4 Test12= 3.63D-13 3.33D-08 XBig12= 9.49D-08 7.93D-05.
      3 vectors produced by pass  5 Test12= 3.63D-13 3.33D-08 XBig12= 1.21D-09 1.57D-05.
      3 vectors produced by pass  6 Test12= 3.63D-13 3.33D-08 XBig12= 1.83D-11 2.31D-06.
      3 vectors produced by pass  7 Test12= 3.63D-13 3.33D-08 XBig12= 3.13D-13 2.50D-07.
 InvSVY:  IOpt=1 It=  1 EMax= 1.78D-15
 Solved reduced A of dimension    24 with     3 vectors.
 Calculating GIAO nuclear magnetic shielding tensors.
 SCF GIAO Magnetic shielding tensor (ppm):
      1  Br   Isotropic =  2046.0692   Anisotropy =  1290.6079
   XX=  2833.1187   YX=   298.5443   ZX=    -0.0044
   XY=   294.1041   YY=  1709.4568   ZY=    -0.0011
   XZ=    -0.0020   YZ=     0.0009   ZZ=  1595.6319
   Eigenvalues:  1595.6319  1636.1011  2906.4744
      2  C    Isotropic =    10.7467   Anisotropy =   174.0429
   XX=   -98.4180   YX=   -26.5961   ZX=     0.0003
   XY=   -26.3125   YY=     3.8827   ZY=    -0.0002
   XZ=     0.0006   YZ=    -0.0000   ZZ=   126.7752
   Eigenvalues:  -104.8539    10.3187   126.7752
      3  C    Isotropic =    38.6499   Anisotropy =   154.7886
   XX=    38.0120   YX=   -51.0088   ZX=    -0.0002
   XY=   -31.7236   YY=   -63.9046   ZY=    -0.0002
   XZ=    -0.0016   YZ=     0.0015   ZZ=   141.8423
   Eigenvalues:   -78.5810    52.6884   141.8423
      4  C    Isotropic =    -2.6580   Anisotropy =   215.9434
   XX=   -57.2703   YX=    29.8504   ZX=    -0.0004
   XY=    57.0897   YY=   -92.0079   ZY=     0.0002
   XZ=    -0.0003   YZ=    -0.0001   ZZ=   141.3043
   Eigenvalues:  -121.4506   -27.8275   141.3043
      5  C    Isotropic =   159.0607   Anisotropy =    43.3764
   XX=   167.7529   YX=   -20.3878   ZX=    -0.0013
   XY=   -15.5848   YY=   171.9834   ZY=     0.0013
   XZ=     0.0004   YZ=    -0.0008   ZZ=   137.4460
   Eigenvalues:   137.4460   151.7579   187.9784
      6  N    Isotropic =  -142.7935   Anisotropy =   644.8956
   XX=  -248.8007   YX=    86.4390   ZX=    -0.0004
   XY=    56.0146   YY=  -466.7167   ZY=    -0.0009
   XZ=    -0.0025   YZ=     0.0027   ZZ=   287.1369
   Eigenvalues:  -487.9321  -227.5853   287.1369
      7  C    Isotropic =    11.0297   Anisotropy =   195.8809
   XX=     4.9921   YX=    -4.9329   ZX=     0.0001
   XY=   -34.6535   YY=  -113.5200   ZY=    -0.0006
   XZ=    -0.0003   YZ=    -0.0010   ZZ=   141.6170
   Eigenvalues:  -116.7383     8.2104   141.6170
      8  C    Isotropic =    41.1364   Anisotropy =   172.2937
   XX=   -18.6324   YX=    71.4551   ZX=     0.0004
   XY=    55.6012   YY=   -13.9573   ZY=    -0.0007
   XZ=     0.0012   YZ=    -0.0015   ZZ=   155.9989
   Eigenvalues:   -79.8660    47.2763   155.9989
      9  H    Isotropic =    23.9695   Anisotropy =    12.8472
   XX=    30.5344   YX=    -5.0837   ZX=    -0.0000
   XY=    -4.3147   YY=    21.4920   ZY=     0.0000
   XZ=     0.0001   YZ=     0.0001   ZZ=    19.8820
   Eigenvalues:    19.4922    19.8820    32.5342
     10  H    Isotropic =    29.1490   Anisotropy =     7.5714
   XX=    30.8670   YX=     0.1527   ZX=     3.5489
   XY=    -0.9271   YY=    27.7389   ZY=    -0.0323
   XZ=     4.8014   YZ=    -0.7520   ZZ=    28.8410
   Eigenvalues:    25.5555    27.6948    34.1966
     11  H    Isotropic =    29.6590   Anisotropy =     6.0870
   XX=    30.4225   YX=    -0.6906   ZX=     0.0001
   XY=     2.0176   YY=    33.5834   ZY=     0.0005
   XZ=     0.0001   YZ=     0.0006   ZZ=    24.9711
   Eigenvalues:    24.9711    30.2889    33.7170
     12  H    Isotropic =    29.1489   Anisotropy =     7.5715
   XX=    30.8677   YX=     0.1533   ZX=    -3.5490
   XY=    -0.9268   YY=    27.7390   ZY=     0.0319
   XZ=    -4.8014   YZ=     0.7514   ZZ=    28.8401
   Eigenvalues:    25.5551    27.6951    34.1966
     13  H    Isotropic =    22.5690   Anisotropy =     7.4665
   XX=    27.5466   YX=    -0.3090   ZX=    -0.0000
   XY=     0.2439   YY=    20.8859   ZY=     0.0000
   XZ=    -0.0000   YZ=     0.0000   ZZ=    19.2746
   Eigenvalues:    19.2746    20.8857    27.5467
     14  H    Isotropic =    24.0358   Anisotropy =    10.4306
   XX=    24.3442   YX=     5.7724   ZX=     0.0000
   XY=     4.4301   YY=    27.0736   ZY=     0.0000
   XZ=     0.0001   YZ=    -0.0000   ZZ=    20.6896
   Eigenvalues:    20.4283    20.6896    30.9896
 End of Minotr F.D. properties file   721 does not exist.
 End of Minotr F.D. properties file   722 does not exist.
 End of Minotr F.D. properties file   788 does not exist.

 **********************************************************************

            Population analysis using the SCF Density.

 **********************************************************************

 Orbital symmetries:
       Occupied  (A) (A) (A) (A) (A) (A) (A) (A) (A) (A) (A) (A)
                 (A) (A) (A) (A) (A) (A) (A) (A) (A) (A) (A) (A)
                 (A) (A) (A) (A) (A) (A) (A) (A) (A) (A) (A) (A)
                 (A) (A) (A) (A) (A) (A)
       Virtual   (A) (A) (A) (A) (A) (A) (A) (A) (A) (A) (A) (A)
                 (A) (A) (A) (A) (A) (A) (A) (A) (A) (A) (A) (A)
                 (A) (A) (A) (A) (A) (A) (A) (A) (A) (A) (A) (A)
                 (A) (A) (A) (A) (A) (A) (A) (A) (A) (A) (A) (A)
                 (A) (A) (A) (A) (A) (A) (A) (A) (A) (A) (A) (A)
                 (A) (A) (A) (A) (A) (A) (A) (A) (A) (A) (A) (A)
                 (A) (A) (A) (A) (A) (A) (A) (A) (A) (A) (A) (A)
                 (A) (A) (A) (A) (A) (A) (A) (A) (A) (A) (A) (A)
                 (A) (A) (A) (A) (A) (A) (A) (A) (A) (A) (A) (A)
                 (A) (A) (A) (A) (A) (A) (A) (A) (A) (A) (A) (A)
                 (A) (A) (A) (A) (A) (A) (A) (A) (A) (A) (A) (A)
                 (A) (A) (A) (A) (A) (A) (A) (A) (A) (A) (A) (A)
                 (A) (A) (A) (A) (A) (A) (A) (A) (A) (A) (A) (A)
                 (A) (A) (A) (A) (A) (A) (A) (A) (A) (A) (A) (A)
                 (A) (A) (A) (A) (A) (A) (A) (A) (A) (A) (A) (A)
                 (A) (A) (A) (A) (A) (A) (A) (A) (A) (A) (A) (A)
                 (A) (A) (A) (A) (A) (A) (A) (A) (A) (A) (A) (A)
                 (A) (A) (A) (A) (A) (A) (A) (A) (A) (A) (A) (A)
                 (A) (A) (A) (A) (A) (A) (A) (A) (A) (A) (A) (A)
                 (A) (A) (A) (A) (A) (A) (A) (A) (A) (A) (A) (A)
                 (A) (A) (A) (A) (A) (A) (A) (A) (A) (A) (A) (A)
                 (A) (A) (A) (A) (A) (A) (A)
 The electronic state is 1-A.
 Alpha  occ. eigenvalues -- -485.38500 -63.36979 -57.18926 -57.18688 -57.18678
 Alpha  occ. eigenvalues --  -14.75547 -10.62246 -10.59855 -10.58991 -10.56413
 Alpha  occ. eigenvalues --  -10.56408 -10.54026  -9.03625  -6.86039  -6.85158
 Alpha  occ. eigenvalues --   -6.85124  -2.89417  -2.89100  -2.89064  -2.88243
 Alpha  occ. eigenvalues --   -2.88242  -1.06520  -0.94933  -0.89381  -0.85514
 Alpha  occ. eigenvalues --   -0.80485  -0.72459  -0.68169  -0.59212  -0.57915
 Alpha  occ. eigenvalues --   -0.54137  -0.51400  -0.49844  -0.47242  -0.46367
 Alpha  occ. eigenvalues --   -0.44978  -0.43785  -0.40280  -0.35994  -0.33572
 Alpha  occ. eigenvalues --   -0.32665  -0.32162
 Alpha virt. eigenvalues --   -0.01138   0.00396   0.02728   0.07918   0.10077
 Alpha virt. eigenvalues --    0.10975   0.12772   0.13268   0.14374   0.16540
 Alpha virt. eigenvalues --    0.16827   0.17316   0.19497   0.20757   0.21674
 Alpha virt. eigenvalues --    0.22839   0.23510   0.24264   0.26375   0.26760
 Alpha virt. eigenvalues --    0.27085   0.28560   0.29464   0.29727   0.30951
 Alpha virt. eigenvalues --    0.32855   0.33506   0.34947   0.36118   0.37261
 Alpha virt. eigenvalues --    0.38612   0.40123   0.40253   0.41335   0.41977
 Alpha virt. eigenvalues --    0.42538   0.43533   0.44180   0.45799   0.47136
 Alpha virt. eigenvalues --    0.49062   0.50026   0.51495   0.52727   0.53757
 Alpha virt. eigenvalues --    0.54333   0.55733   0.58087   0.59657   0.61441
 Alpha virt. eigenvalues --    0.61602   0.62913   0.66363   0.67024   0.68795
 Alpha virt. eigenvalues --    0.69550   0.72632   0.73573   0.75505   0.76509
 Alpha virt. eigenvalues --    0.76897   0.80830   0.83819   0.86203   0.87404
 Alpha virt. eigenvalues --    0.89014   0.89725   0.95249   0.95834   0.97943
 Alpha virt. eigenvalues --    0.99119   1.04015   1.07044   1.07075   1.07994
 Alpha virt. eigenvalues --    1.12371   1.12802   1.16677   1.17300   1.19058
 Alpha virt. eigenvalues --    1.20840   1.24909   1.26909   1.27708   1.28833
 Alpha virt. eigenvalues --    1.31109   1.32999   1.36332   1.39768   1.40194
 Alpha virt. eigenvalues --    1.40717   1.43293   1.45955   1.46908   1.48808
 Alpha virt. eigenvalues --    1.49960   1.50735   1.52764   1.54170   1.54528
 Alpha virt. eigenvalues --    1.56500   1.57488   1.57961   1.58528   1.59382
 Alpha virt. eigenvalues --    1.62904   1.63348   1.64550   1.65194   1.66191
 Alpha virt. eigenvalues --    1.67010   1.71851   1.72277   1.72913   1.73780
 Alpha virt. eigenvalues --    1.75903   1.75962   1.82579   1.83317   1.83888
 Alpha virt. eigenvalues --    1.86253   1.87195   1.89317   1.92997   1.95336
 Alpha virt. eigenvalues --    1.99058   1.99533   2.03283   2.05605   2.07239
 Alpha virt. eigenvalues --    2.07490   2.13969   2.14632   2.19088   2.22369
 Alpha virt. eigenvalues --    2.22689   2.28041   2.30367   2.31451   2.35166
 Alpha virt. eigenvalues --    2.36641   2.36831   2.41759   2.46325   2.46936
 Alpha virt. eigenvalues --    2.50301   2.51103   2.54679   2.55921   2.60836
 Alpha virt. eigenvalues --    2.61601   2.62749   2.64549   2.66896   2.70267
 Alpha virt. eigenvalues --    2.71368   2.73219   2.73631   2.77133   2.77631
 Alpha virt. eigenvalues --    2.80329   2.81651   2.85480   2.86105   2.88535
 Alpha virt. eigenvalues --    2.90228   2.93635   2.95835   2.99390   2.99690
 Alpha virt. eigenvalues --    3.04149   3.04263   3.06062   3.07220   3.07438
 Alpha virt. eigenvalues --    3.10200   3.11093   3.12837   3.16439   3.19648
 Alpha virt. eigenvalues --    3.20537   3.20973   3.22114   3.25370   3.29000
 Alpha virt. eigenvalues --    3.29132   3.31600   3.32119   3.33731   3.36620
 Alpha virt. eigenvalues --    3.37019   3.38146   3.40625   3.43272   3.45163
 Alpha virt. eigenvalues --    3.46371   3.54649   3.55699   3.56333   3.59688
 Alpha virt. eigenvalues --    3.62968   3.69222   3.69710   3.71782   3.75810
 Alpha virt. eigenvalues --    3.81548   3.82007   3.85989   3.88696   3.92593
 Alpha virt. eigenvalues --    3.96790   4.00728   4.05719   4.05814   4.08596
 Alpha virt. eigenvalues --    4.10551   4.13778   4.14097   4.19393   4.21533
 Alpha virt. eigenvalues --    4.22037   4.26891   4.29888   4.34420   4.36972
 Alpha virt. eigenvalues --    4.37340   4.38496   4.41198   4.44434   4.46052
 Alpha virt. eigenvalues --    4.54038   4.58922   4.61500   4.65712   4.74809
 Alpha virt. eigenvalues --    4.84341   4.85435   4.85704   4.90771   4.94221
 Alpha virt. eigenvalues --    5.00652   5.06142   5.08861   5.19283   5.26517
 Alpha virt. eigenvalues --    5.33680   5.34977   5.53308   5.62596   5.72509
 Alpha virt. eigenvalues --    6.00634   7.85000  22.32973  22.50075  22.73503
 Alpha virt. eigenvalues --   22.80801  22.98299  23.11626  32.59883
          Condensed to atoms (all electrons):
               1          2          3          4          5          6
     1  Br  34.884299   0.375363  -0.092470   0.017213  -0.000873  -0.000935
     2  C    0.375363   4.828027   0.423424  -0.022759   0.010176  -0.036702
     3  C   -0.092470   0.423424   5.206094   0.476254  -0.058619  -0.069528
     4  C    0.017213  -0.022759   0.476254   4.899888   0.264139   0.457150
     5  C   -0.000873   0.010176  -0.058619   0.264139   5.030755  -0.048598
     6  N   -0.000935  -0.036702  -0.069528   0.457150  -0.048598   6.482942
     7  C    0.012251  -0.014428  -0.047303  -0.092160   0.001740   0.535006
     8  C   -0.092981   0.466249  -0.039875  -0.046404   0.002172  -0.062628
     9  H   -0.008931  -0.036889   0.384000  -0.014999  -0.004563   0.006481
    10  H    0.000024  -0.001132   0.002260  -0.031509   0.401568   0.000465
    11  H    0.000020   0.005939  -0.001248  -0.076232   0.441617   0.004635
    12  H    0.000024  -0.001132   0.002263  -0.031518   0.401577   0.000465
    13  H   -0.000436   0.003123  -0.001478   0.007924  -0.000279  -0.033131
    14  H   -0.006752  -0.053962   0.015740  -0.003381   0.000106   0.006357
               7          8          9         10         11         12
     1  Br   0.012251  -0.092981  -0.008931   0.000024   0.000020   0.000024
     2  C   -0.014428   0.466249  -0.036889  -0.001132   0.005939  -0.001132
     3  C   -0.047303  -0.039875   0.384000   0.002260  -0.001248   0.002263
     4  C   -0.092160  -0.046404  -0.014999  -0.031509  -0.076232  -0.031518
     5  C    0.001740   0.002172  -0.004563   0.401568   0.441617   0.401577
     6  N    0.535006  -0.062628   0.006481   0.000465   0.004635   0.000465
     7  C    4.807450   0.458315  -0.002487   0.000258  -0.000093   0.000258
     8  C    0.458315   5.115214   0.012500   0.000318  -0.000395   0.000318
     9  H   -0.002487   0.012500   0.499968  -0.000024  -0.002970  -0.000024
    10  H    0.000258   0.000318  -0.000024   0.518661  -0.024342  -0.024808
    11  H   -0.000093  -0.000395  -0.002970  -0.024342   0.542527  -0.024342
    12  H    0.000258   0.000318  -0.000024  -0.024808  -0.024342   0.518656
    13  H    0.435305  -0.074126   0.000121  -0.000044   0.000001  -0.000044
    14  H   -0.028954   0.408640   0.000232  -0.000006  -0.000011  -0.000006
              13         14
     1  Br  -0.000436  -0.006752
     2  C    0.003123  -0.053962
     3  C   -0.001478   0.015740
     4  C    0.007924  -0.003381
     5  C   -0.000279   0.000106
     6  N   -0.033131   0.006357
     7  C    0.435305  -0.028954
     8  C   -0.074126   0.408640
     9  H    0.000121   0.000232
    10  H   -0.000044  -0.000006
    11  H    0.000001  -0.000011
    12  H   -0.000044  -0.000006
    13  H    0.516019  -0.000141
    14  H   -0.000141   0.498819
 Mulliken charges:
               1
     1  Br  -0.085817
     2  C    0.054703
     3  C   -0.199512
     4  C    0.196395
     5  C   -0.440919
     6  N   -0.241978
     7  C   -0.065159
     8  C   -0.147315
     9  H    0.167583
    10  H    0.158310
    11  H    0.134894
    12  H    0.158311
    13  H    0.147184
    14  H    0.163319
 Sum of Mulliken charges =   0.00000
 Mulliken charges with hydrogens summed into heavy atoms:
               1
     1  Br  -0.085817
     2  C    0.054703
     3  C   -0.031930
     4  C    0.196395
     5  C    0.010596
     6  N   -0.241978
     7  C    0.082026
     8  C    0.016005
 Electronic spatial extent (au):  <R**2>=           1655.0446
 Charge=              0.0000 electrons
 Dipole moment (field-independent basis, Debye):
    X=             -0.0344    Y=             -0.4166    Z=              0.0000  Tot=              0.4180
 Quadrupole moment (field-independent basis, Debye-Ang):
   XX=            -63.1443   YY=            -53.3259   ZZ=            -61.8118
   XY=             -4.1013   XZ=              0.0000   YZ=              0.0000
 Traceless Quadrupole moment (field-independent basis, Debye-Ang):
   XX=             -3.7170   YY=              6.1015   ZZ=             -2.3845
   XY=             -4.1013   XZ=              0.0000   YZ=              0.0000
 Octapole moment (field-independent basis, Debye-Ang**2):
  XXX=            -81.6411  YYY=              1.9022  ZZZ=              0.0002  XYY=            -16.8047
  XXY=            -17.9798  XXZ=              0.0001  XZZ=            -20.9639  YZZ=             -4.1487
  YYZ=             -0.0000  XYZ=             -0.0001
 Hexadecapole moment (field-independent basis, Debye-Ang**3):
 XXXX=          -1472.6087 YYYY=           -426.8744 ZZZZ=            -76.9110 XXXY=            -26.3498
 XXXZ=             -0.0007 YYYX=             26.6907 YYYZ=              0.0006 ZZZX=              0.0007
 ZZZY=             -0.0004 XXYY=           -316.4714 XXZZ=           -254.3238 YYZZ=            -98.7627
 XXYZ=             -0.0006 YYXZ=              0.0001 ZZXY=              3.0528
 N-N= 5.257108657797D+02 E-N=-7.870054789850D+03  KE= 2.856277145944D+03
 Unable to Open any file for archive entry.
 1\1\GINC-COMPUTE-0-28\SP\RM062X\def2TZVP\C6H6Br1N1\ZTAN64\14-Aug-2024\
 0\\# M062X/def2tzvp int=(grid=ultrafine) nmr=giao guess=read geom=chec
 k\\pyrd3.xyz\\0,1\Br,0,-2.5297210832,2.4372202848,-0.1028568901\C,0,-1
 .4125372569,0.8935264216,-0.053951225\C,0,-0.0311457995,1.0410889503,-
 0.0087968822\C,0,0.75826653,-0.1153686985,0.0262462689\C,0,2.260770721
 5,-0.0313314239,0.0759189313\N,0,0.2278404483,-1.3500412816,0.01767838
 61\C,0,-1.1023040983,-1.459014652,-0.0260492081\C,0,-1.9801634427,-0.3
 748970991,-0.0635156596\H,0,0.4222200074,2.0248168769,-0.0009410933\H,
 0,2.6948151943,-0.5470036488,-0.7861798384\H,0,2.6100171263,1.00360882
 28,0.0799853681\H,0,2.6359418922,-0.5340533328,0.9726035977\H,0,-1.501
 0361818,-2.4716918923,-0.0318606801\H,0,-3.0529640575,-0.5169593276,-0
 .0983810755\\Version=ES64L-G16RevC.01\State=1-A\HF=-2861.1763631\RMSD=
 1.924e-09\Dipole=0.0956258,0.1337961,0.0021994\Quadrupole=3.2915719,-1
 .5223984,-1.7691735,4.0985304,0.1390292,0.135378\PG=C01 [X(C6H6Br1N1)]
 \\@
 The archive entry for this job was punched.


 ONE OF THE BENEFITS OF A COLLEGE EDUCATION
 IS TO SHOW THE BOY ITS LITTLE AVAIL 
                                    EMERSON IN 'CULTURE'
 Job cpu time:       0 days  0 hours 11 minutes  9.4 seconds.
 Elapsed time:       0 days  0 hours  0 minutes 45.1 seconds.
 File lengths (MBytes):  RWF=     56 Int=      0 D2E=      0 Chk=      9 Scr=      1
 Normal termination of Gaussian 16 at Wed Aug 14 18:58:47 2024.
 
 
-----Kestrel cluster job statistics-----
Time info:

real	4m2.539s
user	62m51.728s
sys	0m9.986s
 
Disk space usage:
9.0M	/scratch/362963.kestrel.chem.wisc.edu
