 Entering Gaussian System, Link 0=/share/apps/gaussian/g16/g16
 Initial command:
 /share/apps/gaussian/g16/l1.exe "/scratch/362993.kestrel.chem.wisc.edu/Gau-17918.inp" -scrdir="/scratch/362993.kestrel.chem.wisc.edu/"
 Entering Link 1 = /share/apps/gaussian/g16/l1.exe PID=     17919.
  
 Copyright (c) 1988-2019, Gaussian, Inc.  All Rights Reserved.
  
 This is part of the Gaussian(R) 16 program.  It is based on
 the Gaussian(R) 09 system (copyright 2009, Gaussian, Inc.),
 the Gaussian(R) 03 system (copyright 2003, Gaussian, Inc.),
 the Gaussian(R) 98 system (copyright 1998, Gaussian, Inc.),
 the Gaussian(R) 94 system (copyright 1995, Gaussian, Inc.),
 the Gaussian 92(TM) system (copyright 1992, Gaussian, Inc.),
 the Gaussian 90(TM) system (copyright 1990, Gaussian, Inc.),
 the Gaussian 88(TM) system (copyright 1988, Gaussian, Inc.),
 the Gaussian 86(TM) system (copyright 1986, Carnegie Mellon
 University), and the Gaussian 82(TM) system (copyright 1983,
 Carnegie Mellon University). Gaussian is a federally registered
 trademark of Gaussian, Inc.
  
 This software contains proprietary and confidential information,
 including trade secrets, belonging to Gaussian, Inc.
  
 This software is provided under written license and may be
 used, copied, transmitted, or stored only in accord with that
 written license.
  
 The following legend is applicable only to US Government
 contracts under FAR:
  
                    RESTRICTED RIGHTS LEGEND
  
 Use, reproduction and disclosure by the US Government is
 subject to restrictions as set forth in subparagraphs (a)
 and (c) of the Commercial Computer Software - Restricted
 Rights clause in FAR 52.227-19.
  
 Gaussian, Inc.
 340 Quinnipiac St., Bldg. 40, Wallingford CT 06492
  
  
 ---------------------------------------------------------------
 Warning -- This program may not be used in any manner that
 competes with the business of Gaussian, Inc. or will provide
 assistance to any competitor of Gaussian, Inc.  The licensee
 of this program is prohibited from giving any competitor of
 Gaussian, Inc. access to this program.  By using this program,
 the user acknowledges that Gaussian, Inc. is engaged in the
 business of creating and licensing software in the field of
 computational chemistry and represents and warrants to the
 licensee that it is not a competitor of Gaussian, Inc. and that
 it will not use this program in any manner prohibited above.
 ---------------------------------------------------------------
  

 Cite this work as:
 Gaussian 16, Revision C.01,
 M. J. Frisch, G. W. Trucks, H. B. Schlegel, G. E. Scuseria, 
 M. A. Robb, J. R. Cheeseman, G. Scalmani, V. Barone, 
 G. A. Petersson, H. Nakatsuji, X. Li, M. Caricato, A. V. Marenich, 
 J. Bloino, B. G. Janesko, R. Gomperts, B. Mennucci, H. P. Hratchian, 
 J. V. Ortiz, A. F. Izmaylov, J. L. Sonnenberg, D. Williams-Young, 
 F. Ding, F. Lipparini, F. Egidi, J. Goings, B. Peng, A. Petrone, 
 T. Henderson, D. Ranasinghe, V. G. Zakrzewski, J. Gao, N. Rega, 
 G. Zheng, W. Liang, M. Hada, M. Ehara, K. Toyota, R. Fukuda, 
 J. Hasegawa, M. Ishida, T. Nakajima, Y. Honda, O. Kitao, H. Nakai, 
 T. Vreven, K. Throssell, J. A. Montgomery, Jr., J. E. Peralta, 
 F. Ogliaro, M. J. Bearpark, J. J. Heyd, E. N. Brothers, K. N. Kudin, 
 V. N. Staroverov, T. A. Keith, R. Kobayashi, J. Normand, 
 K. Raghavachari, A. P. Rendell, J. C. Burant, S. S. Iyengar, 
 J. Tomasi, M. Cossi, J. M. Millam, M. Klene, C. Adamo, R. Cammi, 
 J. W. Ochterski, R. L. Martin, K. Morokuma, O. Farkas, 
 J. B. Foresman, and D. J. Fox, Gaussian, Inc., Wallingford CT, 2019.
 
 ******************************************
 Gaussian 16:  ES64L-G16RevC.01  3-Jul-2019
                14-Aug-2024 
 ******************************************
 %nprocs=16
 Will use up to   16 processors via shared memory.
 %mem=16GB
 %chk=pyrmd4_conf-1.chk
 ----------------------------------------------------------------------
 # B3LYP/6-31G(d,p) symmetry=loose empiricaldispersion=GD3BJ int=(grid=
 ultrafine) opt freq=noraman
 ----------------------------------------------------------------------
 1/18=20,19=15,26=4,38=1/1,3;
 2/9=110,12=2,17=4,18=3,40=1/2;
 3/5=1,6=6,7=101,11=2,25=1,30=1,71=1,74=-5,75=-5,124=41/1,2,3;
 4//1;
 5/5=2,38=5/2;
 6/7=2,8=2,9=2,10=2,28=1/1;
 7//1,2,3,16;
 1/18=20,19=15,26=4/3(2);
 2/9=110/2;
 99//99;
 2/9=110/2;
 3/5=1,6=6,7=101,11=2,25=1,30=1,71=1,74=-5,75=-5,124=41/1,2,3;
 4/5=5,16=3,69=1/1;
 5/5=2,38=5/2;
 7//1,2,3,16;
 1/18=20,19=15,26=4/3(-5);
 2/9=110/2;
 6/7=2,8=2,9=2,10=2,19=2,28=1/1;
 99/9=1/99;
 ----------
 pyrmd4.xyz
 ----------
 Symbolic Z-matrix:
 Charge =  0 Multiplicity = 1
 Cl                    0.6156   -1.7012   -3.0486 
 C                     0.4541   -0.6912   -1.6603 
 N                     1.0668    0.5226   -1.6593 
 C                     0.9045    1.2741   -0.5393 
 C                     1.5539    2.576    -0.5222 
 N                     2.0706    3.6126   -0.508 
 N                     0.1952    0.9293    0.5668 
 C                    -0.4033   -0.2904    0.5305 
 C                    -1.1942   -0.6747    1.7639 
 C                    -0.3004   -1.1437   -0.5732 
 H                    -0.5458   -0.6854    2.6408 
 H                    -1.6452   -1.6622    1.6649 
 H                    -1.9934    0.0459    1.9404 
 H                    -0.7781   -2.1117   -0.5964 
 

 GradGradGradGradGradGradGradGradGradGradGradGradGradGradGradGradGradGrad
 Berny optimization.
 Initialization pass.
                           ----------------------------
                           !    Initial Parameters    !
                           ! (Angstroms and Degrees)  !
 --------------------------                            --------------------------
 ! Name  Definition              Value          Derivative Info.                !
 --------------------------------------------------------------------------------
 ! R1    R(1,2)                  1.7244         estimate D2E/DX2                !
 ! R2    R(2,3)                  1.3597         estimate D2E/DX2                !
 ! R3    R(2,10)                 1.3985         estimate D2E/DX2                !
 ! R4    R(3,4)                  1.3585         estimate D2E/DX2                !
 ! R5    R(4,5)                  1.455          estimate D2E/DX2                !
 ! R6    R(4,7)                  1.3585         estimate D2E/DX2                !
 ! R7    R(5,6)                  1.1583         estimate D2E/DX2                !
 ! R8    R(7,8)                  1.3591         estimate D2E/DX2                !
 ! R9    R(8,9)                  1.5148         estimate D2E/DX2                !
 ! R10   R(8,10)                 1.3989         estimate D2E/DX2                !
 ! R11   R(9,11)                 1.0906         estimate D2E/DX2                !
 ! R12   R(9,12)                 1.0901         estimate D2E/DX2                !
 ! R13   R(9,13)                 1.0905         estimate D2E/DX2                !
 ! R14   R(10,14)                1.0797         estimate D2E/DX2                !
 ! A1    A(1,2,3)              118.7678         estimate D2E/DX2                !
 ! A2    A(1,2,10)             119.1329         estimate D2E/DX2                !
 ! A3    A(3,2,10)             122.0993         estimate D2E/DX2                !
 ! A4    A(2,3,4)              116.1427         estimate D2E/DX2                !
 ! A5    A(3,4,5)              116.8306         estimate D2E/DX2                !
 ! A6    A(3,4,7)              126.3883         estimate D2E/DX2                !
 ! A7    A(5,4,7)              116.7811         estimate D2E/DX2                !
 ! A8    A(4,7,8)              115.8463         estimate D2E/DX2                !
 ! A9    A(7,8,9)              115.8399         estimate D2E/DX2                !
 ! A10   A(7,8,10)             122.4184         estimate D2E/DX2                !
 ! A11   A(9,8,10)             121.7417         estimate D2E/DX2                !
 ! A12   A(8,9,11)             110.2891         estimate D2E/DX2                !
 ! A13   A(8,9,12)             111.8321         estimate D2E/DX2                !
 ! A14   A(8,9,13)             110.2921         estimate D2E/DX2                !
 ! A15   A(11,9,12)            108.0647         estimate D2E/DX2                !
 ! A16   A(11,9,13)            108.1835         estimate D2E/DX2                !
 ! A17   A(12,9,13)            108.0651         estimate D2E/DX2                !
 ! A18   A(2,10,8)             117.105          estimate D2E/DX2                !
 ! A19   A(2,10,14)            120.8024         estimate D2E/DX2                !
 ! A20   A(8,10,14)            122.0926         estimate D2E/DX2                !
 ! A21   L(4,5,6,11,-1)        179.9691         estimate D2E/DX2                !
 ! A22   L(4,5,6,11,-2)        180.019          estimate D2E/DX2                !
 ! D1    D(1,2,3,4)            179.9989         estimate D2E/DX2                !
 ! D2    D(10,2,3,4)            -0.0045         estimate D2E/DX2                !
 ! D3    D(1,2,10,8)           179.9977         estimate D2E/DX2                !
 ! D4    D(1,2,10,14)            0.001          estimate D2E/DX2                !
 ! D5    D(3,2,10,8)             0.0011         estimate D2E/DX2                !
 ! D6    D(3,2,10,14)         -179.9956         estimate D2E/DX2                !
 ! D7    D(2,3,4,5)           -179.9994         estimate D2E/DX2                !
 ! D8    D(2,3,4,7)              0.0043         estimate D2E/DX2                !
 ! D9    D(3,4,7,8)             -0.0004         estimate D2E/DX2                !
 ! D10   D(5,4,7,8)           -179.9967         estimate D2E/DX2                !
 ! D11   D(4,7,8,9)           -179.9979         estimate D2E/DX2                !
 ! D12   D(4,7,8,10)            -0.0034         estimate D2E/DX2                !
 ! D13   D(7,8,9,11)           -59.7237         estimate D2E/DX2                !
 ! D14   D(7,8,9,12)           179.9944         estimate D2E/DX2                !
 ! D15   D(7,8,9,13)            59.71           estimate D2E/DX2                !
 ! D16   D(10,8,9,11)          120.2818         estimate D2E/DX2                !
 ! D17   D(10,8,9,12)           -0.0002         estimate D2E/DX2                !
 ! D18   D(10,8,9,13)         -120.2845         estimate D2E/DX2                !
 ! D19   D(7,8,10,2)             0.0031         estimate D2E/DX2                !
 ! D20   D(7,8,10,14)          179.9997         estimate D2E/DX2                !
 ! D21   D(9,8,10,2)           179.9973         estimate D2E/DX2                !
 ! D22   D(9,8,10,14)           -0.0061         estimate D2E/DX2                !
 --------------------------------------------------------------------------------
 Trust Radius=3.00D-01 FncErr=1.00D-07 GrdErr=1.00D-06 EigMax=2.50D+02 EigMin=1.00D-04
 Number of steps in this run=     68 maximum allowed number of steps=    100.
 GradGradGradGradGradGradGradGradGradGradGradGradGradGradGradGradGradGrad

                          Input orientation:                          
 ---------------------------------------------------------------------
 Center     Atomic      Atomic             Coordinates (Angstroms)
 Number     Number       Type             X           Y           Z
 ---------------------------------------------------------------------
      1         17           0        0.615600   -1.701200   -3.048600
      2          6           0        0.454100   -0.691200   -1.660300
      3          7           0        1.066800    0.522600   -1.659300
      4          6           0        0.904500    1.274100   -0.539300
      5          6           0        1.553900    2.576000   -0.522200
      6          7           0        2.070600    3.612600   -0.508000
      7          7           0        0.195200    0.929300    0.566800
      8          6           0       -0.403300   -0.290400    0.530500
      9          6           0       -1.194200   -0.674700    1.763900
     10          6           0       -0.300400   -1.143700   -0.573200
     11          1           0       -0.545800   -0.685400    2.640800
     12          1           0       -1.645200   -1.662200    1.664900
     13          1           0       -1.993400    0.045900    1.940400
     14          1           0       -0.778100   -2.111700   -0.596400
 ---------------------------------------------------------------------
                    Distance matrix (angstroms):
                    1          2          3          4          5
     1  Cl   0.000000
     2  C    1.724401   0.000000
     3  N    2.660643   1.359674   0.000000
     4  C    3.902878   2.306925   1.358489   0.000000
     5  C    5.055447   3.630348   2.397231   1.454976   0.000000
     6  N    6.066972   4.739574   3.446913   2.613303   1.158326
     7  N    4.490811   2.766410   2.424997   1.358474   2.396582
     8  C    3.979758   2.386500   2.759961   2.302710   3.626990
     9  C    5.243018   3.800304   4.273634   3.675200   4.831703
    10  C    2.697678   1.398504   2.413588   2.701609   4.156585
    11  H    5.894911   4.415801   4.748747   4.007000   5.005001
    12  H    5.227793   4.050538   4.814416   4.470048   5.742820
    13  H    5.894859   4.415723   4.748674   4.006896   5.004912
    14  H    2.850297   2.160560   3.387174   3.781276   5.236245
                    6          7          8          9         10
     6  N    0.000000
     7  N    3.445638   0.000000
     8  C    4.736251   1.359113   0.000000
     9  C    5.848195   2.436452   1.514756   0.000000
    10  C    5.314911   2.417136   1.398879   2.545756   0.000000
    11  H    5.935764   2.730900   2.151673   1.090638   3.255773
    12  H    6.808243   3.362851   2.170487   1.090118   2.662033
    13  H    5.935664   2.730777   2.151589   1.090476   3.255700
    14  H    6.394569   3.398239   2.174284   2.794481   1.079703
                   11         12         13         14
    11  H    0.000000
    12  H    1.764993   0.000000
    13  H    1.766609   1.764865   0.000000
    14  H    3.545103   2.463207   3.545073   0.000000
 Stoichiometry    C6H4ClN3
 Framework group  C1[X(C6H4ClN3)]
 Deg. of freedom    36
 Full point group                 C1      NOp   1
 Largest Abelian subgroup         C1      NOp   1
 Largest concise Abelian subgroup C1      NOp   1
                         Standard orientation:                         
 ---------------------------------------------------------------------
 Center     Atomic      Atomic             Coordinates (Angstroms)
 Number     Number       Type             X           Y           Z
 ---------------------------------------------------------------------
      1         17           0       -2.643698   -1.145274   -0.000001
      2          6           0       -1.107104   -0.362688   -0.000018
      3          7           0        0.016888   -1.127772    0.000027
      4          6           0        1.197915   -0.456453   -0.000013
      5          6           0        2.410432   -1.260665    0.000022
      6          7           0        3.376103   -1.900353   -0.000018
      7          7           0        1.358140    0.892539   -0.000012
      8          6           0        0.213404    1.625184    0.000026
      9          6           0        0.392228    3.129347   -0.000021
     10          6           0       -1.054804    1.034837   -0.000009
     11          1           0        0.949064    3.444026    0.883383
     12          1           0       -0.564768    3.651378   -0.000086
     13          1           0        0.949098    3.443962   -0.883226
     14          1           0       -1.960878    1.622026    0.000026
 ---------------------------------------------------------------------
 Rotational constants (GHZ):           1.4396870           0.9109063           0.5598542
 Standard basis: 6-31G(d,p) (6D, 7F)
 There are   174 symmetry adapted cartesian basis functions of A   symmetry.
 There are   174 symmetry adapted basis functions of A   symmetry.
   174 basis functions,   332 primitive gaussians,   174 cartesian basis functions
    39 alpha electrons       39 beta electrons
       nuclear repulsion energy       523.6241583777 Hartrees.
 NAtoms=   14 NActive=   14 NUniq=   14 SFac= 1.00D+00 NAtFMM=   60 NAOKFM=F Big=F
 Integral buffers will be    131072 words long.
 Raffenetti 2 integral format.
 Two-electron integral symmetry is turned on.
 Nuclear repulsion after empirical dispersion term =      523.5962907127 Hartrees.
 One-electron integrals computed using PRISM.
 NBasis=   174 RedAO= T EigKep=  8.84D-04  NBF=   174
 NBsUse=   174 1.00D-06 EigRej= -1.00D+00 NBFU=   174
 ExpMin= 1.43D-01 ExpMax= 2.52D+04 ExpMxC= 3.78D+03 IAcc=3 IRadAn=         5 AccDes= 0.00D+00
 Harris functional with IExCor=  402 and IRadAn=       5 diagonalized for initial guess.
 HarFok:  IExCor=  402 AccDes= 0.00D+00 IRadAn=         5 IDoV= 1 UseB2=F ITyADJ=14
 ICtDFT=  3500011 ScaDFX=  1.000000  1.000000  1.000000  1.000000
 FoFCou: FMM=F IPFlag=           0 FMFlag=      100000 FMFlg1=           0
         NFxFlg=           0 DoJE=T BraDBF=F KetDBF=T FulRan=T
         wScrn=  0.000000 ICntrl=       500 IOpCl=  0 I1Cent=   200000004 NGrid=           0
         NMat0=    1 NMatS0=      1 NMatT0=    0 NMatD0=    1 NMtDS0=    0 NMtDT0=    0
 Petite list used in FoFCou.
 Requested convergence on RMS density matrix=1.00D-08 within 128 cycles.
 Requested convergence on MAX density matrix=1.00D-06.
 Requested convergence on             energy=1.00D-06.
 No special actions if energy rises.
 Integral accuracy reduced to 1.0D-05 until final iterations.
 Initial convergence to 1.0D-05 achieved.  Increase integral accuracy.
 SCF Done:  E(RB3LYP) =  -855.507733371     A.U. after   16 cycles
            NFock= 16  Conv=0.33D-08     -V/T= 2.0063

 **********************************************************************

            Population analysis using the SCF Density.

 **********************************************************************

 Orbital symmetries:
       Occupied  (A) (A) (A) (A) (A) (A) (A) (A) (A) (A) (A) (A)
                 (A) (A) (A) (A) (A) (A) (A) (A) (A) (A) (A) (A)
                 (A) (A) (A) (A) (A) (A) (A) (A) (A) (A) (A) (A)
                 (A) (A) (A)
       Virtual   (A) (A) (A) (A) (A) (A) (A) (A) (A) (A) (A) (A)
                 (A) (A) (A) (A) (A) (A) (A) (A) (A) (A) (A) (A)
                 (A) (A) (A) (A) (A) (A) (A) (A) (A) (A) (A) (A)
                 (A) (A) (A) (A) (A) (A) (A) (A) (A) (A) (A) (A)
                 (A) (A) (A) (A) (A) (A) (A) (A) (A) (A) (A) (A)
                 (A) (A) (A) (A) (A) (A) (A) (A) (A) (A) (A) (A)
                 (A) (A) (A) (A) (A) (A) (A) (A) (A) (A) (A) (A)
                 (A) (A) (A) (A) (A) (A) (A) (A) (A) (A) (A) (A)
                 (A) (A) (A) (A) (A) (A) (A) (A) (A) (A) (A) (A)
                 (A) (A) (A) (A) (A) (A) (A) (A) (A) (A) (A) (A)
                 (A) (A) (A) (A) (A) (A) (A) (A) (A) (A) (A) (A)
                 (A) (A) (A)
 The electronic state is 1-A.
 Alpha  occ. eigenvalues -- -101.58221 -14.38427 -14.37693 -14.35580 -10.32973
 Alpha  occ. eigenvalues --  -10.32605 -10.28643 -10.24583 -10.24517 -10.21569
 Alpha  occ. eigenvalues --   -9.49915  -7.26319  -7.25358  -7.25263  -1.02281
 Alpha  occ. eigenvalues --   -0.93870  -0.91956  -0.88704  -0.82592  -0.75423
 Alpha  occ. eigenvalues --   -0.72008  -0.64631  -0.57476  -0.56387  -0.51906
 Alpha  occ. eigenvalues --   -0.47978  -0.47100  -0.44162  -0.43405  -0.41895
 Alpha  occ. eigenvalues --   -0.39828  -0.37793  -0.35476  -0.35193  -0.34504
 Alpha  occ. eigenvalues --   -0.34452  -0.32137  -0.29913  -0.29104
 Alpha virt. eigenvalues --   -0.08808  -0.07449   0.00657   0.02806   0.04689
 Alpha virt. eigenvalues --    0.08842   0.11560   0.12163   0.14490   0.16345
 Alpha virt. eigenvalues --    0.16411   0.19481   0.21427   0.24021   0.27312
 Alpha virt. eigenvalues --    0.30011   0.32999   0.37111   0.38441   0.41378
 Alpha virt. eigenvalues --    0.41959   0.43553   0.47088   0.47992   0.50795
 Alpha virt. eigenvalues --    0.51945   0.52216   0.53799   0.54063   0.58347
 Alpha virt. eigenvalues --    0.58727   0.60888   0.61433   0.63043   0.63557
 Alpha virt. eigenvalues --    0.66105   0.66293   0.69091   0.72583   0.74439
 Alpha virt. eigenvalues --    0.75694   0.77745   0.79182   0.80307   0.82091
 Alpha virt. eigenvalues --    0.82420   0.83140   0.84064   0.86581   0.86771
 Alpha virt. eigenvalues --    0.89294   0.89741   0.91571   0.92019   0.96023
 Alpha virt. eigenvalues --    0.97585   1.03541   1.06961   1.07502   1.12991
 Alpha virt. eigenvalues --    1.19092   1.19645   1.25270   1.25425   1.30682
 Alpha virt. eigenvalues --    1.31569   1.38735   1.38973   1.43846   1.47284
 Alpha virt. eigenvalues --    1.50778   1.51909   1.52187   1.54017   1.56519
 Alpha virt. eigenvalues --    1.60034   1.69856   1.69898   1.70050   1.77912
 Alpha virt. eigenvalues --    1.79053   1.79262   1.83421   1.85573   1.94584
 Alpha virt. eigenvalues --    1.96039   1.97586   1.97833   2.00405   2.01492
 Alpha virt. eigenvalues --    2.03347   2.04378   2.09144   2.11614   2.13869
 Alpha virt. eigenvalues --    2.16658   2.20253   2.20400   2.28664   2.29114
 Alpha virt. eigenvalues --    2.33004   2.40499   2.42500   2.49204   2.49780
 Alpha virt. eigenvalues --    2.54395   2.55862   2.63537   2.64222   2.65272
 Alpha virt. eigenvalues --    2.71696   2.76980   2.77078   2.78698   2.82607
 Alpha virt. eigenvalues --    2.84246   2.88054   3.02658   3.07500   3.17722
 Alpha virt. eigenvalues --    3.21409   3.32871   3.40111   3.43074   3.54857
 Alpha virt. eigenvalues --    3.96697   4.05421   4.06590   4.10330   4.17579
 Alpha virt. eigenvalues --    4.24219   4.30237   4.42271   4.57000   4.64410
          Condensed to atoms (all electrons):
               1          2          3          4          5          6
     1  Cl  16.800658   0.280205  -0.069459   0.004554  -0.000115   0.000001
     2  C    0.280205   4.889910   0.404304  -0.045550   0.005069  -0.000053
     3  N   -0.069459   0.404304   6.879982   0.434234  -0.096407  -0.002953
     4  C    0.004554  -0.045550   0.434234   4.724181   0.198856  -0.099041
     5  C   -0.000115   0.005069  -0.096407   0.198856   4.767379   0.863162
     6  N    0.000001  -0.000053  -0.002953  -0.099041   0.863162   6.705070
     7  N   -0.000150  -0.034623  -0.060902   0.428774  -0.093218  -0.002993
     8  C    0.004125  -0.033770  -0.033741  -0.037727   0.004900  -0.000040
     9  C   -0.000158   0.005749   0.000119   0.005200  -0.000370  -0.000000
    10  C   -0.082234   0.452567  -0.038177  -0.034796   0.001279   0.000005
    11  H    0.000004  -0.000214   0.000021   0.000114   0.000009  -0.000000
    12  H   -0.000004   0.000370   0.000014  -0.000207   0.000003  -0.000000
    13  H    0.000004  -0.000214   0.000021   0.000114   0.000009  -0.000000
    14  H    0.000167  -0.037476   0.003844   0.000619   0.000033   0.000000
               7          8          9         10         11         12
     1  Cl  -0.000150   0.004125  -0.000158  -0.082234   0.000004  -0.000004
     2  C   -0.034623  -0.033770   0.005749   0.452567  -0.000214   0.000370
     3  N   -0.060902  -0.033741   0.000119  -0.038177   0.000021   0.000014
     4  C    0.428774  -0.037727   0.005200  -0.034796   0.000114  -0.000207
     5  C   -0.093218   0.004900  -0.000370   0.001279   0.000009   0.000003
     6  N   -0.002993  -0.000040  -0.000000   0.000005  -0.000000  -0.000000
     7  N    6.917616   0.412121  -0.077227  -0.037937  -0.001041   0.003917
     8  C    0.412121   4.634130   0.379754   0.482184  -0.022346  -0.030741
     9  C   -0.077227   0.379754   5.007426  -0.072282   0.374756   0.372400
    10  C   -0.037937   0.482184  -0.072282   5.050639   0.001869   0.000568
    11  H   -0.001041  -0.022346   0.374756   0.001869   0.542705  -0.027493
    12  H    0.003917  -0.030741   0.372400   0.000568  -0.027493   0.586692
    13  H   -0.001041  -0.022345   0.374780   0.001870  -0.022401  -0.027499
    14  H    0.003998  -0.030031  -0.005455   0.365693   0.000083   0.003083
              13         14
     1  Cl   0.000004   0.000167
     2  C   -0.000214  -0.037476
     3  N    0.000021   0.003844
     4  C    0.000114   0.000619
     5  C    0.000009   0.000033
     6  N   -0.000000   0.000000
     7  N   -0.001041   0.003998
     8  C   -0.022345  -0.030031
     9  C    0.374780  -0.005455
    10  C    0.001870   0.365693
    11  H   -0.022401   0.000083
    12  H   -0.027499   0.003083
    13  H    0.542659   0.000083
    14  H    0.000083   0.564602
 Mulliken charges:
               1
     1  Cl   0.062402
     2  C    0.113724
     3  N   -0.420901
     4  C    0.420676
     5  C    0.349412
     6  N   -0.463157
     7  N   -0.457294
     8  C    0.293526
     9  C   -0.364691
    10  C   -0.091249
    11  H    0.153935
    12  H    0.118898
    13  H    0.153961
    14  H    0.130758
 Sum of Mulliken charges =  -0.00000
 Mulliken charges with hydrogens summed into heavy atoms:
               1
     1  Cl   0.062402
     2  C    0.113724
     3  N   -0.420901
     4  C    0.420676
     5  C    0.349412
     6  N   -0.463157
     7  N   -0.457294
     8  C    0.293526
     9  C    0.062103
    10  C    0.039509
 Electronic spatial extent (au):  <R**2>=           1833.5772
 Charge=             -0.0000 electrons
 Dipole moment (field-independent basis, Debye):
    X=             -3.7215    Y=              4.6284    Z=             -0.0000  Tot=              5.9390
 Quadrupole moment (field-independent basis, Debye-Ang):
   XX=            -74.6432   YY=            -61.9963   ZZ=            -62.0590
   XY=              4.3876   XZ=              0.0001   YZ=             -0.0000
 Traceless Quadrupole moment (field-independent basis, Debye-Ang):
   XX=             -8.4104   YY=              4.2365   ZZ=              4.1739
   XY=              4.3876   XZ=              0.0001   YZ=             -0.0000
 Octapole moment (field-independent basis, Debye-Ang**2):
  XXX=            -70.5002  YYY=             33.5387  ZZZ=             -0.0001  XYY=            -20.8434
  XXY=             24.2170  XXZ=              0.0006  XZZ=             -1.0041  YZZ=             -0.4574
  YYZ=             -0.0004  XYZ=             -0.0001
 Hexadecapole moment (field-independent basis, Debye-Ang**3):
 XXXX=          -1522.7253 YYYY=           -950.8983 ZZZZ=            -66.8085 XXXY=            123.7249
 XXXZ=              0.0005 YYYX=             58.4306 YYYZ=             -0.0029 ZZZX=             -0.0002
 ZZZY=             -0.0001 XXYY=           -439.3082 XXZZ=           -236.5843 YYZZ=           -171.7237
 XXYZ=             -0.0012 YYXZ=              0.0008 ZZXY=              7.2881
 N-N= 5.235962907127D+02 E-N=-3.057781281873D+03  KE= 8.501428698628D+02
 Calling FoFJK, ICntrl=      2127 FMM=F ISym2X=0 I1Cent= 0 IOpClX= 0 NMat=1 NMatS=1 NMatT=0.
 ***** Axes restored to original set *****
 -------------------------------------------------------------------
 Center     Atomic                   Forces (Hartrees/Bohr)
 Number     Number              X              Y              Z
 -------------------------------------------------------------------
      1       17           0.002843036   -0.000041256   -0.005921919
      2        6           0.007424763    0.032091052    0.018177507
      3        7          -0.009484402   -0.013313900    0.005682909
      4        6          -0.012073719   -0.022075364    0.001932224
      5        6          -0.006100155   -0.013202536   -0.001190673
      6        7           0.002431750    0.005059208    0.000261220
      7        7           0.006327092   -0.004603260   -0.017880185
      8        6           0.000992226    0.009686915    0.008028490
      9        6           0.002547821   -0.001887281   -0.007016802
     10        6           0.004869080    0.006436266   -0.003332848
     11        1           0.001490361    0.002123965    0.001285113
     12        1           0.000000640   -0.001599214   -0.001665645
     13        1           0.000021354    0.002901569    0.000625201
     14        1          -0.001289848   -0.001576164    0.001015407
 -------------------------------------------------------------------
 Cartesian Forces:  Max     0.032091052 RMS     0.008921386

 GradGradGradGradGradGradGradGradGradGradGradGradGradGradGradGradGradGrad
 Berny optimization.
 FormGI is forming the generalized inverse of G from B-inverse, IUseBI=4.
 Internal  Forces:  Max     0.034102775 RMS     0.007309268
 Search for a local minimum.
 Step number   1 out of a maximum of   68
 All quantities printed in internal units (Hartrees-Bohrs-Radians)
 Mixed Optimization -- RFO/linear search
 Second derivative matrix not updated -- first step.
 ITU=  0
     Eigenvalues ---    0.00571   0.01441   0.02106   0.02124   0.02148
     Eigenvalues ---    0.02198   0.02238   0.02241   0.04889   0.04889
     Eigenvalues ---    0.07070   0.07254   0.16000   0.16000   0.16000
     Eigenvalues ---    0.16000   0.23539   0.25000   0.25000   0.25000
     Eigenvalues ---    0.25000   0.25000   0.30877   0.33107   0.34739
     Eigenvalues ---    0.34758   0.34799   0.36030   0.37600   0.43282
     Eigenvalues ---    0.44893   0.50142   0.51229   0.53068   0.53229
     Eigenvalues ---    1.28895
 RFO step:  Lambda=-6.93534362D-03 EMin= 5.70757775D-03
 Linear search not attempted -- first point.
 Iteration  1 RMS(Cart)=  0.03128779 RMS(Int)=  0.00024110
 Iteration  2 RMS(Cart)=  0.00029717 RMS(Int)=  0.00004918
 Iteration  3 RMS(Cart)=  0.00000006 RMS(Int)=  0.00004918
 Variable       Old X    -DE/DX   Delta X   Delta X   Delta X     New X
                                 (Linear)    (Quad)   (Total)
    R1        3.25865   0.00506   0.00000   0.01496   0.01496   3.27361
    R2        2.56941  -0.03410   0.00000  -0.06433  -0.06433   2.50508
    R3        2.64279  -0.00493   0.00000  -0.00927  -0.00933   2.63346
    R4        2.56717  -0.02070   0.00000  -0.04040  -0.04033   2.52684
    R5        2.74951  -0.00893   0.00000  -0.02333  -0.02333   2.72617
    R6        2.56714  -0.02107   0.00000  -0.04032  -0.04025   2.52689
    R7        2.18892   0.00562   0.00000   0.00433   0.00433   2.19325
    R8        2.56835  -0.01750   0.00000  -0.03164  -0.03164   2.53671
    R9        2.86247  -0.00802   0.00000  -0.02542  -0.02542   2.83706
   R10        2.64350  -0.00497   0.00000  -0.00835  -0.00841   2.63509
   R11        2.06101   0.00190   0.00000   0.00536   0.00536   2.06636
   R12        2.06003   0.00160   0.00000   0.00451   0.00451   2.06453
   R13        2.06070   0.00200   0.00000   0.00565   0.00565   2.06635
   R14        2.04034   0.00196   0.00000   0.00534   0.00534   2.04569
    A1        2.07289  -0.00937   0.00000  -0.03699  -0.03696   2.03593
    A2        2.07926   0.00429   0.00000   0.01617   0.01620   2.09547
    A3        2.13103   0.00508   0.00000   0.02082   0.02075   2.15179
    A4        2.02707  -0.00622   0.00000  -0.03262  -0.03253   1.99454
    A5        2.03908  -0.00701   0.00000  -0.02435  -0.02440   2.01468
    A6        2.20589   0.01201   0.00000   0.04088   0.04099   2.24688
    A7        2.03822  -0.00500   0.00000  -0.01654  -0.01659   2.02162
    A8        2.02190  -0.00151   0.00000  -0.00612  -0.00604   2.01586
    A9        2.02179   0.00379   0.00000   0.01155   0.01159   2.03338
   A10        2.13660  -0.00700   0.00000  -0.02084  -0.02091   2.11569
   A11        2.12479   0.00321   0.00000   0.00928   0.00932   2.13411
   A12        1.92491  -0.00113   0.00000  -0.00876  -0.00883   1.91607
   A13        1.95184  -0.00130   0.00000  -0.00377  -0.00377   1.94807
   A14        1.92496  -0.00114   0.00000  -0.00879  -0.00887   1.91609
   A15        1.88609   0.00203   0.00000   0.01601   0.01601   1.90210
   A16        1.88816  -0.00036   0.00000  -0.01007  -0.01022   1.87794
   A17        1.88609   0.00204   0.00000   0.01604   0.01604   1.90213
   A18        2.04387  -0.00236   0.00000  -0.00213  -0.00226   2.04160
   A19        2.10840   0.00236   0.00000   0.00811   0.00818   2.11658
   A20        2.13092   0.00000   0.00000  -0.00598  -0.00591   2.12500
   A21        3.14105  -0.00044   0.00000  -0.00791  -0.00791   3.13315
   A22        3.14192   0.00008   0.00000   0.00139   0.00139   3.14331
    D1        3.14157  -0.00000   0.00000  -0.00000  -0.00000   3.14157
    D2       -0.00008   0.00000   0.00000   0.00010   0.00010   0.00002
    D3        3.14155   0.00000   0.00000   0.00008   0.00008  -3.14155
    D4        0.00002   0.00000   0.00000   0.00003   0.00003   0.00005
    D5        0.00002  -0.00000   0.00000  -0.00002  -0.00002  -0.00000
    D6       -3.14152  -0.00000   0.00000  -0.00007  -0.00007  -3.14158
    D7       -3.14158   0.00000   0.00000   0.00004   0.00004  -3.14154
    D8        0.00007  -0.00000   0.00000  -0.00011  -0.00011  -0.00004
    D9       -0.00001   0.00000   0.00000   0.00004   0.00004   0.00003
   D10       -3.14153  -0.00000   0.00000  -0.00011  -0.00011   3.14154
   D11       -3.14156  -0.00000   0.00000  -0.00006  -0.00006   3.14157
   D12       -0.00006   0.00000   0.00000   0.00005   0.00005  -0.00001
   D13       -1.04237   0.00094   0.00000   0.01185   0.01179  -1.03059
   D14        3.14149   0.00000   0.00000   0.00006   0.00006   3.14155
   D15        1.04214  -0.00094   0.00000  -0.01175  -0.01169   1.03044
   D16        2.09931   0.00094   0.00000   0.01174   0.01168   2.11099
   D17       -0.00000  -0.00000   0.00000  -0.00005  -0.00005  -0.00006
   D18       -2.09936  -0.00094   0.00000  -0.01186  -0.01180  -2.11116
   D19        0.00005  -0.00000   0.00000  -0.00006  -0.00006  -0.00001
   D20        3.14159  -0.00000   0.00000  -0.00001  -0.00001   3.14158
   D21        3.14155   0.00000   0.00000   0.00006   0.00006  -3.14158
   D22       -0.00011   0.00000   0.00000   0.00011   0.00011  -0.00000
         Item               Value     Threshold  Converged?
 Maximum Force            0.034103     0.000450     NO 
 RMS     Force            0.007309     0.000300     NO 
 Maximum Displacement     0.100272     0.001800     NO 
 RMS     Displacement     0.031417     0.001200     NO 
 Predicted change in Energy=-3.530763D-03
 GradGradGradGradGradGradGradGradGradGradGradGradGradGradGradGradGradGrad

                          Input orientation:                          
 ---------------------------------------------------------------------
 Center     Atomic      Atomic             Coordinates (Angstroms)
 Number     Number       Type             X           Y           Z
 ---------------------------------------------------------------------
      1         17           0        0.647079   -1.648138   -3.058114
      2          6           0        0.458625   -0.666170   -1.643492
      3          7           0        1.060568    0.514862   -1.654983
      4          6           0        0.884079    1.232776   -0.540795
      5          6           0        1.528805    2.523244   -0.526659
      6          7           0        2.045127    3.562481   -0.505743
      7          7           0        0.191937    0.915216    0.558353
      8          6           0       -0.405251   -0.286828    0.538067
      9          6           0       -1.188677   -0.666440    1.761201
     10          6           0       -0.295977   -1.129610   -0.567468
     11          1           0       -0.533297   -0.662384    2.636498
     12          1           0       -1.639344   -1.656428    1.659289
     13          1           0       -1.979480    0.068013    1.936916
     14          1           0       -0.773895   -2.100595   -0.593070
 ---------------------------------------------------------------------
                    Distance matrix (angstroms):
                    1          2          3          4          5
     1  Cl   0.000000
     2  C    1.732320   0.000000
     3  N    2.611191   1.325633   0.000000
     4  C    3.833110   2.236726   1.337148   0.000000
     5  C    4.958441   3.544709   2.350737   1.442630   0.000000
     6  N    5.968223   4.657569   3.402660   2.603226   1.160620
     7  N    4.456094   2.723972   2.411153   1.337173   2.355891
     8  C    3.986613   2.376843   2.756955   2.266167   3.573615
     9  C    5.249717   3.782266   4.257334   3.633528   4.774211
    10  C    2.713216   1.393567   2.393155   2.640855   4.083484
    11  H    5.898610   4.393431   4.726851   3.961789   4.940248
    12  H    5.242298   4.036143   4.794625   4.422164   5.682007
    13  H    5.898670   4.393484   4.726871   3.961779   4.940185
    14  H    2.881028   2.163346   3.366530   3.723301   5.165920
                    6          7          8          9         10
     6  N    0.000000
     7  N    3.402150   0.000000
     8  C    4.680926   1.342369   0.000000
     9  C    5.786215   2.419622   1.501305   0.000000
    10  C    5.244072   2.384711   1.394428   2.536560   0.000000
    11  H    5.862715   2.708038   2.135614   1.093473   3.246539
    12  H    6.745346   3.343502   2.157760   1.092504   2.653416
    13  H    5.863049   2.707996   2.135623   1.093465   3.246602
    14  H    6.326526   3.369528   2.169129   2.787730   1.082530
                   11         12         13         14
    11  H    0.000000
    12  H    1.779439   0.000000
    13  H    1.764749   1.779457   0.000000
    14  H    3.543508   2.453448   3.543604   0.000000
 Stoichiometry    C6H4ClN3
 Framework group  C1[X(C6H4ClN3)]
 Deg. of freedom    36
 Full point group                 C1      NOp   1
 Largest Abelian subgroup         C1      NOp   1
 Largest concise Abelian subgroup C1      NOp   1
                         Standard orientation:                         
 ---------------------------------------------------------------------
 Center     Atomic      Atomic             Coordinates (Angstroms)
 Number     Number       Type             X           Y           Z
 ---------------------------------------------------------------------
      1         17           0       -2.658372   -1.050748    0.000064
      2          6           0       -1.095772   -0.302941   -0.000001
      3          7           0       -0.047971   -1.114986   -0.000198
      4          6           0        1.133256   -0.488356   -0.000264
      5          6           0        2.291095   -1.348931   -0.000544
      6          7           0        3.228400   -2.033398    0.000642
      7          7           0        1.383621    0.825170   -0.000194
      8          6           0        0.301651    1.619711   -0.000001
      9          6           0        0.556867    3.099164    0.000110
     10          6           0       -0.986744    1.086354    0.000107
     11          1           0        1.141373    3.373827    0.882491
     12          1           0       -0.375602    3.668432    0.000223
     13          1           0        1.141301    3.373990   -0.882258
     14          1           0       -1.865207    1.718948    0.000278
 ---------------------------------------------------------------------
 Rotational constants (GHZ):           1.4435820           0.9410836           0.5717175
 Standard basis: 6-31G(d,p) (6D, 7F)
 There are   174 symmetry adapted cartesian basis functions of A   symmetry.
 There are   174 symmetry adapted basis functions of A   symmetry.
   174 basis functions,   332 primitive gaussians,   174 cartesian basis functions
    39 alpha electrons       39 beta electrons
       nuclear repulsion energy       528.3975249206 Hartrees.
 NAtoms=   14 NActive=   14 NUniq=   14 SFac= 1.00D+00 NAtFMM=   60 NAOKFM=F Big=F
 Integral buffers will be    131072 words long.
 Raffenetti 2 integral format.
 Two-electron integral symmetry is turned on.
 Nuclear repulsion after empirical dispersion term =      528.3695185825 Hartrees.
 One-electron integrals computed using PRISM.
 NBasis=   174 RedAO= T EigKep=  8.31D-04  NBF=   174
 NBsUse=   174 1.00D-06 EigRej= -1.00D+00 NBFU=   174
 Initial guess from the checkpoint file:  "pyrmd4_conf-1.chk"
 B after Tr=     0.000000   -0.000000    0.000000
         Rot=    0.999741   -0.000001   -0.000001    0.022756 Ang=  -2.61 deg.
 ExpMin= 1.43D-01 ExpMax= 2.52D+04 ExpMxC= 3.78D+03 IAcc=3 IRadAn=         5 AccDes= 0.00D+00
 Harris functional with IExCor=  402 and IRadAn=       5 diagonalized for initial guess.
 HarFok:  IExCor=  402 AccDes= 0.00D+00 IRadAn=         5 IDoV= 1 UseB2=F ITyADJ=14
 ICtDFT=  3500011 ScaDFX=  1.000000  1.000000  1.000000  1.000000
 FoFCou: FMM=F IPFlag=           0 FMFlag=      100000 FMFlg1=           0
         NFxFlg=           0 DoJE=T BraDBF=F KetDBF=T FulRan=T
         wScrn=  0.000000 ICntrl=       500 IOpCl=  0 I1Cent=   200000004 NGrid=           0
         NMat0=    1 NMatS0=      1 NMatT0=    0 NMatD0=    1 NMtDS0=    0 NMtDT0=    0
 Petite list used in FoFCou.
 Requested convergence on RMS density matrix=1.00D-08 within 128 cycles.
 Requested convergence on MAX density matrix=1.00D-06.
 Requested convergence on             energy=1.00D-06.
 No special actions if energy rises.
 Integral accuracy reduced to 1.0D-05 until final iterations.
 Initial convergence to 1.0D-05 achieved.  Increase integral accuracy.
 SCF Done:  E(RB3LYP) =  -855.510865147     A.U. after   13 cycles
            NFock= 13  Conv=0.66D-08     -V/T= 2.0059
 Calling FoFJK, ICntrl=      2127 FMM=F ISym2X=0 I1Cent= 0 IOpClX= 0 NMat=1 NMatS=1 NMatT=0.
 ***** Axes restored to original set *****
 -------------------------------------------------------------------
 Center     Atomic                   Forces (Hartrees/Bohr)
 Number     Number              X              Y              Z
 -------------------------------------------------------------------
      1       17           0.000024584   -0.003893886   -0.004112538
      2        6           0.000677568    0.003482609    0.002240887
      3        7          -0.002383289   -0.004316593    0.000415715
      4        6           0.000033877    0.004791790    0.004802321
      5        6           0.001823731    0.004043198    0.000684475
      6        7           0.000128197    0.000185971   -0.000187049
      7        7           0.002875107    0.000376050   -0.005558742
      8        6          -0.002530589   -0.000983270    0.004221475
      9        6          -0.000379072   -0.002191907   -0.001490342
     10        6          -0.000527652   -0.002971509   -0.002007678
     11        1          -0.000114566    0.000581398    0.000347976
     12        1           0.000110796    0.000421205    0.000206179
     13        1           0.000204005    0.000420247    0.000503599
     14        1           0.000057305    0.000054697   -0.000066278
 -------------------------------------------------------------------
 Cartesian Forces:  Max     0.005558742 RMS     0.002321831

 GradGradGradGradGradGradGradGradGradGradGradGradGradGradGradGradGradGrad
 Berny optimization.
 Using GEDIIS/GDIIS optimizer.
 FormGI is forming the generalized inverse of G from B-inverse, IUseBI=4.
 Internal  Forces:  Max     0.005568327 RMS     0.001774178
 Search for a local minimum.
 Step number   2 out of a maximum of   68
 All quantities printed in internal units (Hartrees-Bohrs-Radians)
 Mixed Optimization -- RFO/linear search
 Update second derivatives using D2CorX and points    1    2
 DE= -3.13D-03 DEPred=-3.53D-03 R= 8.87D-01
 TightC=F SS=  1.41D+00  RLast= 1.34D-01 DXNew= 5.0454D-01 4.0206D-01
 Trust test= 8.87D-01 RLast= 1.34D-01 DXMaxT set to 4.02D-01
 ITU=  1  0
 Use linear search instead of GDIIS.
     Eigenvalues ---    0.00571   0.01428   0.02106   0.02125   0.02146
     Eigenvalues ---    0.02197   0.02238   0.02241   0.04889   0.04893
     Eigenvalues ---    0.07093   0.07327   0.15998   0.16000   0.16000
     Eigenvalues ---    0.16006   0.23558   0.24315   0.25000   0.25000
     Eigenvalues ---    0.25000   0.27860   0.30564   0.32393   0.34732
     Eigenvalues ---    0.34753   0.34817   0.36031   0.38450   0.42917
     Eigenvalues ---    0.44659   0.49792   0.50749   0.52203   0.59654
     Eigenvalues ---    1.28819
 RFO step:  Lambda=-3.74916239D-04 EMin= 5.70757775D-03
 Quartic linear search produced a step of -0.10334.
 Iteration  1 RMS(Cart)=  0.00662981 RMS(Int)=  0.00001758
 Iteration  2 RMS(Cart)=  0.00002712 RMS(Int)=  0.00000299
 Iteration  3 RMS(Cart)=  0.00000000 RMS(Int)=  0.00000299
 Variable       Old X    -DE/DX   Delta X   Delta X   Delta X     New X
                                 (Linear)    (Quad)   (Total)
    R1        3.27361   0.00557  -0.00155   0.01758   0.01603   3.28964
    R2        2.50508   0.00112   0.00665  -0.00873  -0.00209   2.50300
    R3        2.63346   0.00038   0.00096  -0.00077   0.00019   2.63365
    R4        2.52684   0.00422   0.00417   0.00037   0.00454   2.53138
    R5        2.72617   0.00466   0.00241   0.00721   0.00962   2.73580
    R6        2.52689  -0.00225   0.00416  -0.01042  -0.00626   2.52063
    R7        2.19325   0.00022  -0.00045   0.00085   0.00040   2.19365
    R8        2.53671   0.00447   0.00327   0.00242   0.00570   2.54241
    R9        2.83706  -0.00006   0.00263  -0.00448  -0.00185   2.83520
   R10        2.63509   0.00260   0.00087   0.00382   0.00470   2.63979
   R11        2.06636   0.00021  -0.00055   0.00145   0.00089   2.06726
   R12        2.06453  -0.00045  -0.00047  -0.00039  -0.00086   2.06367
   R13        2.06635   0.00022  -0.00058   0.00150   0.00092   2.06727
   R14        2.04569  -0.00007  -0.00055   0.00071   0.00016   2.04585
    A1        2.03593   0.00181   0.00382   0.00017   0.00400   2.03993
    A2        2.09547  -0.00158  -0.00167  -0.00284  -0.00451   2.09095
    A3        2.15179  -0.00024  -0.00214   0.00267   0.00052   2.15231
    A4        1.99454   0.00372   0.00336   0.00726   0.01062   2.00516
    A5        2.01468   0.00304   0.00252   0.00679   0.00932   2.02399
    A6        2.24688  -0.00522  -0.00424  -0.01181  -0.01605   2.23083
    A7        2.02162   0.00218   0.00171   0.00502   0.00673   2.02836
    A8        2.01586   0.00354   0.00062   0.01193   0.01256   2.02842
    A9        2.03338   0.00123  -0.00120   0.00618   0.00498   2.03835
   A10        2.11569  -0.00079   0.00216  -0.00594  -0.00377   2.11192
   A11        2.13411  -0.00045  -0.00096  -0.00024  -0.00120   2.13291
   A12        1.91607   0.00001   0.00091  -0.00235  -0.00144   1.91464
   A13        1.94807   0.00043   0.00039   0.00341   0.00379   1.95186
   A14        1.91609   0.00001   0.00092  -0.00236  -0.00145   1.91464
   A15        1.90210   0.00005  -0.00165   0.00480   0.00314   1.90523
   A16        1.87794  -0.00059   0.00106  -0.00863  -0.00757   1.87037
   A17        1.90213   0.00005  -0.00166   0.00478   0.00312   1.90525
   A18        2.04160  -0.00101   0.00023  -0.00410  -0.00387   2.03774
   A19        2.11658   0.00043  -0.00085   0.00290   0.00205   2.11863
   A20        2.12500   0.00058   0.00061   0.00120   0.00181   2.12682
   A21        3.13315   0.00043   0.00082   0.00594   0.00676   3.13990
   A22        3.14331  -0.00001  -0.00014   0.00014  -0.00000   3.14331
    D1        3.14157   0.00000   0.00000   0.00001   0.00001   3.14158
    D2        0.00002  -0.00000  -0.00001  -0.00000  -0.00001   0.00001
    D3       -3.14155  -0.00000  -0.00001  -0.00004  -0.00005   3.14159
    D4        0.00005  -0.00000  -0.00000  -0.00006  -0.00006  -0.00001
    D5       -0.00000  -0.00000   0.00000  -0.00002  -0.00002  -0.00002
    D6       -3.14158  -0.00000   0.00001  -0.00005  -0.00004   3.14156
    D7       -3.14154  -0.00001  -0.00000  -0.00044  -0.00044   3.14120
    D8       -0.00004   0.00000   0.00001   0.00005   0.00006   0.00002
    D9        0.00003  -0.00000  -0.00000  -0.00005  -0.00006  -0.00003
   D10        3.14154   0.00001   0.00001   0.00043   0.00044  -3.14121
   D11        3.14157   0.00000   0.00001   0.00001   0.00002   3.14159
   D12       -0.00001   0.00000  -0.00001   0.00002   0.00001   0.00001
   D13       -1.03059   0.00036  -0.00122   0.00667   0.00546  -1.02513
   D14        3.14155  -0.00000  -0.00001  -0.00002  -0.00003   3.14153
   D15        1.03044  -0.00036   0.00121  -0.00668  -0.00548   1.02497
   D16        2.11099   0.00036  -0.00121   0.00667   0.00546   2.11645
   D17       -0.00006  -0.00000   0.00001  -0.00003  -0.00002  -0.00008
   D18       -2.11116  -0.00036   0.00122  -0.00669  -0.00547  -2.11664
   D19       -0.00001   0.00000   0.00001   0.00001   0.00002   0.00002
   D20        3.14158   0.00000   0.00000   0.00004   0.00004  -3.14157
   D21       -3.14158   0.00000  -0.00001   0.00002   0.00002  -3.14157
   D22       -0.00000   0.00000  -0.00001   0.00004   0.00003   0.00003
         Item               Value     Threshold  Converged?
 Maximum Force            0.005568     0.000450     NO 
 RMS     Force            0.001774     0.000300     NO 
 Maximum Displacement     0.022291     0.001800     NO 
 RMS     Displacement     0.006619     0.001200     NO 
 Predicted change in Energy=-2.323706D-04
 GradGradGradGradGradGradGradGradGradGradGradGradGradGradGradGradGradGrad

                          Input orientation:                          
 ---------------------------------------------------------------------
 Center     Atomic      Atomic             Coordinates (Angstroms)
 Number     Number       Type             X           Y           Z
 ---------------------------------------------------------------------
      1         17           0        0.645380   -1.656180   -3.063033
      2          6           0        0.457348   -0.667721   -1.642472
      3          7           0        1.057638    0.512939   -1.650716
      4          6           0        0.886816    1.239970   -0.538674
      5          6           0        1.533673    2.535040   -0.522448
      6          7           0        2.050950    3.574143   -0.507665
      7          7           0        0.193766    0.913746    0.553316
      8          6           0       -0.407014   -0.289958    0.538494
      9          6           0       -1.190120   -0.669950    1.760511
     10          6           0       -0.298172   -1.134895   -0.568576
     11          1           0       -0.534663   -0.660347    2.636296
     12          1           0       -1.642115   -1.659165    1.661898
     13          1           0       -1.977408    0.068474    1.938382
     14          1           0       -0.775781   -2.106096   -0.595312
 ---------------------------------------------------------------------
                    Distance matrix (angstroms):
                    1          2          3          4          5
     1  Cl   0.000000
     2  C    1.740804   0.000000
     3  N    2.621006   1.324529   0.000000
     4  C    3.849463   2.245462   1.339549   0.000000
     5  C    4.980960   3.559581   2.363999   1.447720   0.000000
     6  N    5.988473   4.671271   3.415290   2.608550   1.160831
     7  N    4.459423   2.718824   2.400975   1.333861   2.362460
     8  C    3.993131   2.376224   2.753632   2.274856   3.587824
     9  C    5.254358   3.780800   4.253012   3.639740   4.785699
    10  C    2.717415   1.393669   2.392615   2.654256   4.101976
    11  H    5.904789   4.392265   4.721281   3.963867   4.946330
    12  H    5.249535   4.038510   4.793758   4.432042   5.696346
    13  H    5.904879   4.392327   4.721300   3.963835   4.946446
    14  H    2.883014   2.164733   3.366696   3.736789   5.184499
                    6          7          8          9         10
     6  N    0.000000
     7  N    3.413580   0.000000
     8  C    4.697586   1.345385   0.000000
     9  C    5.801852   2.424985   1.500324   0.000000
    10  C    5.262806   2.386959   1.396914   2.537004   0.000000
    11  H    5.873737   2.710568   2.134070   1.093945   3.248434
    12  H    6.762636   3.349520   2.159222   1.092048   2.656324
    13  H    5.873715   2.710514   2.134079   1.093952   3.248502
    14  H    6.345329   3.373250   2.172525   2.789999   1.082615
                   11         12         13         14
    11  H    0.000000
    12  H    1.781442   0.000000
    13  H    1.760618   1.781460   0.000000
    14  H    3.548467   2.458715   3.548558   0.000000
 Stoichiometry    C6H4ClN3
 Framework group  C1[X(C6H4ClN3)]
 Deg. of freedom    36
 Full point group                 C1      NOp   1
 Largest Abelian subgroup         C1      NOp   1
 Largest concise Abelian subgroup C1      NOp   1
                         Standard orientation:                         
 ---------------------------------------------------------------------
 Center     Atomic      Atomic             Coordinates (Angstroms)
 Number     Number       Type             X           Y           Z
 ---------------------------------------------------------------------
      1         17           0       -2.658215   -1.071722    0.000023
      2          6           0       -1.093160   -0.309488   -0.000017
      3          7           0       -0.037480   -1.109436   -0.000089
      4          6           0        1.145713   -0.481388   -0.000129
      5          6           0        2.315843   -1.333849    0.000302
      6          7           0        3.255410   -2.015569   -0.000072
      7          7           0        1.374071    0.832780   -0.000083
      8          6           0        0.286701    1.625047   -0.000018
      9          6           0        0.528857    3.105700    0.000038
     10          6           0       -0.999941    1.081061    0.000008
     11          1           0        1.115908    3.383331    0.880383
     12          1           0       -0.406013    3.670135    0.000022
     13          1           0        1.116001    3.383392   -0.880234
     14          1           0       -1.884334    1.705485    0.000042
 ---------------------------------------------------------------------
 Rotational constants (GHZ):           1.4408149           0.9349877           0.5690215
 Standard basis: 6-31G(d,p) (6D, 7F)
 There are   174 symmetry adapted cartesian basis functions of A   symmetry.
 There are   174 symmetry adapted basis functions of A   symmetry.
   174 basis functions,   332 primitive gaussians,   174 cartesian basis functions
    39 alpha electrons       39 beta electrons
       nuclear repulsion energy       527.4842548669 Hartrees.
 NAtoms=   14 NActive=   14 NUniq=   14 SFac= 1.00D+00 NAtFMM=   60 NAOKFM=F Big=F
 Integral buffers will be    131072 words long.
 Raffenetti 2 integral format.
 Two-electron integral symmetry is turned on.
 Nuclear repulsion after empirical dispersion term =      527.4562784041 Hartrees.
 One-electron integrals computed using PRISM.
 NBasis=   174 RedAO= T EigKep=  8.45D-04  NBF=   174
 NBsUse=   174 1.00D-06 EigRej= -1.00D+00 NBFU=   174
 Initial guess from the checkpoint file:  "pyrmd4_conf-1.chk"
 B after Tr=    -0.000000    0.000000   -0.000000
         Rot=    0.999992    0.000000    0.000001   -0.003963 Ang=   0.45 deg.
 ExpMin= 1.43D-01 ExpMax= 2.52D+04 ExpMxC= 3.78D+03 IAcc=3 IRadAn=         5 AccDes= 0.00D+00
 Harris functional with IExCor=  402 and IRadAn=       5 diagonalized for initial guess.
 HarFok:  IExCor=  402 AccDes= 0.00D+00 IRadAn=         5 IDoV= 1 UseB2=F ITyADJ=14
 ICtDFT=  3500011 ScaDFX=  1.000000  1.000000  1.000000  1.000000
 FoFCou: FMM=F IPFlag=           0 FMFlag=      100000 FMFlg1=           0
         NFxFlg=           0 DoJE=T BraDBF=F KetDBF=T FulRan=T
         wScrn=  0.000000 ICntrl=       500 IOpCl=  0 I1Cent=   200000004 NGrid=           0
         NMat0=    1 NMatS0=      1 NMatT0=    0 NMatD0=    1 NMtDS0=    0 NMtDT0=    0
 Petite list used in FoFCou.
 Requested convergence on RMS density matrix=1.00D-08 within 128 cycles.
 Requested convergence on MAX density matrix=1.00D-06.
 Requested convergence on             energy=1.00D-06.
 No special actions if energy rises.
 Integral accuracy reduced to 1.0D-05 until final iterations.
 Initial convergence to 1.0D-05 achieved.  Increase integral accuracy.
 SCF Done:  E(RB3LYP) =  -855.511133079     A.U. after   12 cycles
            NFock= 12  Conv=0.47D-08     -V/T= 2.0060
 Calling FoFJK, ICntrl=      2127 FMM=F ISym2X=0 I1Cent= 0 IOpClX= 0 NMat=1 NMatS=1 NMatT=0.
 ***** Axes restored to original set *****
 -------------------------------------------------------------------
 Center     Atomic                   Forces (Hartrees/Bohr)
 Number     Number              X              Y              Z
 -------------------------------------------------------------------
      1       17          -0.000063575   -0.001454846   -0.001386722
      2        6           0.001056841    0.003187751    0.001114312
      3        7          -0.000538007   -0.002066573   -0.001045947
      4        6          -0.000447457    0.001081372    0.002202017
      5        6           0.000373847    0.000606601   -0.000305523
      6        7          -0.000214171   -0.000406297    0.000083516
      7        7           0.000453390    0.000088708   -0.000847239
      8        6          -0.000259577   -0.000193234    0.000311015
      9        6           0.000021341   -0.000233208   -0.000296868
     10        6          -0.000487731   -0.001138978   -0.000179281
     11        1          -0.000127952    0.000053623    0.000141655
     12        1           0.000154634    0.000331132    0.000024546
     13        1          -0.000008361   -0.000009309    0.000196685
     14        1           0.000086777    0.000153257   -0.000012167
 -------------------------------------------------------------------
 Cartesian Forces:  Max     0.003187751 RMS     0.000877524

 GradGradGradGradGradGradGradGradGradGradGradGradGradGradGradGradGradGrad
 Berny optimization.
 Using GEDIIS/GDIIS optimizer.
 FormGI is forming the generalized inverse of G from B-inverse, IUseBI=4.
 Internal  Forces:  Max     0.001950906 RMS     0.000445147
 Search for a local minimum.
 Step number   3 out of a maximum of   68
 All quantities printed in internal units (Hartrees-Bohrs-Radians)
 Mixed Optimization -- En-DIIS/RFO-DIIS
 Update second derivatives using D2CorX and points    1    2    3
 DE= -2.68D-04 DEPred=-2.32D-04 R= 1.15D+00
 TightC=F SS=  1.41D+00  RLast= 3.87D-02 DXNew= 6.7619D-01 1.1600D-01
 Trust test= 1.15D+00 RLast= 3.87D-02 DXMaxT set to 4.02D-01
 ITU=  1  1  0
 Use linear search instead of GDIIS.
     Eigenvalues ---    0.00571   0.01425   0.02106   0.02125   0.02146
     Eigenvalues ---    0.02198   0.02238   0.02241   0.04889   0.04932
     Eigenvalues ---    0.07054   0.07265   0.15932   0.16000   0.16001
     Eigenvalues ---    0.16022   0.21408   0.23759   0.25000   0.25000
     Eigenvalues ---    0.25227   0.27289   0.29834   0.31070   0.34733
     Eigenvalues ---    0.34754   0.34812   0.36040   0.38796   0.42823
     Eigenvalues ---    0.44689   0.49555   0.50699   0.51879   0.59713
     Eigenvalues ---    1.29024
 RFO step:  Lambda=-2.84455890D-05 EMin= 5.70757786D-03
 Quartic linear search produced a step of  0.19770.
 Iteration  1 RMS(Cart)=  0.00210003 RMS(Int)=  0.00000353
 Iteration  2 RMS(Cart)=  0.00000503 RMS(Int)=  0.00000113
 Iteration  3 RMS(Cart)=  0.00000000 RMS(Int)=  0.00000113
 Variable       Old X    -DE/DX   Delta X   Delta X   Delta X     New X
                                 (Linear)    (Quad)   (Total)
    R1        3.28964   0.00195   0.00317   0.00533   0.00850   3.29815
    R2        2.50300  -0.00119  -0.00041  -0.00365  -0.00406   2.49894
    R3        2.63365   0.00051   0.00004   0.00114   0.00118   2.63483
    R4        2.53138   0.00159   0.00090   0.00231   0.00321   2.53459
    R5        2.73580   0.00025   0.00190  -0.00090   0.00100   2.73680
    R6        2.52063  -0.00067  -0.00124  -0.00139  -0.00263   2.51800
    R7        2.19365  -0.00046   0.00008  -0.00041  -0.00033   2.19332
    R8        2.54241   0.00040   0.00113  -0.00036   0.00076   2.54317
    R9        2.83520  -0.00000  -0.00037  -0.00024  -0.00061   2.83460
   R10        2.63979   0.00039   0.00093   0.00028   0.00121   2.64100
   R11        2.06726   0.00004   0.00018   0.00011   0.00029   2.06754
   R12        2.06367  -0.00037  -0.00017  -0.00109  -0.00126   2.06242
   R13        2.06727   0.00003   0.00018   0.00009   0.00028   2.06754
   R14        2.04585  -0.00018   0.00003  -0.00052  -0.00048   2.04536
    A1        2.03993   0.00065   0.00079   0.00195   0.00275   2.04267
    A2        2.09095  -0.00096  -0.00089  -0.00373  -0.00462   2.08633
    A3        2.15231   0.00032   0.00010   0.00178   0.00188   2.15418
    A4        2.00516   0.00015   0.00210  -0.00142   0.00068   2.00584
    A5        2.02399   0.00000   0.00184  -0.00170   0.00014   2.02414
    A6        2.23083  -0.00044  -0.00317   0.00077  -0.00240   2.22843
    A7        2.02836   0.00044   0.00133   0.00093   0.00226   2.03062
    A8        2.02842   0.00030   0.00248  -0.00009   0.00240   2.03082
    A9        2.03835  -0.00007   0.00098  -0.00084   0.00014   2.03849
   A10        2.11192  -0.00007  -0.00075  -0.00011  -0.00086   2.11106
   A11        2.13291   0.00014  -0.00024   0.00096   0.00072   2.13363
   A12        1.91464   0.00020  -0.00028   0.00144   0.00116   1.91580
   A13        1.95186  -0.00007   0.00075  -0.00095  -0.00020   1.95166
   A14        1.91464   0.00020  -0.00029   0.00144   0.00115   1.91580
   A15        1.90523  -0.00005   0.00062  -0.00030   0.00032   1.90556
   A16        1.87037  -0.00023  -0.00150  -0.00137  -0.00287   1.86750
   A17        1.90525  -0.00005   0.00062  -0.00031   0.00031   1.90556
   A18        2.03774  -0.00026  -0.00076  -0.00093  -0.00169   2.03604
   A19        2.11863   0.00011   0.00041   0.00045   0.00085   2.11949
   A20        2.12682   0.00015   0.00036   0.00048   0.00084   2.12766
   A21        3.13990  -0.00020   0.00134  -0.00598  -0.00464   3.13526
   A22        3.14331  -0.00000  -0.00000  -0.00001  -0.00001   3.14330
    D1        3.14158   0.00000   0.00000   0.00015   0.00015  -3.14145
    D2        0.00001   0.00000  -0.00000   0.00009   0.00008   0.00009
    D3        3.14159   0.00000  -0.00001   0.00009   0.00008  -3.14151
    D4       -0.00001   0.00000  -0.00001   0.00004   0.00003   0.00002
    D5       -0.00002   0.00000  -0.00000   0.00016   0.00016   0.00013
    D6        3.14156   0.00000  -0.00001   0.00011   0.00010  -3.14152
    D7        3.14120   0.00002  -0.00009   0.00136   0.00127  -3.14071
    D8        0.00002  -0.00001   0.00001  -0.00040  -0.00039  -0.00037
    D9       -0.00003   0.00001  -0.00001   0.00041   0.00040   0.00037
   D10       -3.14121  -0.00002   0.00009  -0.00135  -0.00127   3.14071
   D11        3.14159  -0.00000   0.00000  -0.00014  -0.00014   3.14145
   D12        0.00001  -0.00000   0.00000  -0.00011  -0.00011  -0.00010
   D13       -1.02513   0.00002   0.00108   0.00001   0.00109  -1.02404
   D14        3.14153  -0.00000  -0.00001   0.00002   0.00002   3.14154
   D15        1.02497  -0.00002  -0.00108   0.00005  -0.00104   1.02393
   D16        2.11645   0.00002   0.00108  -0.00002   0.00106   2.11751
   D17       -0.00008  -0.00000  -0.00000  -0.00001  -0.00001  -0.00009
   D18       -2.11664  -0.00002  -0.00108   0.00002  -0.00107  -2.11770
   D19        0.00002  -0.00000   0.00000  -0.00015  -0.00014  -0.00013
   D20       -3.14157  -0.00000   0.00001  -0.00009  -0.00009   3.14153
   D21       -3.14157  -0.00000   0.00000  -0.00012  -0.00011   3.14151
   D22        0.00003  -0.00000   0.00001  -0.00006  -0.00006  -0.00002
         Item               Value     Threshold  Converged?
 Maximum Force            0.001951     0.000450     NO 
 RMS     Force            0.000445     0.000300     NO 
 Maximum Displacement     0.009089     0.001800     NO 
 RMS     Displacement     0.002101     0.001200     NO 
 Predicted change in Energy=-2.160697D-05
 GradGradGradGradGradGradGradGradGradGradGradGradGradGradGradGradGradGrad

                          Input orientation:                          
 ---------------------------------------------------------------------
 Center     Atomic      Atomic             Coordinates (Angstroms)
 Number     Number       Type             X           Y           Z
 ---------------------------------------------------------------------
      1         17           0        0.643551   -1.660989   -3.064808
      2          6           0        0.458074   -0.666496   -1.642603
      3          7           0        1.057689    0.512097   -1.650895
      4          6           0        0.887569    1.240702   -0.537729
      5          6           0        1.533914    2.536638   -0.522930
      6          7           0        2.049841    3.576146   -0.503960
      7          7           0        0.194489    0.913095    0.552128
      8          6           0       -0.407095   -0.290671    0.538202
      9          6           0       -1.189920   -0.669628    1.760325
     10          6           0       -0.298253   -1.135916   -0.569443
     11          1           0       -0.535387   -0.659163    2.636981
     12          1           0       -1.642017   -1.658107    1.662169
     13          1           0       -1.976636    0.069266    1.939670
     14          1           0       -0.775517   -2.106974   -0.597106
 ---------------------------------------------------------------------
                    Distance matrix (angstroms):
                    1          2          3          4          5
     1  Cl   0.000000
     2  C    1.745304   0.000000
     3  N    2.625446   1.322379   0.000000
     4  C    3.855579   2.245577   1.341248   0.000000
     5  C    4.987381   3.559658   2.365980   1.448251   0.000000
     6  N    5.996931   4.672284   3.418804   2.608892   1.160654
     7  N    4.462039   2.716879   2.399839   1.332470   2.363409
     8  C    3.995411   2.376062   2.753574   2.275716   3.589873
     9  C    5.256075   3.780981   4.252604   3.639557   4.786718
    10  C    2.718371   1.394295   2.392501   2.656218   4.104467
    11  H    5.907956   4.393388   4.721824   3.963972   4.947746
    12  H    5.250537   4.039207   4.793181   4.431868   5.697111
    13  H    5.907958   4.393386   4.721799   3.964018   4.947351
    14  H    2.881355   2.165592   3.366103   3.738492   5.186724
                    6          7          8          9         10
     6  N    0.000000
     7  N    3.413136   0.000000
     8  C    4.698394   1.345789   0.000000
     9  C    5.800831   2.425147   1.500003   0.000000
    10  C    5.265108   2.387292   1.397556   2.537778   0.000000
    11  H    5.872543   2.711332   2.134741   1.094097   3.250335
    12  H    6.761607   3.349033   2.158290   1.091383   2.656780
    13  H    5.872142   2.711292   2.134743   1.094098   3.250397
    14  H    6.347376   3.373791   2.173388   2.791985   1.082359
                   11         12         13         14
    11  H    0.000000
    12  H    1.781229   0.000000
    13  H    1.758991   1.781234   0.000000
    14  H    3.551498   2.461022   3.551611   0.000000
 Stoichiometry    C6H4ClN3
 Framework group  C1[X(C6H4ClN3)]
 Deg. of freedom    36
 Full point group                 C1      NOp   1
 Largest Abelian subgroup         C1      NOp   1
 Largest concise Abelian subgroup C1      NOp   1
                         Standard orientation:                         
 ---------------------------------------------------------------------
 Center     Atomic      Atomic             Coordinates (Angstroms)
 Number     Number       Type             X           Y           Z
 ---------------------------------------------------------------------
      1         17           0       -2.662559   -1.070459   -0.000107
      2          6           0       -1.091266   -0.310771    0.000046
      3          7           0       -0.037404   -1.109560    0.000288
      4          6           0        1.147798   -0.481675    0.000574
      5          6           0        2.317789   -1.335226   -0.000307
      6          7           0        3.259797   -2.013267   -0.000268
      7          7           0        1.373826    0.831485    0.000251
      8          6           0        0.286769    1.624866    0.000007
      9          6           0        0.529859    3.105041   -0.000173
     10          6           0       -1.000436    1.080562   -0.000026
     11          1           0        1.117963    3.383539    0.879384
     12          1           0       -0.404179    3.669568   -0.000417
     13          1           0        1.118272    3.383277   -0.879608
     14          1           0       -1.885177    1.704047   -0.000161
 ---------------------------------------------------------------------
 Rotational constants (GHZ):           1.4419406           0.9326611           0.5683302
 Standard basis: 6-31G(d,p) (6D, 7F)
 There are   174 symmetry adapted cartesian basis functions of A   symmetry.
 There are   174 symmetry adapted basis functions of A   symmetry.
   174 basis functions,   332 primitive gaussians,   174 cartesian basis functions
    39 alpha electrons       39 beta electrons
       nuclear repulsion energy       527.2593239173 Hartrees.
 NAtoms=   14 NActive=   14 NUniq=   14 SFac= 1.00D+00 NAtFMM=   60 NAOKFM=F Big=F
 Integral buffers will be    131072 words long.
 Raffenetti 2 integral format.
 Two-electron integral symmetry is turned on.
 Nuclear repulsion after empirical dispersion term =      527.2313570110 Hartrees.
 One-electron integrals computed using PRISM.
 NBasis=   174 RedAO= T EigKep=  8.46D-04  NBF=   174
 NBsUse=   174 1.00D-06 EigRej= -1.00D+00 NBFU=   174
 Initial guess from the checkpoint file:  "pyrmd4_conf-1.chk"
 B after Tr=     0.000000    0.000000   -0.000000
         Rot=    1.000000    0.000001    0.000001    0.000056 Ang=   0.01 deg.
 Requested convergence on RMS density matrix=1.00D-08 within 128 cycles.
 Requested convergence on MAX density matrix=1.00D-06.
 Requested convergence on             energy=1.00D-06.
 No special actions if energy rises.
 SCF Done:  E(RB3LYP) =  -855.511157900     A.U. after   10 cycles
            NFock= 10  Conv=0.74D-08     -V/T= 2.0060
 Calling FoFJK, ICntrl=      2127 FMM=F ISym2X=0 I1Cent= 0 IOpClX= 0 NMat=1 NMatS=1 NMatT=0.
 ***** Axes restored to original set *****
 -------------------------------------------------------------------
 Center     Atomic                   Forces (Hartrees/Bohr)
 Number     Number              X              Y              Z
 -------------------------------------------------------------------
      1       17          -0.000038593   -0.000253328   -0.000192123
      2        6           0.000344066    0.000901163    0.000289338
      3        7           0.000087762   -0.000532404   -0.000675967
      4        6          -0.000213779    0.000450597    0.000539803
      5        6          -0.000043603   -0.000253337    0.000075634
      6        7          -0.000017862   -0.000040594   -0.000079722
      7        7           0.000129507    0.000260996    0.000068102
      8        6           0.000008392   -0.000457545   -0.000441734
      9        6           0.000063238    0.000205458    0.000078260
     10        6          -0.000279742   -0.000155511    0.000400761
     11        1          -0.000008219   -0.000061812   -0.000027035
     12        1          -0.000034952   -0.000048177    0.000020413
     13        1          -0.000021411   -0.000055709   -0.000033296
     14        1           0.000025196    0.000040203   -0.000022434
 -------------------------------------------------------------------
 Cartesian Forces:  Max     0.000901163 RMS     0.000280754

 GradGradGradGradGradGradGradGradGradGradGradGradGradGradGradGradGradGrad
 Berny optimization.
 Using GEDIIS/GDIIS optimizer.
 FormGI is forming the generalized inverse of G from B-inverse, IUseBI=4.
 Internal  Forces:  Max     0.000545965 RMS     0.000145563
 Search for a local minimum.
 Step number   4 out of a maximum of   68
 All quantities printed in internal units (Hartrees-Bohrs-Radians)
 Mixed Optimization -- En-DIIS/RFO-DIIS
 Swapping is turned off.
 Update second derivatives using D2CorX and points    1    2    3    4
 DE= -2.48D-05 DEPred=-2.16D-05 R= 1.15D+00
 TightC=F SS=  1.41D+00  RLast= 1.45D-02 DXNew= 6.7619D-01 4.3366D-02
 Trust test= 1.15D+00 RLast= 1.45D-02 DXMaxT set to 4.02D-01
 ITU=  1  1  1  0
     Eigenvalues ---    0.00571   0.01425   0.02106   0.02125   0.02147
     Eigenvalues ---    0.02198   0.02238   0.02256   0.04888   0.05107
     Eigenvalues ---    0.07045   0.07369   0.15831   0.16000   0.16000
     Eigenvalues ---    0.16024   0.17470   0.23892   0.25000   0.25001
     Eigenvalues ---    0.25161   0.28443   0.29273   0.30983   0.34739
     Eigenvalues ---    0.34757   0.34932   0.36036   0.39731   0.43303
     Eigenvalues ---    0.45431   0.48035   0.50912   0.51552   0.58757
     Eigenvalues ---    1.29093
 En-DIIS/RFO-DIIS/Sim-DIIS IScMMF=       -3 using points:     4    3
 RFO step:  Lambda=-5.49627401D-06.
 DidBck=F Rises=F RFO-DIIS coefs:    1.10505   -0.10505
 Iteration  1 RMS(Cart)=  0.00138017 RMS(Int)=  0.00000273
 Iteration  2 RMS(Cart)=  0.00000339 RMS(Int)=  0.00000061
 Iteration  3 RMS(Cart)=  0.00000000 RMS(Int)=  0.00000061
 Variable       Old X    -DE/DX   Delta X   Delta X   Delta X     New X
                                 (Linear)    (Quad)   (Total)
    R1        3.29815   0.00030   0.00089   0.00141   0.00230   3.30045
    R2        2.49894  -0.00037  -0.00043  -0.00096  -0.00139   2.49754
    R3        2.63483   0.00025   0.00012   0.00057   0.00069   2.63552
    R4        2.53459   0.00055   0.00034   0.00121   0.00155   2.53614
    R5        2.73680  -0.00029   0.00011  -0.00069  -0.00059   2.73621
    R6        2.51800  -0.00006  -0.00028  -0.00032  -0.00060   2.51740
    R7        2.19332  -0.00005  -0.00004  -0.00002  -0.00005   2.19327
    R8        2.54317   0.00024   0.00008   0.00061   0.00069   2.54386
    R9        2.83460   0.00002  -0.00006  -0.00002  -0.00008   2.83451
   R10        2.64100  -0.00036   0.00013  -0.00084  -0.00071   2.64029
   R11        2.06754  -0.00003   0.00003  -0.00006  -0.00003   2.06752
   R12        2.06242   0.00006  -0.00013   0.00018   0.00005   2.06247
   R13        2.06754  -0.00003   0.00003  -0.00006  -0.00003   2.06752
   R14        2.04536  -0.00005  -0.00005  -0.00013  -0.00018   2.04518
    A1        2.04267   0.00007   0.00029   0.00036   0.00065   2.04332
    A2        2.08633  -0.00033  -0.00049  -0.00151  -0.00200   2.08433
    A3        2.15418   0.00026   0.00020   0.00115   0.00135   2.15553
    A4        2.00584  -0.00025   0.00007  -0.00088  -0.00081   2.00503
    A5        2.02414  -0.00016   0.00002  -0.00059  -0.00058   2.02356
    A6        2.22843   0.00006  -0.00025   0.00010  -0.00015   2.22828
    A7        2.03062   0.00009   0.00024   0.00049   0.00073   2.03134
    A8        2.03082  -0.00009   0.00025   0.00001   0.00026   2.03108
    A9        2.03849  -0.00010   0.00001  -0.00026  -0.00025   2.03825
   A10        2.11106   0.00008  -0.00009   0.00017   0.00008   2.11114
   A11        2.13363   0.00002   0.00008   0.00010   0.00017   2.13380
   A12        1.91580   0.00001   0.00012   0.00009   0.00021   1.91601
   A13        1.95166   0.00002  -0.00002   0.00006   0.00004   1.95171
   A14        1.91580   0.00001   0.00012   0.00009   0.00022   1.91601
   A15        1.90556  -0.00004   0.00003  -0.00031  -0.00028   1.90528
   A16        1.86750   0.00004  -0.00030   0.00039   0.00009   1.86759
   A17        1.90556  -0.00004   0.00003  -0.00032  -0.00029   1.90527
   A18        2.03604  -0.00006  -0.00018  -0.00055  -0.00072   2.03532
   A19        2.11949   0.00001   0.00009   0.00012   0.00021   2.11970
   A20        2.12766   0.00005   0.00009   0.00043   0.00051   2.12817
   A21        3.13526   0.00017  -0.00049   0.00430   0.00382   3.13908
   A22        3.14330   0.00001  -0.00000   0.00029   0.00028   3.14358
    D1       -3.14145  -0.00001   0.00002  -0.00065  -0.00064   3.14110
    D2        0.00009  -0.00001   0.00001  -0.00042  -0.00041  -0.00032
    D3       -3.14151  -0.00000   0.00001  -0.00024  -0.00023   3.14144
    D4        0.00002   0.00000   0.00000   0.00001   0.00002   0.00003
    D5        0.00013  -0.00001   0.00002  -0.00048  -0.00046  -0.00032
    D6       -3.14152  -0.00000   0.00001  -0.00023  -0.00022   3.14145
    D7       -3.14071  -0.00006   0.00013  -0.00292  -0.00279   3.13969
    D8       -0.00037   0.00003  -0.00004   0.00153   0.00149   0.00112
    D9        0.00037  -0.00003   0.00004  -0.00155  -0.00151  -0.00114
   D10        3.14071   0.00006  -0.00013   0.00291   0.00278  -3.13969
   D11        3.14145   0.00001  -0.00001   0.00060   0.00058  -3.14115
   D12       -0.00010   0.00001  -0.00001   0.00045   0.00044   0.00034
   D13       -1.02404  -0.00003   0.00011  -0.00040  -0.00028  -1.02432
   D14        3.14154  -0.00000   0.00000  -0.00011  -0.00011   3.14144
   D15        1.02393   0.00003  -0.00011   0.00019   0.00008   1.02401
   D16        2.11751  -0.00003   0.00011  -0.00024  -0.00013   2.11738
   D17       -0.00009   0.00000  -0.00000   0.00004   0.00004  -0.00005
   D18       -2.11770   0.00003  -0.00011   0.00034   0.00023  -2.11747
   D19       -0.00013   0.00001  -0.00002   0.00046   0.00044   0.00032
   D20        3.14153   0.00000  -0.00001   0.00021   0.00020  -3.14146
   D21        3.14151   0.00001  -0.00001   0.00030   0.00029  -3.14139
   D22       -0.00002   0.00000  -0.00001   0.00005   0.00005   0.00002
         Item               Value     Threshold  Converged?
 Maximum Force            0.000546     0.000450     NO 
 RMS     Force            0.000146     0.000300     YES
 Maximum Displacement     0.004950     0.001800     NO 
 RMS     Displacement     0.001379     0.001200     NO 
 Predicted change in Energy=-2.748211D-06
 GradGradGradGradGradGradGradGradGradGradGradGradGradGradGradGradGradGrad

                          Input orientation:                          
 ---------------------------------------------------------------------
 Center     Atomic      Atomic             Coordinates (Angstroms)
 Number     Number       Type             X           Y           Z
 ---------------------------------------------------------------------
      1         17           0        0.643594   -1.661772   -3.064227
      2          6           0        0.458471   -0.665057   -1.642036
      3          7           0        1.057306    0.513101   -1.651073
      4          6           0        0.885737    1.242236   -0.537489
      5          6           0        1.534292    2.536708   -0.521772
      6          7           0        2.052460    3.575130   -0.506478
      7          7           0        0.193476    0.913591    0.552189
      8          6           0       -0.407482   -0.290893    0.538155
      9          6           0       -1.190001   -0.670104    1.760344
     10          6           0       -0.298271   -1.135770   -0.569261
     11          1           0       -0.535546   -0.659496    2.637038
     12          1           0       -1.641671   -1.658826    1.662351
     13          1           0       -1.977230    0.068201    1.939772
     14          1           0       -0.774835   -2.107049   -0.597513
 ---------------------------------------------------------------------
                    Distance matrix (angstroms):
                    1          2          3          4          5
     1  Cl   0.000000
     2  C    1.746522   0.000000
     3  N    2.626449   1.321643   0.000000
     4  C    3.856980   2.245071   1.342066   0.000000
     5  C    4.988452   3.558606   2.365971   1.447939   0.000000
     6  N    5.996009   4.670062   3.417082   2.608563   1.160626
     7  N    4.462461   2.716058   2.400199   1.332152   2.363406
     8  C    3.995150   2.375522   2.754039   2.275941   3.590161
     9  C    5.255660   3.780698   4.253014   3.639474   4.786801
    10  C    2.718206   1.394660   2.393049   2.656651   4.104586
    11  H    5.907568   4.393015   4.722294   3.964121   4.947527
[...]
         NMat0=    1 NMatS0=      1 NMatT0=    0 NMatD0=    1 NMtDS0=    0 NMtDT0=    0
 Symmetry not used in FoFCou.
   1 Symmetry operations used in ECPInt.
 ECPInt:  NShTT=    8256 NPrTT=   27042 LenC2=    8257 LenP2D=   27042.
 LDataN:  DoStor=T MaxTD1= 7 Len=  274
 FoFJK:  IHMeth= 1 ICntrl=    6127 DoSepK=F KAlg= 0 I1Cent=           0 FoldK=F
 IRaf=         1 NMat=       1 IRICut=       1 DoRegI=T DoRafI=F ISym2E= 0 IDoP0=0 IntGTp=1.
          There are     3 degrees of freedom in the 1st order CPHF.  IDoFFX=0 NUNeed=     3.
      3 vectors produced by pass  0 Test12= 3.91D-13 3.33D-08 XBig12= 6.41D+00 5.55D-01.
 AX will form     3 AO Fock derivatives at one time.
      3 vectors produced by pass  1 Test12= 3.91D-13 3.33D-08 XBig12= 5.72D-02 9.10D-02.
      3 vectors produced by pass  2 Test12= 3.91D-13 3.33D-08 XBig12= 1.26D-03 1.45D-02.
      3 vectors produced by pass  3 Test12= 3.91D-13 3.33D-08 XBig12= 2.46D-05 1.54D-03.
      3 vectors produced by pass  4 Test12= 3.91D-13 3.33D-08 XBig12= 3.74D-07 1.58D-04.
      3 vectors produced by pass  5 Test12= 3.91D-13 3.33D-08 XBig12= 7.21D-09 2.31D-05.
      3 vectors produced by pass  6 Test12= 3.91D-13 3.33D-08 XBig12= 1.42D-10 3.27D-06.
      3 vectors produced by pass  7 Test12= 3.91D-13 3.33D-08 XBig12= 1.77D-12 3.83D-07.
      2 vectors produced by pass  8 Test12= 3.91D-13 3.33D-08 XBig12= 7.75D-14 8.27D-08.
 InvSVY:  IOpt=1 It=  1 EMax= 4.44D-16
 Solved reduced A of dimension    26 with     3 vectors.
 Calculating GIAO nuclear magnetic shielding tensors.
 SCF GIAO Magnetic shielding tensor (ppm):
      1  Cl   Isotropic =   571.2500   Anisotropy =   606.6040
   XX=   817.4596   YX=   317.3541   ZX=    -0.0293
   XY=   235.0462   YY=   493.4160   ZY=     0.0043
   XZ=     0.0186   YZ=     0.0681   ZZ=   402.8745
   Eigenvalues:   335.2229   402.8745   975.6527
      2  C    Isotropic =    -9.1886   Anisotropy =   158.0265
   XX=  -102.6181   YX=   -64.5404   ZX=    -0.0185
   XY=   -21.5464   YY=   -21.1101   ZY=     0.0060
   XZ=    -0.0325   YZ=    -0.0081   ZZ=    96.1624
   Eigenvalues:  -121.1399    -2.5882    96.1624
      3  N    Isotropic =  -106.6615   Anisotropy =   526.1185
   XX=  -367.9931   YX=    -0.5592   ZX=    -0.1090
   XY=    -0.1566   YY=  -196.0754   ZY=     0.0026
   XZ=    -0.0932   YZ=    -0.0438   ZZ=   244.0842
   Eigenvalues:  -367.9939  -196.0747   244.0842
      4  C    Isotropic =    17.4037   Anisotropy =   140.8689
   XX=   -56.7467   YX=    66.2371   ZX=    -0.0120
   XY=    75.3676   YY=    -2.3585   ZY=     0.0102
   XZ=    -0.0244   YZ=     0.0200   ZZ=   111.3163
   Eigenvalues:  -105.3978    46.2926   111.3163
      5  C    Isotropic =    52.9864   Anisotropy =   362.6509
   XX=   173.0590   YX=  -169.0877   ZX=    -0.1393
   XY=  -168.4098   YY=    60.7568   ZY=     0.1006
   XZ=    -0.1669   YZ=     0.1206   ZZ=   -74.8565
   Eigenvalues:   -74.8566   -60.9378   294.7537
      6  N    Isotropic =   -85.0073   Anisotropy =   515.3074
   XX=    75.2639   YX=  -251.3424   ZX=    -0.1900
   XY=  -253.1971   YY=   -88.7222   ZY=     0.1405
   XZ=    -0.1025   YZ=     0.0740   ZZ=  -241.5635
   Eigenvalues:  -271.9892  -241.5636   258.5310
      7  N    Isotropic =  -120.8592   Anisotropy =   582.0747
   XX=  -242.8238   YX=    54.0064   ZX=    -0.0341
   XY=    67.9050   YY=  -386.9444   ZY=     0.1199
   XZ=     0.0178   YZ=     0.1221   ZZ=   267.1906
   Eigenvalues:  -409.2678  -220.5004   267.1906
      8  C    Isotropic =   -13.3928   Anisotropy =   239.3707
   XX=   -56.2569   YX=    29.4966   ZX=    -0.0231
   XY=     7.1893   YY=  -130.1093   ZY=     0.0346
   XZ=    -0.0227   YZ=     0.0489   ZZ=   146.1877
   Eigenvalues:  -134.4142   -51.9519   146.1877
      9  C    Isotropic =   159.7497   Anisotropy =    42.1883
   XX=   150.4698   YX=     4.4812   ZX=     0.0005
   XY=     1.2926   YY=   187.6524   ZY=    -0.0051
   XZ=    -0.0015   YZ=    -0.0030   ZZ=   141.1270
   Eigenvalues:   141.1270   150.2470   187.8753
     10  C    Isotropic =    42.7374   Anisotropy =   157.3210
   XX=   -27.8416   YX=    63.6206   ZX=    -0.0218
   XY=    59.5601   YY=     8.4357   ZY=     0.0157
   XZ=    -0.0202   YZ=     0.0158   ZZ=   147.6181
   Eigenvalues:   -73.9087    54.5028   147.6181
     11  H    Isotropic =    29.1651   Anisotropy =     7.5025
   XX=    29.2029   YX=     0.7221   ZX=     2.8111
   XY=     1.9432   YY=    29.2655   ZY=     2.3208
   XZ=     3.4982   YZ=     3.5337   ZZ=    29.0270
   Eigenvalues:    25.4197    27.9089    34.1668
     12  H    Isotropic =    29.6023   Anisotropy =     6.5725
   XX=    32.1910   YX=    -0.7772   ZX=     0.0011
   XY=    -3.3965   YY=    31.5552   ZY=    -0.0012
   XZ=     0.0012   YZ=    -0.0006   ZZ=    25.0608
   Eigenvalues:    25.0608    29.7622    33.9840
     13  H    Isotropic =    29.1651   Anisotropy =     7.5021
   XX=    29.2048   YX=     0.7224   ZX=    -2.8110
   XY=     1.9432   YY=    29.2641   ZY=    -2.3204
   XZ=    -3.4984   YZ=    -3.5329   ZZ=    29.0264
   Eigenvalues:    25.4200    27.9088    34.1665
     14  H    Isotropic =    23.9989   Anisotropy =    10.9570
   XX=    23.2011   YX=     5.0577   ZX=     0.0000
   XY=     5.3445   YY=    27.9648   ZY=    -0.0003
   XZ=    -0.0003   YZ=     0.0001   ZZ=    20.8307
   Eigenvalues:    19.8623    20.8307    31.3035
 End of Minotr F.D. properties file   721 does not exist.
 End of Minotr F.D. properties file   722 does not exist.
 End of Minotr F.D. properties file   788 does not exist.

 **********************************************************************

            Population analysis using the SCF Density.

 **********************************************************************

 Orbital symmetries:
       Occupied  (A) (A) (A) (A) (A) (A) (A) (A) (A) (A) (A) (A)
                 (A) (A) (A) (A) (A) (A) (A) (A) (A) (A) (A) (A)
                 (A) (A) (A) (A) (A) (A) (A) (A) (A) (A) (A) (A)
                 (A) (A) (A)
       Virtual   (A) (A) (A) (A) (A) (A) (A) (A) (A) (A) (A) (A)
                 (A) (A) (A) (A) (A) (A) (A) (A) (A) (A) (A) (A)
                 (A) (A) (A) (A) (A) (A) (A) (A) (A) (A) (A) (A)
                 (A) (A) (A) (A) (A) (A) (A) (A) (A) (A) (A) (A)
                 (A) (A) (A) (A) (A) (A) (A) (A) (A) (A) (A) (A)
                 (A) (A) (A) (A) (A) (A) (A) (A) (A) (A) (A) (A)
                 (A) (A) (A) (A) (A) (A) (A) (A) (A) (A) (A) (A)
                 (A) (A) (A) (A) (A) (A) (A) (A) (A) (A) (A) (A)
                 (A) (A) (A) (A) (A) (A) (A) (A) (A) (A) (A) (A)
                 (A) (A) (A) (A) (A) (A) (A) (A) (A) (A) (A) (A)
                 (A) (A) (A) (A) (A) (A) (A) (A) (A) (A) (A) (A)
                 (A) (A) (A) (A) (A) (A) (A) (A) (A) (A) (A) (A)
                 (A) (A) (A) (A) (A) (A) (A) (A) (A) (A) (A) (A)
                 (A) (A) (A) (A) (A) (A) (A) (A) (A) (A) (A) (A)
                 (A) (A) (A) (A) (A) (A) (A) (A) (A) (A) (A) (A)
                 (A) (A) (A) (A) (A) (A) (A) (A) (A) (A) (A) (A)
                 (A) (A) (A) (A) (A) (A) (A) (A) (A) (A) (A) (A)
                 (A) (A) (A) (A) (A) (A) (A) (A) (A) (A) (A) (A)
                 (A) (A) (A) (A) (A) (A) (A) (A) (A) (A) (A) (A)
                 (A) (A) (A) (A) (A) (A) (A) (A) (A) (A) (A) (A)
                 (A) (A) (A) (A) (A) (A) (A) (A) (A) (A) (A) (A)
                 (A) (A) (A) (A) (A) (A) (A) (A) (A) (A) (A) (A)
                 (A) (A) (A) (A) (A) (A) (A) (A) (A) (A) (A) (A)
                 (A) (A) (A) (A) (A) (A) (A) (A) (A) (A) (A) (A)
                 (A) (A) (A) (A) (A) (A) (A) (A) (A) (A) (A) (A)
                 (A)
 The electronic state is 1-A.
 Alpha  occ. eigenvalues -- -102.67555 -14.80269 -14.79663 -14.77571 -10.68526
 Alpha  occ. eigenvalues --  -10.68137 -10.64260 -10.59876 -10.59435 -10.56860
 Alpha  occ. eigenvalues --   -9.83816  -7.56013  -7.55504  -7.55460  -1.15349
 Alpha  occ. eigenvalues --   -1.05578  -1.02851  -0.98542  -0.92780  -0.85363
 Alpha  occ. eigenvalues --   -0.81525  -0.73495  -0.65724  -0.64608  -0.59568
 Alpha  occ. eigenvalues --   -0.56903  -0.53149  -0.51462  -0.50760  -0.48868
 Alpha  occ. eigenvalues --   -0.46853  -0.46241  -0.42403  -0.42381  -0.42220
 Alpha  occ. eigenvalues --   -0.40965  -0.38752  -0.36759  -0.35781
 Alpha virt. eigenvalues --   -0.06031  -0.04371   0.04308   0.05661   0.06762
 Alpha virt. eigenvalues --    0.08545   0.08603   0.09983   0.12457   0.13297
 Alpha virt. eigenvalues --    0.14001   0.14824   0.17391   0.19050   0.19300
 Alpha virt. eigenvalues --    0.20820   0.21095   0.22178   0.24374   0.26077
 Alpha virt. eigenvalues --    0.27045   0.27282   0.28087   0.29697   0.30274
 Alpha virt. eigenvalues --    0.30589   0.32554   0.33464   0.34105   0.35193
 Alpha virt. eigenvalues --    0.35667   0.37061   0.38355   0.38711   0.39237
 Alpha virt. eigenvalues --    0.40548   0.41646   0.43463   0.44115   0.44916
 Alpha virt. eigenvalues --    0.45669   0.46592   0.46734   0.48115   0.48354
 Alpha virt. eigenvalues --    0.48943   0.49926   0.51831   0.55676   0.55939
 Alpha virt. eigenvalues --    0.56554   0.56936   0.57222   0.58953   0.60987
 Alpha virt. eigenvalues --    0.62461   0.63978   0.64694   0.65510   0.66537
 Alpha virt. eigenvalues --    0.67036   0.69039   0.72288   0.73251   0.74042
 Alpha virt. eigenvalues --    0.74568   0.75355   0.78299   0.78539   0.79675
 Alpha virt. eigenvalues --    0.83788   0.84994   0.85340   0.86329   0.89492
 Alpha virt. eigenvalues --    0.92831   0.96398   0.99356   1.01092   1.03353
 Alpha virt. eigenvalues --    1.06503   1.08526   1.08550   1.11464   1.13164
 Alpha virt. eigenvalues --    1.14912   1.16007   1.18822   1.20059   1.24637
 Alpha virt. eigenvalues --    1.28084   1.29036   1.29752   1.31674   1.32254
 Alpha virt. eigenvalues --    1.34635   1.37197   1.40974   1.42133   1.42557
 Alpha virt. eigenvalues --    1.42666   1.44446   1.46000   1.46376   1.49793
 Alpha virt. eigenvalues --    1.52854   1.53079   1.54231   1.54566   1.55769
 Alpha virt. eigenvalues --    1.56302   1.57866   1.61667   1.63519   1.65162
 Alpha virt. eigenvalues --    1.66854   1.68046   1.69859   1.72593   1.76042
 Alpha virt. eigenvalues --    1.78512   1.78676   1.80840   1.82573   1.83472
 Alpha virt. eigenvalues --    1.83888   1.86125   1.88047   1.90027   1.90466
 Alpha virt. eigenvalues --    1.94701   1.95059   1.97476   1.99005   2.03141
 Alpha virt. eigenvalues --    2.04440   2.06359   2.06803   2.09311   2.10112
 Alpha virt. eigenvalues --    2.11050   2.13368   2.15381   2.15925   2.17463
 Alpha virt. eigenvalues --    2.20826   2.21168   2.23932   2.25020   2.26486
 Alpha virt. eigenvalues --    2.28437   2.29844   2.30165   2.32659   2.35129
 Alpha virt. eigenvalues --    2.35391   2.37328   2.37714   2.40538   2.43542
 Alpha virt. eigenvalues --    2.45575   2.47611   2.50246   2.54516   2.55472
 Alpha virt. eigenvalues --    2.55725   2.58080   2.63738   2.65301   2.65325
 Alpha virt. eigenvalues --    2.66226   2.68331   2.72751   2.73069   2.74443
 Alpha virt. eigenvalues --    2.78883   2.82045   2.84154   2.85958   2.88416
 Alpha virt. eigenvalues --    2.89190   2.90371   2.92250   2.94979   2.96084
 Alpha virt. eigenvalues --    2.97898   2.99490   3.00081   3.01287   3.03391
 Alpha virt. eigenvalues --    3.03796   3.06267   3.07894   3.09261   3.10183
 Alpha virt. eigenvalues --    3.12495   3.13368   3.14965   3.16638   3.17768
 Alpha virt. eigenvalues --    3.18663   3.20528   3.21466   3.26019   3.26984
 Alpha virt. eigenvalues --    3.27022   3.28139   3.29358   3.29599   3.31995
 Alpha virt. eigenvalues --    3.36099   3.36894   3.37329   3.38652   3.39401
 Alpha virt. eigenvalues --    3.40164   3.44792   3.51251   3.54922   3.57000
 Alpha virt. eigenvalues --    3.60696   3.65883   3.68968   3.71350   3.73086
 Alpha virt. eigenvalues --    3.75014   3.78333   3.78923   3.82804   3.88326
 Alpha virt. eigenvalues --    3.88509   3.90617   3.92900   3.96450   3.96930
 Alpha virt. eigenvalues --    3.99039   4.01266   4.02135   4.09884   4.10763
 Alpha virt. eigenvalues --    4.13912   4.15611   4.25484   4.27180   4.33118
 Alpha virt. eigenvalues --    4.33922   4.35882   4.38550   4.41173   4.46900
 Alpha virt. eigenvalues --    4.50386   4.53610   4.57723   4.59615   4.64006
 Alpha virt. eigenvalues --    4.64048   4.69576   4.70356   4.74875   4.76571
 Alpha virt. eigenvalues --    4.77715   4.87575   4.91987   4.93219   4.97817
 Alpha virt. eigenvalues --    4.99118   5.04742   5.05276   5.08114   5.13145
 Alpha virt. eigenvalues --    5.13642   5.23222   5.27950   5.28700   5.34339
 Alpha virt. eigenvalues --    5.36502   5.38695   5.41311   5.51081   5.53983
 Alpha virt. eigenvalues --    5.61855   5.62247   5.67179   5.73319   5.83004
 Alpha virt. eigenvalues --    5.93869   6.12830   6.31716  10.78824  10.84952
 Alpha virt. eigenvalues --   11.38530  22.46392  22.57781  22.79337  23.06568
 Alpha virt. eigenvalues --   23.32656  23.58991  25.92254  32.19052  32.46519
 Alpha virt. eigenvalues --   32.77940
          Condensed to atoms (all electrons):
               1          2          3          4          5          6
     1  Cl  16.796457   0.382926  -0.078967   0.001394  -0.001904   0.000000
     2  C    0.382926   4.691849   0.499295  -0.062488  -0.008127   0.000018
     3  N   -0.078967   0.499295   6.503267   0.471861  -0.071377  -0.001879
     4  C    0.001394  -0.062488   0.471861   4.688777   0.226916  -0.027723
     5  C   -0.001904  -0.008127  -0.071377   0.226916   5.211117   0.905956
     6  N    0.000000   0.000018  -0.001879  -0.027723   0.905956   6.106162
     7  N   -0.000790  -0.022968  -0.058560   0.516825  -0.072372  -0.001779
     8  C    0.011757  -0.042893  -0.016503  -0.084937  -0.011625  -0.000241
     9  C   -0.000306   0.012032  -0.000794   0.001709  -0.000745  -0.000012
    10  C   -0.078365   0.424179  -0.037863  -0.042783   0.007203  -0.000103
    11  H    0.000014  -0.000821   0.000159  -0.000262  -0.000084  -0.000002
    12  H   -0.000018   0.004646   0.000097  -0.000636  -0.000055  -0.000000
    13  H    0.000014  -0.000822   0.000159  -0.000259  -0.000083  -0.000002
    14  H    0.001791  -0.023984   0.004295   0.001560   0.000353  -0.000001
               7          8          9         10         11         12
     1  Cl  -0.000790   0.011757  -0.000306  -0.078365   0.000014  -0.000018
     2  C   -0.022968  -0.042893   0.012032   0.424179  -0.000821   0.004646
     3  N   -0.058560  -0.016503  -0.000794  -0.037863   0.000159   0.000097
     4  C    0.516825  -0.084937   0.001709  -0.042783  -0.000262  -0.000636
     5  C   -0.072372  -0.011625  -0.000745   0.007203  -0.000084  -0.000055
     6  N   -0.001779  -0.000241  -0.000012  -0.000103  -0.000002  -0.000000
     7  N    6.525514   0.452859  -0.043623  -0.058302  -0.000913   0.004781
     8  C    0.452859   4.895635   0.255821   0.486083  -0.027660  -0.077355
     9  C   -0.043623   0.255821   5.045939  -0.067224   0.401371   0.447989
    10  C   -0.058302   0.486083  -0.067224   5.202872   0.002321  -0.004118
    11  H   -0.000913  -0.027660   0.401371   0.002321   0.498502  -0.023206
    12  H    0.004781  -0.077355   0.447989  -0.004118  -0.023206   0.529227
    13  H   -0.000912  -0.027669   0.401373   0.002323  -0.021912  -0.023205
    14  H    0.004065  -0.016493  -0.006286   0.383470   0.000107  -0.001996
              13         14
     1  Cl   0.000014   0.001791
     2  C   -0.000822  -0.023984
     3  N    0.000159   0.004295
     4  C   -0.000259   0.001560
     5  C   -0.000083   0.000353
     6  N   -0.000002  -0.000001
     7  N   -0.000912   0.004065
     8  C   -0.027669  -0.016493
     9  C    0.401373  -0.006286
    10  C    0.002323   0.383470
    11  H   -0.021912   0.000107
    12  H   -0.023205  -0.001996
    13  H    0.498498   0.000107
    14  H    0.000107   0.478547
 Mulliken charges:
               1
     1  Cl  -0.034002
     2  C    0.147159
     3  N   -0.213191
     4  C    0.310047
     5  C   -0.185173
     6  N    0.019607
     7  N   -0.243824
     8  C    0.203221
     9  C   -0.447243
    10  C   -0.219694
    11  H    0.172385
    12  H    0.143850
    13  H    0.172391
    14  H    0.174468
 Sum of Mulliken charges =  -0.00000
 Mulliken charges with hydrogens summed into heavy atoms:
               1
     1  Cl  -0.034002
     2  C    0.147159
     3  N   -0.213191
     4  C    0.310047
     5  C   -0.185173
     6  N    0.019607
     7  N   -0.243824
     8  C    0.203221
     9  C    0.041383
    10  C   -0.045226
 Electronic spatial extent (au):  <R**2>=           1811.5609
 Charge=              0.0000 electrons
 Dipole moment (field-independent basis, Debye):
    X=             -3.5742    Y=              5.0120    Z=              0.0008  Tot=              6.1559
 Quadrupole moment (field-independent basis, Debye-Ang):
   XX=            -75.7519   YY=            -62.6984   ZZ=            -63.1657
   XY=              5.1460   XZ=              0.0032   YZ=             -0.0023
 Traceless Quadrupole moment (field-independent basis, Debye-Ang):
   XX=             -8.5465   YY=              4.5069   ZZ=              4.0396
   XY=              5.1460   XZ=              0.0032   YZ=             -0.0023
 Octapole moment (field-independent basis, Debye-Ang**2):
  XXX=            -69.7102  YYY=             38.6868  ZZZ=              0.0002  XYY=            -22.5342
  XXY=             25.6349  XXZ=              0.0085  XZZ=             -1.8502  YZZ=             -0.2915
  YYZ=              0.0017  XYZ=             -0.0066
 Hexadecapole moment (field-independent basis, Debye-Ang**3):
 XXXX=          -1506.2349 YYYY=           -974.2316 ZZZZ=            -72.1735 XXXY=            124.0304
 XXXZ=              0.0328 YYYX=             69.0335 YYYZ=             -0.0082 ZZZX=              0.0005
 ZZZY=              0.0007 XXYY=           -442.5394 XXZZ=           -237.5956 YYZZ=           -176.9788
 XXYZ=             -0.0238 YYXZ=              0.0140 ZZXY=              9.7446
 N-N= 5.272293211513D+02 E-N=-3.067596409025D+03  KE= 8.529735887573D+02
 Unable to Open any file for archive entry.
 1\1\GINC-COMPUTE-0-1\SP\RM062X\def2TZVP\C6H4Cl1N3\ZTAN64\14-Aug-2024\0
 \\# M062X/def2tzvp int=(grid=ultrafine) nmr=giao guess=read geom=check
 \\pyrmd4.xyz\\0,1\Cl,0,0.6430237523,-1.6617073634,-3.0642817367\C,0,0.
 4585665347,-0.6648507188,-1.6419862115\N,0,1.0580098483,0.5128711547,-
 1.6509550341\C,0,0.8873214107,1.2414624004,-0.5366249606\C,0,1.5340748
 603,2.536685964,-0.5221350234\N,0,2.0508946481,3.5757831718,-0.5070005
 877\N,0,0.1942220978,0.9132717637,0.5526254841\C,0,-0.4073232061,-0.29
 10514204,0.5381674513\C,0,-1.1900878847,-0.6699930041,1.7603199005\C,0
 ,-0.2982981306,-1.1356987328,-0.5692087992\H,0,-0.535676242,-0.6599162
 92,2.6370320101\H,0,-1.6421805331,-1.6585545282,1.6622052894\H,0,-1.97
 71210984,0.0685126008,1.9396625999\H,0,-0.7751260574,-2.1068149956,-0.
 597820382\\Version=ES64L-G16RevC.01\State=1-A\HF=-855.470119\RMSD=3.60
 1e-09\Dipole=-1.3013793,-1.926102,0.6798629\Quadrupole=2.2666881,-5.73
 10845,3.4643964,-3.0418778,-1.6499667,-2.8250721\PG=C01 [X(C6H4Cl1N3)]
 \\@
 The archive entry for this job was punched.


 YE HAVE SOWN MUCH, AND BRING IN LITTLE.
 YE EAT, BUT YE HAVE NOT ENOUGH.
 YE DRINK, BUT YE ARE NOT FILLED WITH DRINK.
 YE CLOTHE YOU, BUT THERE IS NONE WARM.
 AND HE THAT EARNETH WAGES EARNETH WAGES TO PUT
 IT INTO A BAG WITH HOLES.
                                     HAGGAI I,6
 Job cpu time:       0 days  0 hours 15 minutes 39.8 seconds.
 Elapsed time:       0 days  0 hours  1 minutes  2.6 seconds.
 File lengths (MBytes):  RWF=     70 Int=      0 D2E=      0 Chk=     11 Scr=      1
 Normal termination of Gaussian 16 at Wed Aug 14 20:29:36 2024.
 
 
-----Kestrel cluster job statistics-----
Time info:

real	4m51.642s
user	75m31.246s
sys	0m12.009s
 
Disk space usage:
11M	/scratch/362993.kestrel.chem.wisc.edu
