 Entering Gaussian System, Link 0=/share/apps/gaussian/g16/g16
 Initial command:
 /share/apps/gaussian/g16/l1.exe "/scratch/363659.kestrel.chem.wisc.edu/Gau-63726.inp" -scrdir="/scratch/363659.kestrel.chem.wisc.edu/"
 Entering Link 1 = /share/apps/gaussian/g16/l1.exe PID=     63727.
  
 Copyright (c) 1988-2019, Gaussian, Inc.  All Rights Reserved.
  
 This is part of the Gaussian(R) 16 program.  It is based on
 the Gaussian(R) 09 system (copyright 2009, Gaussian, Inc.),
 the Gaussian(R) 03 system (copyright 2003, Gaussian, Inc.),
 the Gaussian(R) 98 system (copyright 1998, Gaussian, Inc.),
 the Gaussian(R) 94 system (copyright 1995, Gaussian, Inc.),
 the Gaussian 92(TM) system (copyright 1992, Gaussian, Inc.),
 the Gaussian 90(TM) system (copyright 1990, Gaussian, Inc.),
 the Gaussian 88(TM) system (copyright 1988, Gaussian, Inc.),
 the Gaussian 86(TM) system (copyright 1986, Carnegie Mellon
 University), and the Gaussian 82(TM) system (copyright 1983,
 Carnegie Mellon University). Gaussian is a federally registered
 trademark of Gaussian, Inc.
  
 This software contains proprietary and confidential information,
 including trade secrets, belonging to Gaussian, Inc.
  
 This software is provided under written license and may be
 used, copied, transmitted, or stored only in accord with that
 written license.
  
 The following legend is applicable only to US Government
 contracts under FAR:
  
                    RESTRICTED RIGHTS LEGEND
  
 Use, reproduction and disclosure by the US Government is
 subject to restrictions as set forth in subparagraphs (a)
 and (c) of the Commercial Computer Software - Restricted
 Rights clause in FAR 52.227-19.
  
 Gaussian, Inc.
 340 Quinnipiac St., Bldg. 40, Wallingford CT 06492
  
  
 ---------------------------------------------------------------
 Warning -- This program may not be used in any manner that
 competes with the business of Gaussian, Inc. or will provide
 assistance to any competitor of Gaussian, Inc.  The licensee
 of this program is prohibited from giving any competitor of
 Gaussian, Inc. access to this program.  By using this program,
 the user acknowledges that Gaussian, Inc. is engaged in the
 business of creating and licensing software in the field of
 computational chemistry and represents and warrants to the
 licensee that it is not a competitor of Gaussian, Inc. and that
 it will not use this program in any manner prohibited above.
 ---------------------------------------------------------------
  

 Cite this work as:
 Gaussian 16, Revision C.01,
 M. J. Frisch, G. W. Trucks, H. B. Schlegel, G. E. Scuseria, 
 M. A. Robb, J. R. Cheeseman, G. Scalmani, V. Barone, 
 G. A. Petersson, H. Nakatsuji, X. Li, M. Caricato, A. V. Marenich, 
 J. Bloino, B. G. Janesko, R. Gomperts, B. Mennucci, H. P. Hratchian, 
 J. V. Ortiz, A. F. Izmaylov, J. L. Sonnenberg, D. Williams-Young, 
 F. Ding, F. Lipparini, F. Egidi, J. Goings, B. Peng, A. Petrone, 
 T. Henderson, D. Ranasinghe, V. G. Zakrzewski, J. Gao, N. Rega, 
 G. Zheng, W. Liang, M. Hada, M. Ehara, K. Toyota, R. Fukuda, 
 J. Hasegawa, M. Ishida, T. Nakajima, Y. Honda, O. Kitao, H. Nakai, 
 T. Vreven, K. Throssell, J. A. Montgomery, Jr., J. E. Peralta, 
 F. Ogliaro, M. J. Bearpark, J. J. Heyd, E. N. Brothers, K. N. Kudin, 
 V. N. Staroverov, T. A. Keith, R. Kobayashi, J. Normand, 
 K. Raghavachari, A. P. Rendell, J. C. Burant, S. S. Iyengar, 
 J. Tomasi, M. Cossi, J. M. Millam, M. Klene, C. Adamo, R. Cammi, 
 J. W. Ochterski, R. L. Martin, K. Morokuma, O. Farkas, 
 J. B. Foresman, and D. J. Fox, Gaussian, Inc., Wallingford CT, 2019.
 
 ******************************************
 Gaussian 16:  ES64L-G16RevC.01  3-Jul-2019
                16-Aug-2024 
 ******************************************
 %nprocs=16
 Will use up to   16 processors via shared memory.
 %mem=16GB
 %chk=pyrmd1_conf-1.chk
 ----------------------------------------------------------------------
 # B3LYP/6-31G(d,p) symmetry=loose empiricaldispersion=GD3BJ int=(grid=
 ultrafine) opt=calcfc freq=noraman
 ----------------------------------------------------------------------
 1/10=4,18=20,19=15,26=4,38=1/1,3;
 2/9=110,12=2,17=4,18=3,40=1/2;
 3/5=1,6=6,7=101,11=2,25=1,30=1,71=2,74=-5,75=-5,124=41,140=1/1,2,3;
 4//1;
 5/5=2,38=5/2;
 8/6=4,10=90,11=11/1;
 11/6=1,8=1,9=11,15=111,16=1/1,2,10;
 10/6=1,13=1/2;
 6/7=2,8=2,9=2,10=2,28=1/1;
 7/10=1,25=1/1,2,3,16;
 1/10=4,18=20,19=15,26=4/3(2);
 2/9=110/2;
 99//99;
 2/9=110/2;
 3/5=1,6=6,7=101,11=2,25=1,30=1,71=1,74=-5,75=-5,124=41/1,2,3;
 4/5=5,16=3,69=1/1;
 5/5=2,38=5/2;
 7//1,2,3,16;
 1/18=20,19=15,26=4/3(-5);
 2/9=110/2;
 6/7=2,8=2,9=2,10=2,19=2,28=1/1;
 99/9=1/99;
 ----------
 pyrmd1.xyz
 ----------
 Symbolic Z-matrix:
 Charge =  0 Multiplicity = 1
 N                    -3.9249    2.1845    0.2188 
 C                    -2.7789    1.4355    0.0997 
 N                    -2.9269    0.172    -0.3388 
 C                    -1.7911   -0.5658   -0.4553 
 C                    -2.0379   -1.981    -0.9558 
 C                    -0.5149   -0.0481   -0.1369 
 C                     0.761    -0.831    -0.2524 
 O                     1.8542   -0.1185    0.1103 
 C                     3.1458   -0.7067    0.0615 
 C                     4.1708    0.3308    0.525 
 O                     0.8242   -2.       -0.6354 
 C                    -0.5045    1.286     0.3095 
 N                    -1.6251    2.0414    0.4336 
 H                    -3.8397    3.1313    0.5445 
 H                    -4.7984    1.7517   -0.0254 
 H                    -1.6888   -2.7049   -0.2201 
 H                    -3.0941   -2.178    -1.142 
 H                    -1.4985   -2.1485   -1.8875 
 H                     3.3717   -1.0338   -0.9554 
 H                     3.1819   -1.5881    0.705 
 H                     4.1554    1.2109   -0.1182 
 H                     3.9653    0.6556    1.5452 
 H                     5.1787   -0.0829    0.5021 
 H                     0.4146    1.7876    0.5818 
 

 GradGradGradGradGradGradGradGradGradGradGradGradGradGradGradGradGradGrad
 Berny optimization.
 Initialization pass.
                           ----------------------------
                           !    Initial Parameters    !
                           ! (Angstroms and Degrees)  !
 --------------------------                            --------------------------
 ! Name  Definition              Value          Derivative Info.                !
 --------------------------------------------------------------------------------
 ! R1    R(1,2)                  1.3742         calculate D2E/DX2 analytically  !
 ! R2    R(1,14)                 1.0049         calculate D2E/DX2 analytically  !
 ! R3    R(1,15)                 1.005          calculate D2E/DX2 analytically  !
 ! R4    R(2,3)                  1.3456         calculate D2E/DX2 analytically  !
 ! R5    R(2,13)                 1.3453         calculate D2E/DX2 analytically  !
 ! R6    R(3,4)                  1.3594         calculate D2E/DX2 analytically  !
 ! R7    R(4,5)                  1.5212         calculate D2E/DX2 analytically  !
 ! R8    R(4,6)                  1.4135         calculate D2E/DX2 analytically  !
 ! R9    R(5,16)                 1.0896         calculate D2E/DX2 analytically  !
 ! R10   R(5,17)                 1.0904         calculate D2E/DX2 analytically  !
 ! R11   R(5,18)                 1.0895         calculate D2E/DX2 analytically  !
 ! R12   R(6,7)                  1.5014         calculate D2E/DX2 analytically  !
 ! R13   R(6,12)                 1.4068         calculate D2E/DX2 analytically  !
 ! R14   R(7,8)                  1.3544         calculate D2E/DX2 analytically  !
 ! R15   R(7,11)                 1.2318         calculate D2E/DX2 analytically  !
 ! R16   R(8,9)                  1.4201         calculate D2E/DX2 analytically  !
 ! R17   R(9,10)                 1.5303         calculate D2E/DX2 analytically  !
 ! R18   R(9,19)                 1.0918         calculate D2E/DX2 analytically  !
 ! R19   R(9,20)                 1.0919         calculate D2E/DX2 analytically  !
 ! R20   R(10,21)                1.0902         calculate D2E/DX2 analytically  !
 ! R21   R(10,22)                1.0902         calculate D2E/DX2 analytically  !
 ! R22   R(10,23)                1.0897         calculate D2E/DX2 analytically  !
 ! R23   R(12,13)                1.3571         calculate D2E/DX2 analytically  !
 ! R24   R(12,24)                1.0819         calculate D2E/DX2 analytically  !
 ! A1    A(2,1,14)             118.094          calculate D2E/DX2 analytically  !
 ! A2    A(2,1,15)             117.9726         calculate D2E/DX2 analytically  !
 ! A3    A(14,1,15)            123.9334         calculate D2E/DX2 analytically  !
 ! A4    A(1,2,3)              116.6348         calculate D2E/DX2 analytically  !
 ! A5    A(1,2,13)             116.6301         calculate D2E/DX2 analytically  !
 ! A6    A(3,2,13)             126.7351         calculate D2E/DX2 analytically  !
 ! A7    A(2,3,4)              116.4655         calculate D2E/DX2 analytically  !
 ! A8    A(3,4,5)              113.4251         calculate D2E/DX2 analytically  !
 ! A9    A(3,4,6)              122.4295         calculate D2E/DX2 analytically  !
 ! A10   A(5,4,6)              124.1454         calculate D2E/DX2 analytically  !
 ! A11   A(4,5,16)             110.1173         calculate D2E/DX2 analytically  !
 ! A12   A(4,5,17)             112.4199         calculate D2E/DX2 analytically  !
 ! A13   A(4,5,18)             110.1236         calculate D2E/DX2 analytically  !
 ! A14   A(16,5,17)            107.7951         calculate D2E/DX2 analytically  !
 ! A15   A(16,5,18)            108.4601         calculate D2E/DX2 analytically  !
 ! A16   A(17,5,18)            107.8026         calculate D2E/DX2 analytically  !
 ! A17   A(4,6,7)              123.9824         calculate D2E/DX2 analytically  !
 ! A18   A(4,6,12)             115.1795         calculate D2E/DX2 analytically  !
 ! A19   A(7,6,12)             120.8381         calculate D2E/DX2 analytically  !
 ! A20   A(6,7,8)              113.0178         calculate D2E/DX2 analytically  !
 ! A21   A(6,7,11)             124.2219         calculate D2E/DX2 analytically  !
 ! A22   A(8,7,11)             122.7604         calculate D2E/DX2 analytically  !
 ! A23   A(7,8,9)              120.467          calculate D2E/DX2 analytically  !
 ! A24   A(8,9,10)             108.5407         calculate D2E/DX2 analytically  !
 ! A25   A(8,9,19)             110.1377         calculate D2E/DX2 analytically  !
 ! A26   A(8,9,20)             110.1311         calculate D2E/DX2 analytically  !
 ! A27   A(10,9,19)            110.2807         calculate D2E/DX2 analytically  !
 ! A28   A(10,9,20)            110.2807         calculate D2E/DX2 analytically  !
 ! A29   A(19,9,20)            107.4706         calculate D2E/DX2 analytically  !
 ! A30   A(9,10,21)            111.0484         calculate D2E/DX2 analytically  !
 ! A31   A(9,10,22)            111.0487         calculate D2E/DX2 analytically  !
 ! A32   A(9,10,23)            110.8396         calculate D2E/DX2 analytically  !
 ! A33   A(21,10,22)           107.9948         calculate D2E/DX2 analytically  !
 ! A34   A(21,10,23)           107.8869         calculate D2E/DX2 analytically  !
 ! A35   A(22,10,23)           107.8851         calculate D2E/DX2 analytically  !
 ! A36   A(6,12,13)            123.4186         calculate D2E/DX2 analytically  !
 ! A37   A(6,12,24)            121.7222         calculate D2E/DX2 analytically  !
 ! A38   A(13,12,24)           114.8592         calculate D2E/DX2 analytically  !
 ! A39   A(2,13,12)            115.7719         calculate D2E/DX2 analytically  !
 ! D1    D(14,1,2,3)           179.9972         calculate D2E/DX2 analytically  !
 ! D2    D(14,1,2,13)           -0.0025         calculate D2E/DX2 analytically  !
 ! D3    D(15,1,2,3)            -0.004          calculate D2E/DX2 analytically  !
 ! D4    D(15,1,2,13)          179.9963         calculate D2E/DX2 analytically  !
 ! D5    D(1,2,3,4)           -179.9988         calculate D2E/DX2 analytically  !
 ! D6    D(13,2,3,4)             0.0009         calculate D2E/DX2 analytically  !
 ! D7    D(1,2,13,12)          179.9984         calculate D2E/DX2 analytically  !
 ! D8    D(3,2,13,12)           -0.0012         calculate D2E/DX2 analytically  !
 ! D9    D(2,3,4,5)           -179.9961         calculate D2E/DX2 analytically  !
 ! D10   D(2,3,4,6)             -0.0028         calculate D2E/DX2 analytically  !
 ! D11   D(3,4,5,16)          -120.2224         calculate D2E/DX2 analytically  !
 ! D12   D(3,4,5,17)            -0.0101         calculate D2E/DX2 analytically  !
 ! D13   D(3,4,5,18)           120.2161         calculate D2E/DX2 analytically  !
 ! D14   D(6,4,5,16)            59.7844         calculate D2E/DX2 analytically  !
 ! D15   D(6,4,5,17)           179.9967         calculate D2E/DX2 analytically  !
 ! D16   D(6,4,5,18)           -59.7771         calculate D2E/DX2 analytically  !
 ! D17   D(3,4,6,7)            179.9976         calculate D2E/DX2 analytically  !
 ! D18   D(3,4,6,12)             0.0049         calculate D2E/DX2 analytically  !
 ! D19   D(5,4,6,7)             -0.0098         calculate D2E/DX2 analytically  !
 ! D20   D(5,4,6,12)           179.9975         calculate D2E/DX2 analytically  !
 ! D21   D(4,6,7,8)           -179.9909         calculate D2E/DX2 analytically  !
 ! D22   D(4,6,7,11)             0.0133         calculate D2E/DX2 analytically  !
 ! D23   D(12,6,7,8)             0.0014         calculate D2E/DX2 analytically  !
 ! D24   D(12,6,7,11)         -179.9944         calculate D2E/DX2 analytically  !
 ! D25   D(4,6,12,13)           -0.0054         calculate D2E/DX2 analytically  !
 ! D26   D(4,6,12,24)          179.9986         calculate D2E/DX2 analytically  !
 ! D27   D(7,6,12,13)         -179.9983         calculate D2E/DX2 analytically  !
 ! D28   D(7,6,12,24)            0.0057         calculate D2E/DX2 analytically  !
 ! D29   D(6,7,8,9)           -179.9968         calculate D2E/DX2 analytically  !
 ! D30   D(11,7,8,9)            -0.0009         calculate D2E/DX2 analytically  !
 ! D31   D(7,8,9,10)          -179.996          calculate D2E/DX2 analytically  !
 ! D32   D(7,8,9,19)            59.1813         calculate D2E/DX2 analytically  !
 ! D33   D(7,8,9,20)           -59.1773         calculate D2E/DX2 analytically  !
 ! D34   D(8,9,10,21)          -60.094          calculate D2E/DX2 analytically  !
 ! D35   D(8,9,10,22)           60.0902         calculate D2E/DX2 analytically  !
 ! D36   D(8,9,10,23)          179.997          calculate D2E/DX2 analytically  !
 ! D37   D(19,9,10,21)          60.6403         calculate D2E/DX2 analytically  !
 ! D38   D(19,9,10,22)        -179.1754         calculate D2E/DX2 analytically  !
 ! D39   D(19,9,10,23)         -59.2686         calculate D2E/DX2 analytically  !
 ! D40   D(20,9,10,21)         179.1797         calculate D2E/DX2 analytically  !
 ! D41   D(20,9,10,22)         -60.6361         calculate D2E/DX2 analytically  !
 ! D42   D(20,9,10,23)          59.2708         calculate D2E/DX2 analytically  !
 ! D43   D(6,12,13,2)            0.0036         calculate D2E/DX2 analytically  !
 ! D44   D(24,12,13,2)         179.9999         calculate D2E/DX2 analytically  !
 --------------------------------------------------------------------------------
 Trust Radius=3.00D-01 FncErr=1.00D-07 GrdErr=1.00D-06 EigMax=2.50D+02 EigMin=1.00D-04
 Number of steps in this run=    117 maximum allowed number of steps=    144.
 GradGradGradGradGradGradGradGradGradGradGradGradGradGradGradGradGradGrad

                          Input orientation:                          
 ---------------------------------------------------------------------
 Center     Atomic      Atomic             Coordinates (Angstroms)
 Number     Number       Type             X           Y           Z
 ---------------------------------------------------------------------
      1          7           0       -3.924900    2.184500    0.218800
      2          6           0       -2.778900    1.435500    0.099700
      3          7           0       -2.926900    0.172000   -0.338800
      4          6           0       -1.791100   -0.565800   -0.455300
      5          6           0       -2.037900   -1.981000   -0.955800
      6          6           0       -0.514900   -0.048100   -0.136900
      7          6           0        0.761000   -0.831000   -0.252400
      8          8           0        1.854200   -0.118500    0.110300
      9          6           0        3.145800   -0.706700    0.061500
     10          6           0        4.170800    0.330800    0.525000
     11          8           0        0.824200   -2.000000   -0.635400
     12          6           0       -0.504500    1.286000    0.309500
     13          7           0       -1.625100    2.041400    0.433600
     14          1           0       -3.839700    3.131300    0.544500
     15          1           0       -4.798400    1.751700   -0.025400
     16          1           0       -1.688800   -2.704900   -0.220100
     17          1           0       -3.094100   -2.178000   -1.142000
     18          1           0       -1.498500   -2.148500   -1.887500
     19          1           0        3.371700   -1.033800   -0.955400
     20          1           0        3.181900   -1.588100    0.705000
     21          1           0        4.155400    1.210900   -0.118200
     22          1           0        3.965300    0.655600    1.545200
     23          1           0        5.178700   -0.082900    0.502100
     24          1           0        0.414600    1.787600    0.581800
 ---------------------------------------------------------------------
                    Distance matrix (angstroms):
                    1          2          3          4          5
     1  N    0.000000
     2  C    1.374228   0.000000
     3  N    2.314536   1.345592   0.000000
     4  C    3.545654   2.299777   1.359398   0.000000
     5  C    4.721424   3.651799   2.409651   1.521250   0.000000
     6  C    4.091348   2.717121   2.430422   1.413534   2.593497
     7  C    5.592220   4.218043   3.822837   2.573852   3.106624
     8  O    6.222024   4.886783   4.810925   3.715938   4.444538
     9  C    7.640588   6.300202   6.148987   4.965875   5.434104
    10  C    8.310856   7.049792   7.151833   6.108120   6.788604
    11  O    6.386991   5.032431   4.344687   2.988170   2.880041
    12  C    3.537607   2.288943   2.743959   2.381055   3.824342
    13  N    2.314238   1.345310   2.405398   2.759564   4.275575
    14  H    1.004873   2.049117   3.220385   4.343375   5.624322
    15  H    1.004964   2.047929   2.469045   3.820926   4.734876
    16  H    5.394350   4.293425   3.134252   2.154422   1.089567
    17  H    4.644719   3.833869   2.489093   2.183702   1.090430
    18  H    5.394331   4.293419   3.134249   2.154472   1.089529
    19  H    8.060805   6.711226   6.442555   5.208035   5.491900
    20  H    8.060739   6.711161   6.442430   5.207890   5.491715
    21  H    8.145718   6.941357   7.161491   6.215397   7.017604
    22  H    8.145682   6.941322   7.161407   6.215300   7.017483
    23  H    9.385995   8.111157   8.153088   7.051803   7.603129
    24  H    4.372706   3.248821   3.824041   3.388094   4.751980
                    6          7          8          9         10
     6  C    0.000000
     7  C    1.501397   0.000000
     8  O    2.383002   1.354361   0.000000
     9  C    3.724761   2.408579   1.420067   0.000000
    10  C    4.747364   3.685223   2.395930   1.530315   0.000000
    11  O    2.419009   1.231765   2.270905   2.747384   4.240152
    12  C    1.406842   2.529607   2.752411   4.166179   4.776743
    13  N    2.433932   3.796676   4.107946   5.518333   6.043754
    14  H    4.650504   6.123831   6.570405   7.985032   8.485947
    15  H    4.647589   6.134232   6.911812   8.316345   9.097717
    16  H    2.905779   3.084488   4.399031   5.238841   6.641202
    17  H    3.492703   4.179425   5.504132   6.522997   7.864588
    18  H    2.905813   3.084590   4.399171   5.238980   6.641389
    19  H    4.092335   2.711290   2.067921   1.091838   2.166167
    20  H    4.092276   2.711194   2.067893   1.091907   2.166218
    21  H    4.837058   3.963498   2.667403   2.174574   1.090192
    22  H    4.837029   3.963443   2.667379   2.174582   1.090199
    23  H    5.729451   4.543677   3.347697   2.171621   1.089741
    24  H    2.179517   2.770009   2.434744   3.735197   4.029210
                   11         12         13         14         15
    11  O    0.000000
    12  C    3.668252   0.000000
    13  N    4.845074   1.357120   0.000000
    14  H    7.033802   3.818889   2.470756   0.000000
    15  H    6.786824   4.332045   3.219385   1.774032   0.000000
    16  H    2.642826   4.196466   4.791528   6.266755   5.437720
    17  H    3.954921   4.562036   4.737490   5.620398   4.426508
    18  H    2.642866   4.196503   4.791534   6.266748   5.437676
    19  H    2.743301   4.691095   6.029443   8.461799   8.681846
    20  H    2.743188   4.691100   6.029443   8.461759   8.681759
    21  H    4.655563   4.680089   5.865867   8.249166   8.970597
    22  H    4.655506   4.680114   5.865890   8.249152   8.970544
    23  H    4.891917   5.848910   7.128046   9.574154  10.158077
    24  H    3.999408   1.081894   2.060765   4.461613   5.248366
                   16         17         18         19         20
    16  H    0.000000
    17  H    1.761361   0.000000
    18  H    1.768055   1.761414   0.000000
    19  H    5.379768   6.568910   5.082343   0.000000
    20  H    5.082005   6.568681   5.379707   1.760739   0.000000
    21  H    7.035520   8.067717   6.810475   2.520668   3.075673
    22  H    6.810146   8.067556   7.035589   3.075619   2.520683
    23  H    7.386407   8.690899   7.386602   2.508738   2.508786
    24  H    5.024927   5.568523   5.024965   4.366660   4.366747
                   21         22         23         24
    21  H    0.000000
    22  H    1.763915   0.000000
    23  H    1.762337   1.762322   0.000000
    24  H    3.849178   3.849290   5.118767   0.000000
 Stoichiometry    C8H11N3O2
 Framework group  C1[X(C8H11N3O2)]
 Deg. of freedom    66
 Full point group                 C1      NOp   1
 Largest Abelian subgroup         C1      NOp   1
 Largest concise Abelian subgroup C1      NOp   1
                         Standard orientation:                         
 ---------------------------------------------------------------------
 Center     Atomic      Atomic             Coordinates (Angstroms)
 Number     Number       Type             X           Y           Z
 ---------------------------------------------------------------------
      1          7           0        4.008685   -1.254295    0.000042
      2          6           0        2.719728   -0.777753    0.000005
      3          7           0        2.571023    0.559597    0.000074
      4          6           0        1.294588    1.027227    0.000063
      5          6           0        1.206900    2.545947    0.000050
      6          6           0        0.172404    0.167703   -0.000075
      7          6           0       -1.250842    0.645785   -0.000041
      8          8           0       -2.149781   -0.367232    0.000002
      9          6           0       -3.543194   -0.093388   -0.000031
     10          6           0       -4.300454   -1.423208    0.000133
     11          8           0       -1.583210    1.831861   -0.000125
     12          6           0        0.471394   -1.207001   -0.000092
     13          7           0        1.737112   -1.696624   -0.000090
     14          1           0        4.145132   -2.249861    0.000035
     15          1           0        4.758591   -0.585273    0.000056
     16          1           0        0.671167    2.890397    0.884076
     17          1           0        2.189260    3.019240    0.000229
     18          1           0        0.671308    2.890488   -0.883979
     19          1           0       -3.810749    0.494373   -0.880407
     20          1           0       -3.810656    0.494564    0.880332
     21          1           0       -4.053392   -2.014589   -0.881767
     22          1           0       -4.053340   -2.014409    0.882148
     23          1           0       -5.377310   -1.256125    0.000167
     24          1           0       -0.306953   -1.958447   -0.000171
 ---------------------------------------------------------------------
 Rotational constants (GHZ):           1.5922591           0.4445821           0.3498068
 Standard basis: 6-31G(d,p) (6D, 7F)
 There are   250 symmetry adapted cartesian basis functions of A   symmetry.
 There are   250 symmetry adapted basis functions of A   symmetry.
   250 basis functions,   441 primitive gaussians,   250 cartesian basis functions
    48 alpha electrons       48 beta electrons
       nuclear repulsion energy       777.1916182878 Hartrees.
 NAtoms=   24 NActive=   24 NUniq=   24 SFac= 1.00D+00 NAtFMM=   60 NAOKFM=F Big=F
 Integral buffers will be    131072 words long.
 Raffenetti 2 integral format.
 Two-electron integral symmetry is turned on.
 Nuclear repulsion after empirical dispersion term =      777.1510752513 Hartrees.
 One-electron integrals computed using PRISM.
 NBasis=   250 RedAO= T EigKep=  9.71D-04  NBF=   250
 NBsUse=   250 1.00D-06 EigRej= -1.00D+00 NBFU=   250
 ExpMin= 1.61D-01 ExpMax= 5.48D+03 ExpMxC= 8.25D+02 IAcc=3 IRadAn=         5 AccDes= 0.00D+00
 Harris functional with IExCor=  402 and IRadAn=       5 diagonalized for initial guess.
 HarFok:  IExCor=  402 AccDes= 0.00D+00 IRadAn=         5 IDoV= 1 UseB2=F ITyADJ=14
 ICtDFT=  3500011 ScaDFX=  1.000000  1.000000  1.000000  1.000000
 FoFCou: FMM=F IPFlag=           0 FMFlag=      100000 FMFlg1=           0
         NFxFlg=           0 DoJE=T BraDBF=F KetDBF=T FulRan=T
         wScrn=  0.000000 ICntrl=       500 IOpCl=  0 I1Cent=   200000004 NGrid=           0
         NMat0=    1 NMatS0=      1 NMatT0=    0 NMatD0=    1 NMtDS0=    0 NMtDT0=    0
 Petite list used in FoFCou.
 Requested convergence on RMS density matrix=1.00D-08 within 128 cycles.
 Requested convergence on MAX density matrix=1.00D-06.
 Requested convergence on             energy=1.00D-06.
 No special actions if energy rises.
 Integral accuracy reduced to 1.0D-05 until final iterations.
 Initial convergence to 1.0D-05 achieved.  Increase integral accuracy.
 SCF Done:  E(RB3LYP) =  -626.270071303     A.U. after   15 cycles
            NFock= 15  Conv=0.36D-08     -V/T= 2.0098
 DoSCS=F DFT=T ScalE2(SS,OS)=  1.000000  1.000000
 Range of M.O.s used for correlation:     1   250
 NBasis=   250 NAE=    48 NBE=    48 NFC=     0 NFV=     0
 NROrb=    250 NOA=    48 NOB=    48 NVA=   202 NVB=   202
 Symmetrizing basis deriv contribution to polar:
 IMax=3 JMax=2 DiffMx= 0.00D+00
 G2DrvN: will do    25 centers at a time, making    1 passes.
 Calling FoFCou, ICntrl=  3107 FMM=F I1Cent=   0 AccDes= 0.00D+00.
 End of G2Drv F.D. properties file   721 does not exist.
 End of G2Drv F.D. properties file   722 does not exist.
 End of G2Drv F.D. properties file   788 does not exist.
          IDoAtm=111111111111111111111111
          Differentiating once with respect to nuclear coordinates.
 Keep R1 ints in memory in canonical form, NReq=509470449.
          There are    75 degrees of freedom in the 1st order CPHF.  IDoFFX=6 NUNeed=     0.
     69 vectors produced by pass  0 Test12= 1.29D-14 1.33D-09 XBig12= 2.21D-01 1.66D-01.
 AX will form    69 AO Fock derivatives at one time.
     69 vectors produced by pass  1 Test12= 1.29D-14 1.33D-09 XBig12= 1.65D-01 1.00D-01.
     69 vectors produced by pass  2 Test12= 1.29D-14 1.33D-09 XBig12= 1.45D-03 5.57D-03.
     69 vectors produced by pass  3 Test12= 1.29D-14 1.33D-09 XBig12= 4.77D-06 3.08D-04.
     69 vectors produced by pass  4 Test12= 1.29D-14 1.33D-09 XBig12= 7.32D-09 1.08D-05.
     54 vectors produced by pass  5 Test12= 1.29D-14 1.33D-09 XBig12= 6.26D-12 3.48D-07.
     14 vectors produced by pass  6 Test12= 1.29D-14 1.33D-09 XBig12= 5.19D-15 1.03D-08.
 InvSVY:  IOpt=1 It=  1 EMax= 4.44D-16
 Solved reduced A of dimension   413 with    75 vectors.
 End of Minotr F.D. properties file   721 does not exist.
 End of Minotr F.D. properties file   722 does not exist.
 End of Minotr F.D. properties file   788 does not exist.

 **********************************************************************

            Population analysis using the SCF Density.

 **********************************************************************

 Orbital symmetries:
       Occupied  (A) (A) (A) (A) (A) (A) (A) (A) (A) (A) (A) (A)
                 (A) (A) (A) (A) (A) (A) (A) (A) (A) (A) (A) (A)
                 (A) (A) (A) (A) (A) (A) (A) (A) (A) (A) (A) (A)
                 (A) (A) (A) (A) (A) (A) (A) (A) (A) (A) (A) (A)
       Virtual   (A) (A) (A) (A) (A) (A) (A) (A) (A) (A) (A) (A)
                 (A) (A) (A) (A) (A) (A) (A) (A) (A) (A) (A) (A)
                 (A) (A) (A) (A) (A) (A) (A) (A) (A) (A) (A) (A)
                 (A) (A) (A) (A) (A) (A) (A) (A) (A) (A) (A) (A)
                 (A) (A) (A) (A) (A) (A) (A) (A) (A) (A) (A) (A)
                 (A) (A) (A) (A) (A) (A) (A) (A) (A) (A) (A) (A)
                 (A) (A) (A) (A) (A) (A) (A) (A) (A) (A) (A) (A)
                 (A) (A) (A) (A) (A) (A) (A) (A) (A) (A) (A) (A)
                 (A) (A) (A) (A) (A) (A) (A) (A) (A) (A) (A) (A)
                 (A) (A) (A) (A) (A) (A) (A) (A) (A) (A) (A) (A)
                 (A) (A) (A) (A) (A) (A) (A) (A) (A) (A) (A) (A)
                 (A) (A) (A) (A) (A) (A) (A) (A) (A) (A) (A) (A)
                 (A) (A) (A) (A) (A) (A) (A) (A) (A) (A) (A) (A)
                 (A) (A) (A) (A) (A) (A) (A) (A) (A) (A) (A) (A)
                 (A) (A) (A) (A) (A) (A) (A) (A) (A) (A) (A) (A)
                 (A) (A) (A) (A) (A) (A) (A) (A) (A) (A) (A) (A)
                 (A) (A) (A) (A) (A) (A) (A) (A) (A) (A)
 The electronic state is 1-A.
 Alpha  occ. eigenvalues --  -19.19122 -19.13063 -14.35667 -14.33061 -14.32946
 Alpha  occ. eigenvalues --  -10.32101 -10.29304 -10.25390 -10.24660 -10.24270
 Alpha  occ. eigenvalues --  -10.20717 -10.18754 -10.17524  -1.09828  -1.00564
 Alpha  occ. eigenvalues --   -0.99536  -0.90209  -0.88255  -0.80008  -0.76969
 Alpha  occ. eigenvalues --   -0.72282  -0.66873  -0.64511  -0.62086  -0.57515
 Alpha  occ. eigenvalues --   -0.54882  -0.52231  -0.51890  -0.49285  -0.48878
 Alpha  occ. eigenvalues --   -0.45906  -0.44541  -0.42737  -0.41633  -0.40522
 Alpha  occ. eigenvalues --   -0.40331  -0.39996  -0.38736  -0.37490  -0.36518
 Alpha  occ. eigenvalues --   -0.34799  -0.32095  -0.31605  -0.29846  -0.29645
 Alpha  occ. eigenvalues --   -0.26793  -0.24701  -0.23343
 Alpha virt. eigenvalues --   -0.03785  -0.03327   0.05387   0.08721   0.09870
 Alpha virt. eigenvalues --    0.12546   0.13701   0.13794   0.14392   0.14734
 Alpha virt. eigenvalues --    0.15496   0.15761   0.17110   0.17366   0.19137
 Alpha virt. eigenvalues --    0.20644   0.20941   0.22581   0.25221   0.25902
 Alpha virt. eigenvalues --    0.26155   0.30305   0.32730   0.33627   0.37137
 Alpha virt. eigenvalues --    0.41038   0.42043   0.46749   0.49946   0.51789
 Alpha virt. eigenvalues --    0.53270   0.53593   0.54630   0.54754   0.55261
 Alpha virt. eigenvalues --    0.56431   0.58670   0.59749   0.60234   0.60699
 Alpha virt. eigenvalues --    0.61367   0.62655   0.63942   0.64739   0.65803
 Alpha virt. eigenvalues --    0.66993   0.67757   0.69062   0.74064   0.75127
 Alpha virt. eigenvalues --    0.75393   0.78079   0.78264   0.79370   0.79670
 Alpha virt. eigenvalues --    0.81952   0.83842   0.85371   0.85832   0.86249
 Alpha virt. eigenvalues --    0.86332   0.88230   0.88922   0.89919   0.90828
 Alpha virt. eigenvalues --    0.92380   0.93767   0.93908   0.95308   0.97059
 Alpha virt. eigenvalues --    0.99175   1.01277   1.03541   1.05247   1.10032
 Alpha virt. eigenvalues --    1.10395   1.10921   1.15297   1.22197   1.23359
 Alpha virt. eigenvalues --    1.24948   1.27096   1.27696   1.29877   1.32783
 Alpha virt. eigenvalues --    1.34252   1.36460   1.37179   1.40961   1.41272
 Alpha virt. eigenvalues --    1.43057   1.43313   1.44410   1.46747   1.50341
 Alpha virt. eigenvalues --    1.50535   1.53894   1.60128   1.63989   1.64857
 Alpha virt. eigenvalues --    1.66833   1.68368   1.71205   1.74373   1.75573
 Alpha virt. eigenvalues --    1.77499   1.79101   1.80239   1.84476   1.85496
 Alpha virt. eigenvalues --    1.85858   1.88020   1.89114   1.92613   1.95925
 Alpha virt. eigenvalues --    1.96866   1.98386   2.00007   2.01520   2.02541
 Alpha virt. eigenvalues --    2.04063   2.04432   2.05656   2.05752   2.06203
 Alpha virt. eigenvalues --    2.07028   2.07502   2.09769   2.10297   2.11911
 Alpha virt. eigenvalues --    2.14821   2.17155   2.18778   2.20108   2.21258
 Alpha virt. eigenvalues --    2.25263   2.28900   2.29992   2.30108   2.33108
 Alpha virt. eigenvalues --    2.33914   2.38634   2.39396   2.43709   2.43713
 Alpha virt. eigenvalues --    2.47133   2.48476   2.49034   2.53483   2.53692
 Alpha virt. eigenvalues --    2.57698   2.59657   2.61773   2.61851   2.61987
 Alpha virt. eigenvalues --    2.64346   2.65162   2.69801   2.70781   2.72104
 Alpha virt. eigenvalues --    2.73554   2.75509   2.76343   2.76747   2.78500
 Alpha virt. eigenvalues --    2.83058   2.85839   2.87944   2.88991   2.89159
 Alpha virt. eigenvalues --    2.91310   2.96328   2.99821   3.01137   3.07946
 Alpha virt. eigenvalues --    3.15328   3.18392   3.21834   3.24311   3.29291
 Alpha virt. eigenvalues --    3.29896   3.38071   3.43226   3.44692   3.46477
 Alpha virt. eigenvalues --    3.48323   3.52180   3.56228   3.60540   4.00958
 Alpha virt. eigenvalues --    4.03018   4.06989   4.14430   4.18579   4.26468
 Alpha virt. eigenvalues --    4.31530   4.39501   4.43759   4.48554   4.56003
 Alpha virt. eigenvalues --    4.58838   4.74403
          Condensed to atoms (all electrons):
               1          2          3          4          5          6
     1  N    6.829419   0.318905  -0.099883   0.001460  -0.000213   0.001824
     2  C    0.318905   4.341279   0.430813  -0.052625   0.005360  -0.026315
     3  N   -0.099883   0.430813   6.923898   0.471700  -0.084306  -0.030240
     4  C    0.001460  -0.052625   0.471700   4.686031   0.386970   0.450278
     5  C   -0.000213   0.005360  -0.084306   0.386970   5.014008  -0.079788
     6  C    0.001824  -0.026315  -0.030240   0.450278  -0.079788   5.202349
     7  C    0.000012   0.001302   0.004566  -0.029475  -0.007690   0.319770
     8  O   -0.000000  -0.000013  -0.000024   0.001021   0.000134  -0.090406
     9  C    0.000000   0.000001   0.000001   0.000000  -0.000007   0.006877
    10  C    0.000000  -0.000000  -0.000000   0.000002  -0.000000  -0.000054
    11  O   -0.000000  -0.000005   0.000020  -0.012048   0.002575  -0.062486
    12  C    0.001945  -0.063895  -0.039606  -0.054433   0.006206   0.401421
    13  N   -0.101834   0.441243  -0.077775  -0.037266  -0.000206  -0.021060
    14  H    0.336225  -0.015967   0.005014  -0.000104   0.000006  -0.000019
    15  H    0.337553  -0.017832   0.007225   0.000312  -0.000059   0.000018
    16  H    0.000003  -0.000181   0.001832  -0.022228   0.371995  -0.002536
    17  H   -0.000039   0.000603   0.003911  -0.024019   0.355626   0.005427
    18  H    0.000003  -0.000181   0.001830  -0.022229   0.372017  -0.002532
    19  H    0.000000  -0.000000  -0.000000   0.000002  -0.000001  -0.000057
    20  H    0.000000  -0.000000  -0.000000   0.000002  -0.000001  -0.000057
    21  H   -0.000000  -0.000000  -0.000000  -0.000000   0.000000  -0.000032
    22  H   -0.000000   0.000000  -0.000000  -0.000000   0.000000  -0.000032
    23  H    0.000000   0.000000   0.000000  -0.000000  -0.000000   0.000004
    24  H   -0.000151   0.004300  -0.000226   0.003495  -0.000124  -0.055889
               7          8          9         10         11         12
     1  N    0.000012  -0.000000   0.000000   0.000000  -0.000000   0.001945
     2  C    0.001302  -0.000013   0.000001  -0.000000  -0.000005  -0.063895
     3  N    0.004566  -0.000024   0.000001  -0.000000   0.000020  -0.039606
     4  C   -0.029475   0.001021   0.000000   0.000002  -0.012048  -0.054433
     5  C   -0.007690   0.000134  -0.000007  -0.000000   0.002575   0.006206
     6  C    0.319770  -0.090406   0.006877  -0.000054  -0.062486   0.401421
     7  C    4.404461   0.263768  -0.014776   0.003719   0.505613  -0.041515
     8  O    0.263768   8.278812   0.203501  -0.043863  -0.080813   0.004337
     9  C   -0.014776   0.203501   4.684941   0.373934   0.003743  -0.000526
    10  C    0.003719  -0.043863   0.373934   4.952413   0.000584  -0.000095
    11  O    0.505613  -0.080813   0.003743   0.000584   8.128325   0.003830
    12  C   -0.041515   0.004337  -0.000526  -0.000095   0.003830   4.851096
    13  N    0.003513   0.000243  -0.000002   0.000000  -0.000029   0.444451
    14  H   -0.000001   0.000000  -0.000000  -0.000000   0.000000   0.000269
    15  H   -0.000001   0.000000  -0.000000   0.000000   0.000000  -0.000153
    16  H    0.001406   0.000003   0.000001   0.000000   0.002974  -0.000080
    17  H    0.000159   0.000002  -0.000000  -0.000000   0.000586  -0.000114
    18  H    0.001403   0.000003   0.000001   0.000000   0.002975  -0.000080
    19  H   -0.003260  -0.034816   0.384387  -0.041276   0.005253   0.000045
    20  H   -0.003262  -0.034822   0.384384  -0.041271   0.005254   0.000045
    21  H    0.000021   0.001124  -0.029835   0.382552  -0.000006  -0.000006
    22  H    0.000021   0.001124  -0.029835   0.382554  -0.000006  -0.000006
    23  H   -0.000031   0.002759  -0.028348   0.374695   0.000012   0.000001
    24  H   -0.004536   0.010823  -0.000499   0.000095   0.000092   0.386374
              13         14         15         16         17         18
     1  N   -0.101834   0.336225   0.337553   0.000003  -0.000039   0.000003
     2  C    0.441243  -0.015967  -0.017832  -0.000181   0.000603  -0.000181
     3  N   -0.077775   0.005014   0.007225   0.001832   0.003911   0.001830
     4  C   -0.037266  -0.000104   0.000312  -0.022228  -0.024019  -0.022229
     5  C   -0.000206   0.000006  -0.000059   0.371995   0.355626   0.372017
     6  C   -0.021060  -0.000019   0.000018  -0.002536   0.005427  -0.002532
     7  C    0.003513  -0.000001  -0.000001   0.001406   0.000159   0.001403
     8  O    0.000243   0.000000   0.000000   0.000003   0.000002   0.000003
     9  C   -0.000002  -0.000000  -0.000000   0.000001  -0.000000   0.000001
    10  C    0.000000  -0.000000   0.000000   0.000000  -0.000000   0.000000
    11  O   -0.000029   0.000000   0.000000   0.002974   0.000586   0.002975
    12  C    0.444451   0.000269  -0.000153  -0.000080  -0.000114  -0.000080
    13  N    6.875072   0.007084   0.005106   0.000018   0.000038   0.000018
    14  H    0.007084   0.405543  -0.022172  -0.000000   0.000000  -0.000000
    15  H    0.005106  -0.022172   0.405912   0.000001   0.000035   0.000001
    16  H    0.000018  -0.000000   0.000001   0.561599  -0.028809  -0.024305
    17  H    0.000038   0.000000   0.000035  -0.028809   0.597596  -0.028803
    18  H    0.000018  -0.000000   0.000001  -0.024305  -0.028803   0.561557
    19  H    0.000000   0.000000  -0.000000  -0.000001  -0.000000   0.000002
    20  H    0.000000   0.000000  -0.000000   0.000002  -0.000000  -0.000001
    21  H    0.000000   0.000000   0.000000  -0.000000   0.000000  -0.000000
    22  H    0.000000   0.000000   0.000000  -0.000000   0.000000  -0.000000
    23  H    0.000000  -0.000000  -0.000000  -0.000000  -0.000000  -0.000000
    24  H   -0.047241  -0.000031   0.000005   0.000001   0.000002   0.000001
              19         20         21         22         23         24
     1  N    0.000000   0.000000  -0.000000  -0.000000   0.000000  -0.000151
     2  C   -0.000000  -0.000000  -0.000000   0.000000   0.000000   0.004300
     3  N   -0.000000  -0.000000  -0.000000  -0.000000   0.000000  -0.000226
     4  C    0.000002   0.000002  -0.000000  -0.000000  -0.000000   0.003495
     5  C   -0.000001  -0.000001   0.000000   0.000000  -0.000000  -0.000124
     6  C   -0.000057  -0.000057  -0.000032  -0.000032   0.000004  -0.055889
     7  C   -0.003260  -0.003262   0.000021   0.000021  -0.000031  -0.004536
     8  O   -0.034816  -0.034822   0.001124   0.001124   0.002759   0.010823
     9  C    0.384387   0.384384  -0.029835  -0.029835  -0.028348  -0.000499
    10  C   -0.041276  -0.041271   0.382552   0.382554   0.374695   0.000095
    11  O    0.005253   0.005254  -0.000006  -0.000006   0.000012   0.000092
    12  C    0.000045   0.000045  -0.000006  -0.000006   0.000001   0.386374
    13  N    0.000000   0.000000   0.000000   0.000000   0.000000  -0.047241
    14  H    0.000000   0.000000   0.000000   0.000000  -0.000000  -0.000031
    15  H   -0.000000  -0.000000   0.000000   0.000000  -0.000000   0.000005
    16  H   -0.000001   0.000002  -0.000000  -0.000000  -0.000000   0.000001
    17  H   -0.000000  -0.000000   0.000000   0.000000  -0.000000   0.000002
    18  H    0.000002  -0.000001  -0.000000  -0.000000  -0.000000   0.000001
    19  H    0.619910  -0.046915  -0.006274   0.005326  -0.000207   0.000039
    20  H   -0.046915   0.619930   0.005326  -0.006274  -0.000207   0.000039
    21  H   -0.006274   0.005326   0.585933  -0.032227  -0.028524   0.000118
    22  H    0.005326  -0.006274  -0.032227   0.585932  -0.028526   0.000118
    23  H   -0.000207  -0.000207  -0.028524  -0.028526   0.594330   0.000000
    24  H    0.000039   0.000039   0.000118   0.000118   0.000000   0.575271
 Mulliken charges:
               1
     1  N   -0.625229
     2  C    0.633209
     3  N   -0.518747
     4  C    0.253154
     5  C   -0.342502
     6  C   -0.016468
     7  C    0.594814
     8  O   -0.482896
     9  C    0.062058
    10  C   -0.343987
    11  O   -0.506444
    12  C    0.100489
    13  N   -0.491374
    14  H    0.284152
    15  H    0.284049
    16  H    0.138306
    17  H    0.117798
    18  H    0.138321
    19  H    0.117842
    20  H    0.117829
    21  H    0.121830
    22  H    0.121831
    23  H    0.114042
    24  H    0.127923
 Sum of Mulliken charges =  -0.00000
 Mulliken charges with hydrogens summed into heavy atoms:
               1
     1  N   -0.057028
     2  C    0.633209
     3  N   -0.518747
     4  C    0.253154
     5  C    0.051923
     6  C   -0.016468
     7  C    0.594814
     8  O   -0.482896
     9  C    0.297729
    10  C    0.013716
    11  O   -0.506444
    12  C    0.228412
    13  N   -0.491374
 APT charges:
               1
     1  N   -1.138011
     2  C    0.072761
     3  N   -0.111836
     4  C   -0.216271
     5  C   -1.036499
     6  C   -0.408858
     7  C   -0.152070
     8  O   -0.219238
     9  C   -0.773459
    10  C   -1.245245
    11  O    0.033075
    12  C   -0.366176
    13  N   -0.172468
    14  H    0.797461
    15  H    0.869459
    16  H    0.353954
    17  H    0.614833
    18  H    0.354020
    19  H    0.449963
    20  H    0.449838
    21  H    0.287763
    22  H    0.287752
    23  H    0.857638
    24  H    0.411613
 Sum of APT charges =  -0.00000
 APT charges with hydrogens summed into heavy atoms:
               1
     1  N    0.528909
     2  C    0.072761
     3  N   -0.111836
     4  C   -0.216271
     5  C    0.286308
     6  C   -0.408858
     7  C   -0.152070
     8  O   -0.219238
     9  C    0.126342
    10  C    0.187908
    11  O    0.033075
    12  C    0.045437
    13  N   -0.172468
 Electronic spatial extent (au):  <R**2>=           3074.3829
 Charge=             -0.0000 electrons
 Dipole moment (field-independent basis, Debye):
    X=              0.3215    Y=             -1.7141    Z=              0.0001  Tot=              1.7439
 Quadrupole moment (field-independent basis, Debye-Ang):
   XX=            -55.5554   YY=            -78.2813   ZZ=            -75.3247
   XY=              0.7791   XZ=              0.0002   YZ=              0.0002
 Traceless Quadrupole moment (field-independent basis, Debye-Ang):
   XX=             14.1651   YY=             -8.5608   ZZ=             -5.6042
   XY=              0.7791   XZ=              0.0002   YZ=              0.0002
 Octapole moment (field-independent basis, Debye-Ang**2):
  XXX=             29.5237  YYY=             -4.2313  ZZZ=             -0.0005  XYY=             14.8315
  XXY=            -37.3878  XXZ=              0.0002  XZZ=             -7.8492  YZZ=              3.1088
  YYZ=              0.0011  XYZ=             -0.0014
 Hexadecapole moment (field-independent basis, Debye-Ang**3):
 XXXX=          -2353.2329 YYYY=           -900.8041 ZZZZ=            -89.4219 XXXY=           -134.5927
 XXXZ=              0.0063 YYYX=             -9.8119 YYYZ=             -0.0009 ZZZX=              0.0009
 ZZZY=             -0.0019 XXYY=           -612.3563 XXZZ=           -526.8433 YYZZ=           -162.7573
 XXYZ=             -0.0019 YYXZ=              0.0024 ZZXY=             -2.5668
 N-N= 7.771510752513D+02 E-N=-3.013522584958D+03  KE= 6.202112606422D+02
  Exact polarizability:       0.000       0.000       0.000       0.000       0.000       0.000
 Approx polarizability:     228.511     -23.891     196.662       0.004       0.002      87.737
 Calling FoFJK, ICntrl=    100127 FMM=F ISym2X=0 I1Cent= 0 IOpClX= 0 NMat=1 NMatS=1 NMatT=0.
 ***** Axes restored to original set *****
 -------------------------------------------------------------------
 Center     Atomic                   Forces (Hartrees/Bohr)
 Number     Number              X              Y              Z
 -------------------------------------------------------------------
      1        7           0.019155818   -0.012885747   -0.002113473
      2        6          -0.011487240    0.007615940    0.001231795
      3        7           0.021452480   -0.008514998   -0.000388804
      4        6          -0.028391462   -0.007392933   -0.005731367
      5        6           0.003248162    0.005551007    0.002263870
      6        6           0.011575206    0.006440075    0.003488066
      7        6          -0.006193105   -0.022753775   -0.008315622
      8        8          -0.015071921    0.014816528    0.003218558
      9        6           0.014668398   -0.004402247    0.000256277
     10        6          -0.007740219   -0.000544708   -0.001060862
     11        8           0.001138833    0.021277344    0.007236624
     12        6          -0.027573287    0.011206580    0.000583816
     13        7           0.023911638   -0.009795542   -0.000535085
     14        1          -0.003091279    0.000420708   -0.000213925
     15        1          -0.001623255    0.002801327    0.000750540
     16        1           0.005008732   -0.002129991   -0.000984554
     17        1          -0.001832357    0.007768984    0.002376006
     18        1           0.004843997   -0.002628699    0.000498874
     19        1          -0.002138089   -0.001467054   -0.002520296
     20        1          -0.002491897   -0.002494143    0.000628203
     21        1          -0.000791697    0.001720524   -0.001841348
     22        1          -0.001265670    0.000339179    0.002289642
     23        1           0.001372862   -0.003324114   -0.000954768
     24        1           0.003315350   -0.001624249   -0.000162167
 -------------------------------------------------------------------
 Cartesian Forces:  Max     0.028391462 RMS     0.009164449
 FormGI is forming the generalized inverse of G from B-inverse, IUseBI=4.

 GradGradGradGradGradGradGradGradGradGradGradGradGradGradGradGradGradGrad
 Berny optimization.
 Internal  Forces:  Max     0.028575545 RMS     0.006177003
 Search for a local minimum.
 Step number   1 out of a maximum of  117
 All quantities printed in internal units (Hartrees-Bohrs-Radians)
 Mixed Optimization -- RFO/linear search
 Second derivative matrix not updated -- analytic derivatives used.
 ITU=  0
     Eigenvalues ---   -0.00238   0.00057   0.00084   0.00257   0.00378
     Eigenvalues ---    0.01122   0.01362   0.01516   0.01775   0.02122
     Eigenvalues ---    0.02430   0.02567   0.03823   0.04439   0.04522
     Eigenvalues ---    0.04932   0.05266   0.05464   0.05734   0.06064
     Eigenvalues ---    0.06374   0.09811   0.10104   0.11044   0.12059
     Eigenvalues ---    0.12073   0.12342   0.12467   0.13296   0.14093
     Eigenvalues ---    0.14303   0.16604   0.18103   0.19112   0.19278
     Eigenvalues ---    0.19876   0.20951   0.22188   0.23081   0.23916
     Eigenvalues ---    0.24950   0.28453   0.29050   0.29186   0.33385
     Eigenvalues ---    0.33863   0.34157   0.34476   0.34785   0.34964
     Eigenvalues ---    0.35013   0.35474   0.35552   0.36166   0.37621
     Eigenvalues ---    0.38121   0.40233   0.42593   0.43820   0.47405
     Eigenvalues ---    0.48940   0.49835   0.50758   0.51571   0.56839
     Eigenvalues ---    0.77741
 RFO step:  Lambda=-1.20560445D-02 EMin=-2.38230605D-03
 Linear search not attempted -- first point.
 Iteration  1 RMS(Cart)=  0.06962376 RMS(Int)=  0.03453887
 Iteration  2 RMS(Cart)=  0.03092751 RMS(Int)=  0.01410104
 Iteration  3 RMS(Cart)=  0.00322271 RMS(Int)=  0.01363087
 Iteration  4 RMS(Cart)=  0.00023583 RMS(Int)=  0.01362972
 Iteration  5 RMS(Cart)=  0.00002542 RMS(Int)=  0.01362971
 Iteration  6 RMS(Cart)=  0.00000277 RMS(Int)=  0.01362971
 Iteration  7 RMS(Cart)=  0.00000030 RMS(Int)=  0.01362971
 Variable       Old X    -DE/DX   Delta X   Delta X   Delta X     New X
                                 (Linear)    (Quad)   (Total)
    R1        2.59691  -0.01745   0.00000  -0.04372  -0.04372   2.55319
    R2        1.89893   0.00007   0.00000   0.00110   0.00110   1.90004
    R3        1.89911   0.00002   0.00000   0.00086   0.00086   1.89996
    R4        2.54280   0.00269   0.00000   0.00533   0.00533   2.54813
    R5        2.54227   0.00145   0.00000   0.01075   0.01074   2.55300
    R6        2.56889  -0.02292   0.00000  -0.05045  -0.05044   2.51845
    R7        2.87475  -0.01116   0.00000  -0.03809  -0.03809   2.83665
    R8        2.67119  -0.00363   0.00000   0.00627   0.00628   2.67747
    R9        2.05898   0.00235   0.00000   0.00584   0.00584   2.06482
   R10        2.06061  -0.00003   0.00000  -0.00033  -0.00033   2.06028
   R11        2.05891   0.00238   0.00000   0.00586   0.00586   2.06477
   R12        2.83723  -0.01730   0.00000  -0.05303  -0.05303   2.78420
   R13        2.65855  -0.00476   0.00000  -0.00668  -0.00669   2.65186
   R14        2.55937  -0.00842   0.00000   0.00471   0.00471   2.56408
   R15        2.32770  -0.02238   0.00000  -0.02581  -0.02581   2.30189
   R16        2.68354   0.00579   0.00000   0.03628   0.03628   2.71981
   R17        2.89188  -0.00735   0.00000  -0.02825  -0.02825   2.86362
   R18        2.06328   0.00234   0.00000   0.00490   0.00490   2.06817
   R19        2.06341   0.00230   0.00000   0.00472   0.00472   2.06812
   R20        2.06017   0.00249   0.00000   0.00629   0.00629   2.06646
   R21        2.06018   0.00248   0.00000   0.00623   0.00623   2.06641
   R22        2.05931   0.00255   0.00000   0.00769   0.00769   2.06700
   R23        2.56458  -0.02858   0.00000  -0.06169  -0.06171   2.50288
   R24        2.04448   0.00202   0.00000   0.00725   0.00725   2.05174
    A1        2.06113   0.00185   0.00000   0.01904  -0.04897   2.01216
    A2        2.05901   0.00223   0.00000   0.02121  -0.04679   2.01222
    A3        2.16305  -0.00408   0.00000  -0.04026  -0.12929   2.03375
    A4        2.03566  -0.00180   0.00000  -0.00114  -0.00128   2.03438
    A5        2.03558  -0.00167   0.00000   0.00019   0.00005   2.03563
    A6        2.21194   0.00347   0.00000   0.00095   0.00080   2.21275
    A7        2.03271   0.00091   0.00000   0.01728   0.01731   2.05001
    A8        1.97964   0.01156   0.00000   0.04177   0.04176   2.02140
    A9        2.13680  -0.00802   0.00000  -0.03026  -0.03024   2.10655
   A10        2.16675  -0.00355   0.00000  -0.01151  -0.01152   2.15523
   A11        1.92191   0.00241   0.00000   0.01142   0.01154   1.93345
   A12        1.96210  -0.01145   0.00000  -0.06075  -0.06052   1.90157
   A13        1.92202   0.00240   0.00000   0.01356   0.01371   1.93573
   A14        1.88138   0.00546   0.00000   0.03826   0.03844   1.91982
   A15        1.89299  -0.00405   0.00000  -0.04128  -0.04123   1.85175
   A16        1.88151   0.00546   0.00000   0.03956   0.03981   1.92132
   A17        2.16390  -0.00736   0.00000  -0.02363  -0.02364   2.14026
   A18        2.01026   0.00766   0.00000   0.01779   0.01777   2.02803
   A19        2.10902  -0.00030   0.00000   0.00584   0.00583   2.11485
   A20        1.97253  -0.00748   0.00000  -0.02096  -0.02096   1.95158
   A21        2.16808   0.00642   0.00000   0.02970   0.02970   2.19778
   A22        2.14257   0.00106   0.00000  -0.00874  -0.00874   2.13383
   A23        2.10255  -0.02084   0.00000  -0.09388  -0.09388   2.00867
   A24        1.89439  -0.00456   0.00000  -0.01936  -0.01915   1.87524
   A25        1.92227  -0.00030   0.00000  -0.01758  -0.01739   1.90487
   A26        1.92215  -0.00028   0.00000  -0.01763  -0.01745   1.90471
   A27        1.92476   0.00335   0.00000   0.02931   0.02892   1.95368
   A28        1.92476   0.00335   0.00000   0.02925   0.02886   1.95362
   A29        1.87572  -0.00146   0.00000  -0.00366  -0.00458   1.87114
   A30        1.93816  -0.00040   0.00000  -0.00250  -0.00252   1.93564
   A31        1.93817  -0.00040   0.00000  -0.00261  -0.00263   1.93553
   A32        1.93452  -0.00355   0.00000  -0.01572  -0.01576   1.91876
   A33        1.88486   0.00074   0.00000   0.00552   0.00552   1.89038
   A34        1.88298   0.00192   0.00000   0.00817   0.00813   1.89112
   A35        1.88295   0.00192   0.00000   0.00826   0.00822   1.89117
   A36        2.15406   0.00203   0.00000   0.00918   0.00915   2.16321
   A37        2.12445  -0.00418   0.00000  -0.03785  -0.03784   2.08662
   A38        2.00467   0.00215   0.00000   0.02867   0.02868   2.03335
   A39        2.02060  -0.00605   0.00000  -0.01494  -0.01498   2.00562
    D1        3.14154   0.00000   0.00000   0.35805   0.33209  -2.80956
    D2       -0.00004   0.00000   0.00000   0.38748   0.36150   0.36145
    D3       -0.00007   0.00000   0.00000  -0.38657  -0.36059  -0.36066
    D4        3.14153   0.00000   0.00000  -0.35715  -0.33118   2.81035
    D5       -3.14157  -0.00000   0.00000   0.05222   0.05227  -3.08930
    D6        0.00002   0.00000   0.00000   0.01940   0.01945   0.01946
    D7        3.14157   0.00000   0.00000  -0.05245  -0.05241   3.08915
    D8       -0.00002  -0.00000   0.00000  -0.01963  -0.01957  -0.01959
    D9       -3.14153  -0.00000   0.00000  -0.00030  -0.00030   3.14136
   D10       -0.00005   0.00000   0.00000  -0.00292  -0.00292  -0.00297
   D11       -2.09828  -0.00099   0.00000  -0.01392  -0.01387  -2.11215
   D12       -0.00018   0.00001   0.00000   0.00219   0.00220   0.00202
   D13        2.09817   0.00099   0.00000   0.02143   0.02133   2.11950
   D14        1.04344  -0.00100   0.00000  -0.01124  -0.01117   1.03227
   D15        3.14154   0.00000   0.00000   0.00487   0.00490  -3.13674
   D16       -1.04331   0.00099   0.00000   0.02411   0.02404  -1.01927
   D17        3.14155  -0.00000   0.00000   0.00067   0.00059  -3.14104
   D18        0.00009  -0.00000   0.00000  -0.01046  -0.01049  -0.01041
   D19       -0.00017   0.00000   0.00000  -0.00223  -0.00224  -0.00241
   D20        3.14155   0.00000   0.00000  -0.01336  -0.01332   3.12823
   D21       -3.14143   0.00000   0.00000  -0.00409  -0.00403   3.13772
   D22        0.00023  -0.00000   0.00000  -0.00501  -0.00497  -0.00473
   D23        0.00002   0.00000   0.00000   0.00764   0.00759   0.00762
   D24       -3.14150  -0.00000   0.00000   0.00672   0.00666  -3.13483
   D25       -0.00009   0.00000   0.00000   0.01019   0.01027   0.01017
   D26        3.14157  -0.00000   0.00000   0.01433   0.01439  -3.12722
   D27       -3.14156   0.00000   0.00000  -0.00055  -0.00064   3.14098
   D28        0.00010  -0.00000   0.00000   0.00359   0.00348   0.00358
   D29       -3.14154  -0.00000   0.00000  -0.00157  -0.00157   3.14008
   D30       -0.00002   0.00000   0.00000  -0.00066  -0.00067  -0.00069
   D31       -3.14152  -0.00000   0.00000   0.00096   0.00096  -3.14056
   D32        1.03291  -0.00108   0.00000  -0.01216  -0.01213   1.02078
   D33       -1.03284   0.00108   0.00000   0.01398   0.01396  -1.01888
   D34       -1.04884  -0.00020   0.00000  -0.00186  -0.00185  -1.05069
   D35        1.04877   0.00020   0.00000   0.00169   0.00168   1.05045
   D36        3.14154   0.00000   0.00000  -0.00007  -0.00007   3.14147
   D37        1.05837  -0.00138   0.00000  -0.01775  -0.01803   1.04035
   D38       -3.12720  -0.00099   0.00000  -0.01421  -0.01450   3.14148
   D39       -1.03443  -0.00118   0.00000  -0.01596  -0.01625  -1.05068
   D40        3.12728   0.00098   0.00000   0.01414   0.01443  -3.14148
   D41       -1.05830   0.00138   0.00000   0.01768   0.01796  -1.04034
   D42        1.03447   0.00118   0.00000   0.01593   0.01621   1.05068
   D43        0.00006  -0.00000   0.00000   0.00350   0.00358   0.00364
   D44        3.14159   0.00000   0.00000  -0.00038  -0.00043   3.14116
         Item               Value     Threshold  Converged?
 Maximum Force            0.028576     0.000450     NO 
 RMS     Force            0.006177     0.000300     NO 
 Maximum Displacement     0.300080     0.001800     NO 
 RMS     Displacement     0.085500     0.001200     NO 
 Predicted change in Energy=-6.905599D-03
 GradGradGradGradGradGradGradGradGradGradGradGradGradGradGradGradGradGrad

                          Input orientation:                          
 ---------------------------------------------------------------------
 Center     Atomic      Atomic             Coordinates (Angstroms)
 Number     Number       Type             X           Y           Z
 ---------------------------------------------------------------------
      1          7           0       -3.923990    2.099449    0.338550
      2          6           0       -2.776844    1.409682    0.154911
      3          7           0       -2.899084    0.147101   -0.302439
      4          6           0       -1.783416   -0.570274   -0.431931
      5          6           0       -1.962009   -1.970185   -0.943429
      6          6           0       -0.523111   -0.013599   -0.101438
      7          6           0        0.736334   -0.767448   -0.228826
      8          8           0        1.808949   -0.023585    0.141599
      9          6           0        3.078894   -0.694121    0.046203
     10          6           0        4.144222    0.284220    0.498150
     11          8           0        0.844780   -1.917944   -0.614036
     12          6           0       -0.531611    1.315966    0.347390
     13          7           0       -1.629751    2.044151    0.481722
     14          1           0       -3.821543    3.098560    0.385705
     15          1           0       -4.719467    1.753130   -0.169530
     16          1           0       -1.578530   -2.697632   -0.223944
     17          1           0       -3.022214   -2.148370   -1.124732
     18          1           0       -1.392894   -2.124844   -1.863229
     19          1           0        3.235487   -1.020896   -0.986500
     20          1           0        3.057807   -1.592755    0.670487
     21          1           0        4.150461    1.174852   -0.136298
     22          1           0        3.971538    0.599324    1.530926
     23          1           0        5.130301   -0.185764    0.441703
     24          1           0        0.405591    1.800981    0.602785
 ---------------------------------------------------------------------
                    Distance matrix (angstroms):
                    1          2          3          4          5
     1  N    0.000000
     2  C    1.351090   0.000000
     3  N    2.296293   1.348415   0.000000
     4  C    3.507580   2.291617   1.332708   0.000000
     5  C    4.696249   3.646067   2.402473   1.501092   0.000000
     6  C    4.027969   2.677827   2.389869   1.416856   2.570526
     7  C    5.500876   4.150852   3.749411   2.535601   3.039456
     8  O    6.116588   4.804574   4.732006   3.678708   4.380258
     9  C    7.545189   6.223141   6.046936   4.887332   5.293243
    10  C    8.271431   7.020373   7.089986   6.060701   6.666824
    11  O    6.307775   4.978005   4.286959   2.959187   2.826533
    12  C    3.481689   2.255416   2.719090   2.394214   3.809336
    13  N    2.299367   1.350992   2.413485   2.773732   4.272744
    14  H    1.005455   1.999242   3.167898   4.275843   5.560273
    15  H    1.005418   1.999250   2.431211   3.753326   4.697400
    16  H    5.369317   4.295290   3.137281   2.147298   1.092655
    17  H    4.582396   3.789119   2.441416   2.122493   1.090254
    18  H    5.394343   4.298963   3.141085   2.148909   1.092632
    19  H    7.921516   6.584729   6.282127   5.069517   5.283652
    20  H    7.904938   6.582067   6.281579   5.069343   5.286372
    21  H    8.141076   6.937399   7.126006   6.192234   6.921345
    22  H    8.124746   6.934750   7.125390   6.191952   6.923279
    23  H    9.338791   8.071594   8.070661   6.979295   7.443360
    24  H    4.347893   3.237530   3.804685   3.388988   4.713597
                    6          7          8          9         10
     6  C    0.000000
     7  C    1.473336   0.000000
     8  O    2.344711   1.356852   0.000000
     9  C    3.668699   2.359789   1.439264   0.000000
    10  C    4.715103   3.639807   2.382304   1.515364   0.000000
    11  O    2.400086   1.218109   2.255925   2.631526   4.119806
    12  C    1.403304   2.506057   2.704620   4.143297   4.790683
    13  N    2.408124   3.742770   4.026894   5.464352   6.036256
    14  H    4.560975   6.008153   6.442811   7.881353   8.449057
    15  H    4.553610   6.010207   6.773015   8.176186   9.009354
    16  H    2.886685   3.014006   4.331185   5.077267   6.493285
    17  H    3.442366   4.103203   5.427562   6.380396   7.740092
    18  H    2.884057   3.007891   4.322779   5.068509   6.483775
    19  H    3.990620   2.623751   2.074186   1.094431   2.175617
    20  H    3.989058   2.622810   2.074045   1.094403   2.175553
    21  H    4.822439   3.929040   2.645026   2.162087   1.093521
    22  H    4.821013   3.928274   2.644813   2.161993   1.093497
    23  H    5.682052   4.482734   3.338824   2.150143   1.093811
    24  H    2.156645   2.719888   2.347583   3.698901   4.035947
                   11         12         13         14         15
    11  O    0.000000
    12  C    3.643757   0.000000
    13  N    4.798143   1.324466   0.000000
    14  H    6.923825   3.742026   2.434122   0.000000
    15  H    6.680958   4.242223   3.170988   1.710185   0.000000
    16  H    2.575367   4.187055   4.794277   6.244887   5.447727
    17  H    3.907370   4.513520   4.700731   5.518207   4.360594
    18  H    2.571083   4.179452   4.789094   6.183849   5.382694
    19  H    2.580486   4.629386   5.934706   8.285803   8.464275
    20  H    2.579387   4.631304   5.935985   8.331566   8.508029
    21  H    4.552049   4.709105   5.877796   8.217420   8.888821
    22  H    4.551276   4.710912   5.879013   8.263766   8.930643
    23  H    4.741384   5.858441   7.118456   9.535482  10.057377
    24  H    3.937504   1.085732   2.053389   4.427132   5.183144
                   16         17         18         19         20
    16  H    0.000000
    17  H    1.788108   0.000000
    18  H    1.746368   1.789026   0.000000
    19  H    5.154387   6.359963   4.838312   0.000000
    20  H    4.849369   6.363817   5.148939   1.761873   0.000000
    21  H    6.915574   7.966685   6.678254   2.526130   3.082928
    22  H    6.689749   7.969624   6.907858   3.082906   2.525959
    23  H    7.194510   8.530477   7.185041   2.515458   2.515392
    24  H    4.985753   5.507407   4.972713   4.300829   4.307700
                   21         22         23         24
    21  H    0.000000
    22  H    1.772817   0.000000
    23  H    1.773540   1.773555   0.000000
    24  H    3.868118   3.875746   5.127961   0.000000
 Stoichiometry    C8H11N3O2
 Framework group  C1[X(C8H11N3O2)]
 Deg. of freedom    66
 Full point group                 C1      NOp   1
 Largest Abelian subgroup         C1      NOp   1
 Largest concise Abelian subgroup C1      NOp   1
                         Standard orientation:                         
 ---------------------------------------------------------------------
 Center     Atomic      Atomic             Coordinates (Angstroms)
 Number     Number       Type             X           Y           Z
 ---------------------------------------------------------------------
      1          7           0        3.982106   -1.190542    0.071491
      2          6           0        2.706522   -0.749782    0.007772
      3          7           0        2.530136    0.587028    0.000876
      4          6           0        1.277330    1.041548    0.000218
      5          6           0        1.123627    2.534731   -0.007233
      6          6           0        0.181890    0.142947    0.002946
      7          6           0       -1.219258    0.598471    0.001659
      8          8           0       -2.088278   -0.443570   -0.000077
      9          6           0       -3.480185   -0.077409    0.000551
     10          6           0       -4.287280   -1.359956   -0.000095
     11          8           0       -1.593934    1.757524    0.002897
     12          6           0        0.501453   -1.223452   -0.006802
     13          7           0        1.739758   -1.693357   -0.006874
     14          1           0        4.122584   -2.142641   -0.219565
     15          1           0        4.680871   -0.526160   -0.213446
     16          1           0        0.561450    2.870903    0.867318
     17          1           0        2.113096    2.992522   -0.012985
     18          1           0        0.552967    2.863651   -0.879014
     19          1           0       -3.689755    0.538017   -0.879852
     20          1           0       -3.689131    0.536652    0.882020
     21          1           0       -4.065648   -1.959979   -0.887023
     22          1           0       -4.064912   -1.961196    0.885794
     23          1           0       -5.356205   -1.127963    0.000478
     24          1           0       -0.296219   -1.959922   -0.018837
 ---------------------------------------------------------------------
 Rotational constants (GHZ):           1.6434937           0.4540335           0.3581981
 Standard basis: 6-31G(d,p) (6D, 7F)
 There are   250 symmetry adapted cartesian basis functions of A   symmetry.
 There are   250 symmetry adapted basis functions of A   symmetry.
   250 basis functions,   441 primitive gaussians,   250 cartesian basis functions
    48 alpha electrons       48 beta electrons
       nuclear repulsion energy       784.9459986342 Hartrees.
 NAtoms=   24 NActive=   24 NUniq=   24 SFac= 1.00D+00 NAtFMM=   60 NAOKFM=F Big=F
 Integral buffers will be    131072 words long.
 Raffenetti 2 integral format.
 Two-electron integral symmetry is turned on.
 Nuclear repulsion after empirical dispersion term =      784.9049182900 Hartrees.
 One-electron integrals computed using PRISM.
 NBasis=   250 RedAO= T EigKep=  9.27D-04  NBF=   250
 NBsUse=   250 1.00D-06 EigRej= -1.00D+00 NBFU=   250
 Initial guess from the checkpoint file:  "pyrmd1_conf-1.chk"
 B after Tr=     0.000000   -0.000000   -0.000000
         Rot=    0.999995    0.000012   -0.000023   -0.003162 Ang=   0.36 deg.
 ExpMin= 1.61D-01 ExpMax= 5.48D+03 ExpMxC= 8.25D+02 IAcc=3 IRadAn=         5 AccDes= 0.00D+00
 Harris functional with IExCor=  402 and IRadAn=       5 diagonalized for initial guess.
 HarFok:  IExCor=  402 AccDes= 0.00D+00 IRadAn=         5 IDoV= 1 UseB2=F ITyADJ=14
 ICtDFT=  3500011 ScaDFX=  1.000000  1.000000  1.000000  1.000000
 FoFCou: FMM=F IPFlag=           0 FMFlag=      100000 FMFlg1=           0
         NFxFlg=           0 DoJE=T BraDBF=F KetDBF=T FulRan=T
         wScrn=  0.000000 ICntrl=       500 IOpCl=  0 I1Cent=   200000004 NGrid=           0
         NMat0=    1 NMatS0=      1 NMatT0=    0 NMatD0=    1 NMtDS0=    0 NMtDT0=    0
 Petite list used in FoFCou.
 Requested convergence on RMS density matrix=1.00D-08 within 128 cycles.
 Requested convergence on MAX density matrix=1.00D-06.
 Requested convergence on             energy=1.00D-06.
 No special actions if energy rises.
 Integral accuracy reduced to 1.0D-05 until final iterations.
 Initial convergence to 1.0D-05 achieved.  Increase integral accuracy.
 SCF Done:  E(RB3LYP) =  -626.275387994     A.U. after   13 cycles
            NFock= 13  Conv=0.37D-08     -V/T= 2.0092
 Calling FoFJK, ICntrl=      2127 FMM=F ISym2X=0 I1Cent= 0 IOpClX= 0 NMat=1 NMatS=1 NMatT=0.
 ***** Axes restored to original set *****
 -------------------------------------------------------------------
 Center     Atomic                   Forces (Hartrees/Bohr)
 Number     Number              X              Y              Z
 -------------------------------------------------------------------
      1        7          -0.006217873    0.005304595   -0.002922946
      2        6           0.008747730   -0.006298610    0.000470910
      3        7          -0.000624622    0.002263569    0.000719593
      4        6           0.001522772   -0.001667985   -0.000557244
      5        6          -0.000789033   -0.000249209   -0.000203223
      6        6          -0.000962335    0.000896070    0.000263795
      7        6           0.000606827   -0.000112791    0.000098229
      8        8          -0.000959102   -0.000297704   -0.000205772
      9        6           0.003178678   -0.000448520    0.000186884
     10        6          -0.000244446    0.000503870    0.000145893
     11        8          -0.000596168   -0.000377182   -0.000208327
     12        6           0.002518482   -0.001357208   -0.000385252
     13        7          -0.002706141    0.000419636   -0.000109206
     14        1          -0.000027982    0.003665357    0.002541698
     15        1          -0.003921980   -0.002134744    0.000172435
     16        1           0.000640800   -0.000141484   -0.000299688
     17        1          -0.000260996    0.000438728    0.000116915
     18        1           0.000586796   -0.000333759    0.000283110
     19        1          -0.000418819    0.000117895   -0.000074769
     20        1          -0.000432656    0.000074449    0.000047222
     21        1           0.000000559    0.000066903   -0.000087870
     22        1          -0.000021169   -0.000000172    0.000109307
     23        1           0.000095713   -0.000158572   -0.000044418
     24        1           0.000284967   -0.000173133   -0.000057275
 -------------------------------------------------------------------
 Cartesian Forces:  Max     0.008747730 RMS     0.001957860

 GradGradGradGradGradGradGradGradGradGradGradGradGradGradGradGradGradGrad
 Berny optimization.
 Using GEDIIS/GDIIS optimizer.
 FormGI is forming the generalized inverse of G from B-inverse, IUseBI=4.
 Internal  Forces:  Max     0.012094277 RMS     0.001485029
 Search for a local minimum.
 Step number   2 out of a maximum of  117
 All quantities printed in internal units (Hartrees-Bohrs-Radians)
 Mixed Optimization -- RFO/linear search
 Update second derivatives using D2CorX and points    1    2
 DE= -5.32D-03 DEPred=-6.91D-03 R= 7.70D-01
 TightC=F SS=  1.41D+00  RLast= 7.46D-01 DXNew= 5.0454D-01 2.2386D+00
 Trust test= 7.70D-01 RLast= 7.46D-01 DXMaxT set to 5.05D-01
 ITU=  1  0
 Use linear search instead of GDIIS.
     Eigenvalues ---   -0.00397   0.00057   0.00084   0.00257   0.00378
     Eigenvalues ---    0.01121   0.01361   0.01516   0.01774   0.02121
     Eigenvalues ---    0.02429   0.02566   0.03821   0.04438   0.04522
     Eigenvalues ---    0.04906   0.05260   0.05424   0.05733   0.06064
     Eigenvalues ---    0.06373   0.09267   0.09861   0.11043   0.11979
     Eigenvalues ---    0.12058   0.12323   0.12387   0.13261   0.14035
     Eigenvalues ---    0.14087   0.16603   0.17734   0.19068   0.19231
     Eigenvalues ---    0.19644   0.20974   0.21537   0.23030   0.23884
     Eigenvalues ---    0.24926   0.28273   0.28922   0.29171   0.33380
     Eigenvalues ---    0.33863   0.34102   0.34433   0.34785   0.34959
     Eigenvalues ---    0.35013   0.35475   0.35490   0.35997   0.37602
     Eigenvalues ---    0.38074   0.41349   0.42828   0.43598   0.47395
     Eigenvalues ---    0.48156   0.49797   0.49939   0.51569   0.58330
     Eigenvalues ---    0.76376
 RFO step:  Lambda=-5.75132655D-03 EMin=-3.97370147D-03
 Quartic linear search produced a step of -0.17467.
 Iteration  1 RMS(Cart)=  0.04775725 RMS(Int)=  0.06097386
 Iteration  2 RMS(Cart)=  0.03594476 RMS(Int)=  0.03005146
 Iteration  3 RMS(Cart)=  0.01075477 RMS(Int)=  0.02791104
 Iteration  4 RMS(Cart)=  0.00159589 RMS(Int)=  0.02786777
 Iteration  5 RMS(Cart)=  0.00025419 RMS(Int)=  0.02786678
 Iteration  6 RMS(Cart)=  0.00003864 RMS(Int)=  0.02786676
 Iteration  7 RMS(Cart)=  0.00000596 RMS(Int)=  0.02786676
 Iteration  8 RMS(Cart)=  0.00000092 RMS(Int)=  0.02786676
 Variable       Old X    -DE/DX   Delta X   Delta X   Delta X     New X
                                 (Linear)    (Quad)   (Total)
    R1        2.55319   0.01209   0.00764  -0.00436   0.00328   2.55647
    R2        1.90004   0.00376  -0.00019   0.00895   0.00876   1.90880
    R3        1.89996   0.00375  -0.00015   0.00872   0.00857   1.90854
    R4        2.54813  -0.00051  -0.00093  -0.00018  -0.00108   2.54705
    R5        2.55300  -0.00032  -0.00188   0.00435   0.00250   2.55550
    R6        2.51845   0.00258   0.00881  -0.03474  -0.02592   2.49253
    R7        2.83665   0.00028   0.00665  -0.03065  -0.02400   2.81265
    R8        2.67747   0.00013  -0.00110   0.00475   0.00363   2.68110
    R9        2.06482   0.00012  -0.00102   0.00527   0.00425   2.06907
   R10        2.06028   0.00016   0.00006  -0.00014  -0.00009   2.06020
   R11        2.06477   0.00011  -0.00102   0.00521   0.00418   2.06896
   R12        2.78420   0.00136   0.00926  -0.03524  -0.02598   2.75822
   R13        2.65186  -0.00023   0.00117  -0.00731  -0.00617   2.64569
   R14        2.56408   0.00089  -0.00082   0.00186   0.00104   2.56512
   R15        2.30189   0.00037   0.00451  -0.02133  -0.01682   2.28507
   R16        2.71981   0.00181  -0.00634   0.03522   0.02888   2.74870
   R17        2.86362   0.00018   0.00493  -0.02296  -0.01803   2.84560
   R18        2.06817  -0.00002  -0.00086   0.00374   0.00288   2.07105
   R19        2.06812  -0.00003  -0.00082   0.00368   0.00286   2.07098
   R20        2.06646   0.00011  -0.00110   0.00522   0.00413   2.07058
   R21        2.06641   0.00011  -0.00109   0.00527   0.00418   2.07059
   R22        2.06700   0.00016  -0.00134   0.00678   0.00543   2.07244
   R23        2.50288   0.00321   0.01078  -0.04190  -0.03114   2.47174
   R24        2.05174   0.00016  -0.00127   0.00594   0.00468   2.05641
    A1        2.01216   0.00140   0.00855   0.23752   0.08374   2.09589
    A2        2.01222   0.00146   0.00817   0.23964   0.08549   2.09771
    A3        2.03375   0.00009   0.02258   0.16565   0.01894   2.05269
    A4        2.03438   0.00058   0.00022  -0.00067  -0.00072   2.03366
    A5        2.03563   0.00060  -0.00001   0.00067   0.00038   2.03601
    A6        2.21275  -0.00117  -0.00014   0.00104   0.00071   2.21345
    A7        2.05001   0.00114  -0.00302   0.01637   0.01343   2.06344
    A8        2.02140   0.00027  -0.00729   0.03394   0.02664   2.04804
    A9        2.10655  -0.00033   0.00528  -0.02707  -0.02178   2.08478
   A10        2.15523   0.00006   0.00201  -0.00687  -0.00486   2.15036
   A11        1.93345   0.00017  -0.00202   0.01173   0.00977   1.94322
   A12        1.90157  -0.00057   0.01057  -0.05110  -0.04046   1.86111
   A13        1.93573   0.00015  -0.00239   0.00937   0.00700   1.94273
   A14        1.91982   0.00043  -0.00671   0.03649   0.02986   1.94968
   A15        1.85175  -0.00060   0.00720  -0.03971  -0.03249   1.81927
   A16        1.92132   0.00044  -0.00695   0.03548   0.02856   1.94987
   A17        2.14026   0.00010   0.00413  -0.02030  -0.01617   2.12408
   A18        2.02803  -0.00021  -0.00310   0.01560   0.01245   2.04048
   A19        2.11485   0.00012  -0.00102   0.00479   0.00377   2.11862
   A20        1.95158  -0.00029   0.00366  -0.01899  -0.01533   1.93624
   A21        2.19778  -0.00059  -0.00519   0.02059   0.01540   2.21318
   A22        2.13383   0.00088   0.00153  -0.00160  -0.00007   2.13376
   A23        2.00867   0.00327   0.01640  -0.05943  -0.04304   1.96563
   A24        1.87524  -0.00025   0.00335  -0.01821  -0.01479   1.86045
   A25        1.90487  -0.00019   0.00304  -0.01700  -0.01388   1.89099
   A26        1.90471  -0.00019   0.00305  -0.01677  -0.01364   1.89107
   A27        1.95368   0.00032  -0.00505   0.02598   0.02075   1.97443
   A28        1.95362   0.00033  -0.00504   0.02610   0.02088   1.97450
   A29        1.87114  -0.00004   0.00080  -0.00193  -0.00150   1.86964
   A30        1.93564   0.00000   0.00044  -0.00260  -0.00217   1.93347
   A31        1.93553   0.00000   0.00046  -0.00250  -0.00205   1.93348
   A32        1.91876  -0.00016   0.00275  -0.01385  -0.01111   1.90765
   A33        1.89038   0.00003  -0.00096   0.00547   0.00451   1.89489
   A34        1.89112   0.00006  -0.00142   0.00712   0.00569   1.89680
   A35        1.89117   0.00006  -0.00144   0.00709   0.00565   1.89681
   A36        2.16321  -0.00015  -0.00160   0.00598   0.00436   2.16757
   A37        2.08662  -0.00023   0.00661  -0.02997  -0.02336   2.06326
   A38        2.03335   0.00038  -0.00501   0.02401   0.01901   2.05236
   A39        2.00562   0.00072   0.00262  -0.01162  -0.00897   1.99665
    D1       -2.80956  -0.00187  -0.05800  -0.43632  -0.47354   3.00008
    D2        0.36145  -0.00202  -0.06314  -0.47204  -0.51438  -0.15293
    D3       -0.36066   0.00204   0.06298   0.47226   0.51444   0.15378
    D4        2.81035   0.00189   0.05785   0.43654   0.47360  -2.99924
    D5       -3.08930  -0.00018  -0.00913  -0.05523  -0.06440   3.12948
    D6        0.01946   0.00003  -0.00340  -0.01537  -0.01882   0.00065
    D7        3.08915   0.00019   0.00915   0.05563   0.06476  -3.12928
    D8       -0.01959  -0.00002   0.00342   0.01577   0.01913  -0.00045
    D9        3.14136  -0.00000   0.00005   0.00063   0.00069  -3.14114
   D10       -0.00297  -0.00000   0.00051   0.00324   0.00374   0.00077
   D11       -2.11215  -0.00026   0.00242  -0.01755  -0.01508  -2.12724
   D12        0.00202   0.00001  -0.00038   0.00190   0.00151   0.00353
   D13        2.11950   0.00028  -0.00373   0.01846   0.01474   2.13424
   D14        1.03227  -0.00026   0.00195  -0.02021  -0.01824   1.01403
   D15       -3.13674   0.00001  -0.00086  -0.00076  -0.00165  -3.13839
   D16       -1.01927   0.00027  -0.00420   0.01580   0.01159  -1.00768
   D17       -3.14104  -0.00003  -0.00010  -0.00292  -0.00294   3.13921
   D18       -0.01041  -0.00005   0.00183   0.00633   0.00820  -0.00220
   D19       -0.00241  -0.00003   0.00039  -0.00004   0.00036  -0.00205
   D20        3.12823  -0.00004   0.00233   0.00921   0.01150   3.13972
   D21        3.13772  -0.00001   0.00070   0.00376   0.00442  -3.14105
   D22       -0.00473   0.00000   0.00087   0.00450   0.00532   0.00059
   D23        0.00762   0.00001  -0.00133  -0.00598  -0.00727   0.00035
   D24       -3.13483   0.00002  -0.00116  -0.00525  -0.00636  -3.14119
   D25        0.01017   0.00005  -0.00179  -0.00582  -0.00766   0.00251
   D26       -3.12722   0.00003  -0.00251  -0.01038  -0.01293  -3.14015
   D27        3.14098   0.00004   0.00011   0.00311   0.00330  -3.13890
[...]
                 (A) (A) (A) (A) (A) (A) (A) (A) (A) (A) (A) (A)
                 (A) (A) (A) (A) (A) (A) (A) (A) (A) (A) (A) (A)
                 (A) (A) (A) (A) (A) (A) (A) (A) (A) (A) (A) (A)
                 (A)
 The electronic state is 1-A.
 Alpha  occ. eigenvalues --  -19.66923 -19.61331 -14.77353 -14.75266 -14.75076
 Alpha  occ. eigenvalues --  -10.67662 -10.65631 -10.61092 -10.59842 -10.59640
 Alpha  occ. eigenvalues --  -10.55605 -10.53650 -10.52848  -1.22930  -1.13563
 Alpha  occ. eigenvalues --   -1.12190  -1.02212  -1.00329  -0.90421  -0.86827
 Alpha  occ. eigenvalues --   -0.82368  -0.76189  -0.73188  -0.71132  -0.66225
 Alpha  occ. eigenvalues --   -0.63471  -0.60999  -0.60101  -0.57719  -0.56665
 Alpha  occ. eigenvalues --   -0.54983  -0.53294  -0.50095  -0.49827  -0.48372
 Alpha  occ. eigenvalues --   -0.47508  -0.46531  -0.46222  -0.44846  -0.43122
 Alpha  occ. eigenvalues --   -0.42570  -0.40034  -0.39825  -0.37468  -0.37063
 Alpha  occ. eigenvalues --   -0.35320  -0.32309  -0.29266
 Alpha virt. eigenvalues --   -0.01175  -0.00320   0.06496   0.06857   0.08958
 Alpha virt. eigenvalues --    0.09063   0.10636   0.11247   0.12460   0.13203
 Alpha virt. eigenvalues --    0.13416   0.14017   0.14950   0.15639   0.16038
 Alpha virt. eigenvalues --    0.16336   0.18564   0.19409   0.19752   0.20043
 Alpha virt. eigenvalues --    0.22482   0.23000   0.24074   0.25979   0.26060
 Alpha virt. eigenvalues --    0.26091   0.26530   0.27151   0.27453   0.28472
 Alpha virt. eigenvalues --    0.29336   0.31109   0.31497   0.31841   0.32942
 Alpha virt. eigenvalues --    0.33148   0.34455   0.36302   0.36971   0.37589
 Alpha virt. eigenvalues --    0.38048   0.38600   0.40187   0.40713   0.41632
 Alpha virt. eigenvalues --    0.43363   0.43868   0.44535   0.45263   0.45655
 Alpha virt. eigenvalues --    0.46176   0.46865   0.46939   0.47632   0.47788
 Alpha virt. eigenvalues --    0.49316   0.49993   0.50517   0.51569   0.51906
 Alpha virt. eigenvalues --    0.52216   0.52451   0.53246   0.53569   0.54711
 Alpha virt. eigenvalues --    0.55890   0.56153   0.57690   0.58563   0.59732
 Alpha virt. eigenvalues --    0.61866   0.62023   0.62861   0.64562   0.64763
 Alpha virt. eigenvalues --    0.65051   0.65956   0.68181   0.69243   0.69628
 Alpha virt. eigenvalues --    0.70772   0.71837   0.72350   0.73539   0.74569
 Alpha virt. eigenvalues --    0.74837   0.75743   0.77339   0.78273   0.78458
 Alpha virt. eigenvalues --    0.79947   0.82694   0.83748   0.87173   0.87919
 Alpha virt. eigenvalues --    0.88396   0.89234   0.90589   0.90774   0.92333
 Alpha virt. eigenvalues --    0.94711   0.96274   0.96880   0.97947   0.98523
 Alpha virt. eigenvalues --    1.00707   1.02949   1.05429   1.06780   1.07834
 Alpha virt. eigenvalues --    1.09348   1.09454   1.10395   1.12280   1.12900
 Alpha virt. eigenvalues --    1.15668   1.16592   1.18029   1.21424   1.23596
 Alpha virt. eigenvalues --    1.26946   1.30247   1.30813   1.32211   1.32650
 Alpha virt. eigenvalues --    1.35262   1.36879   1.38916   1.39632   1.41637
 Alpha virt. eigenvalues --    1.43209   1.44527   1.45537   1.47073   1.48617
 Alpha virt. eigenvalues --    1.49679   1.52355   1.52994   1.53504   1.54375
 Alpha virt. eigenvalues --    1.55660   1.56616   1.57580   1.58056   1.59048
 Alpha virt. eigenvalues --    1.59663   1.60111   1.60644   1.60886   1.61627
 Alpha virt. eigenvalues --    1.63426   1.63991   1.64113   1.66205   1.67389
 Alpha virt. eigenvalues --    1.68333   1.68995   1.69866   1.71396   1.73449
 Alpha virt. eigenvalues --    1.74452   1.76905   1.78331   1.78807   1.81409
 Alpha virt. eigenvalues --    1.82094   1.83112   1.84185   1.85096   1.85658
 Alpha virt. eigenvalues --    1.87148   1.90202   1.90291   1.92318   1.93725
 Alpha virt. eigenvalues --    1.96115   1.98984   2.00284   2.00552   2.03549
 Alpha virt. eigenvalues --    2.04294   2.06477   2.07356   2.07961   2.09332
 Alpha virt. eigenvalues --    2.10662   2.12295   2.13970   2.15168   2.16394
 Alpha virt. eigenvalues --    2.17578   2.19503   2.21671   2.23943   2.27048
 Alpha virt. eigenvalues --    2.28947   2.29312   2.30145   2.31586   2.32801
 Alpha virt. eigenvalues --    2.34127   2.34316   2.35135   2.36156   2.37422
 Alpha virt. eigenvalues --    2.39808   2.41192   2.42195   2.42527   2.42628
 Alpha virt. eigenvalues --    2.45465   2.45731   2.46713   2.48482   2.52893
 Alpha virt. eigenvalues --    2.54456   2.55658   2.55840   2.56478   2.57240
 Alpha virt. eigenvalues --    2.58807   2.59746   2.62336   2.62540   2.63629
 Alpha virt. eigenvalues --    2.64791   2.68379   2.68875   2.71996   2.72621
 Alpha virt. eigenvalues --    2.74328   2.76315   2.78035   2.80447   2.81325
 Alpha virt. eigenvalues --    2.82068   2.83803   2.84300   2.87000   2.88085
 Alpha virt. eigenvalues --    2.90919   2.91485   2.92601   2.92759   2.95380
 Alpha virt. eigenvalues --    2.95899   2.96306   2.98312   2.99888   3.00163
 Alpha virt. eigenvalues --    3.01256   3.03234   3.03689   3.04204   3.07219
 Alpha virt. eigenvalues --    3.07713   3.09261   3.10057   3.12307   3.13234
 Alpha virt. eigenvalues --    3.13551   3.15440   3.16450   3.17078   3.17755
 Alpha virt. eigenvalues --    3.19114   3.20319   3.21162   3.22620   3.22948
 Alpha virt. eigenvalues --    3.24923   3.25344   3.26819   3.27229   3.27941
 Alpha virt. eigenvalues --    3.29646   3.30442   3.30889   3.32226   3.34206
 Alpha virt. eigenvalues --    3.35704   3.35905   3.37323   3.37854   3.38179
 Alpha virt. eigenvalues --    3.40890   3.41153   3.43589   3.44862   3.46366
 Alpha virt. eigenvalues --    3.47216   3.47430   3.49211   3.50613   3.53249
 Alpha virt. eigenvalues --    3.53878   3.56880   3.57400   3.59505   3.61339
 Alpha virt. eigenvalues --    3.66655   3.67231   3.68948   3.70029   3.74102
 Alpha virt. eigenvalues --    3.75128   3.77556   3.78483   3.79329   3.80788
 Alpha virt. eigenvalues --    3.84209   3.85117   3.86663   3.88753   3.89285
 Alpha virt. eigenvalues --    3.91161   3.92857   3.95418   3.97544   3.98221
 Alpha virt. eigenvalues --    4.00089   4.06413   4.10258   4.10792   4.12603
 Alpha virt. eigenvalues --    4.13750   4.17493   4.20321   4.22386   4.24806
 Alpha virt. eigenvalues --    4.26913   4.30840   4.31750   4.34437   4.35489
 Alpha virt. eigenvalues --    4.37724   4.40865   4.42547   4.44666   4.46716
 Alpha virt. eigenvalues --    4.50250   4.54975   4.56220   4.56386   4.57978
 Alpha virt. eigenvalues --    4.64821   4.66799   4.69035   4.73397   4.73704
 Alpha virt. eigenvalues --    4.74414   4.74864   4.77886   4.81692   4.84346
 Alpha virt. eigenvalues --    4.92643   4.93387   4.94512   4.97928   5.01203
 Alpha virt. eigenvalues --    5.02511   5.02861   5.04725   5.06361   5.12458
 Alpha virt. eigenvalues --    5.14666   5.15814   5.19211   5.19258   5.19462
 Alpha virt. eigenvalues --    5.29397   5.31264   5.31923   5.32938   5.34958
 Alpha virt. eigenvalues --    5.38331   5.40359   5.42455   5.43061   5.48505
 Alpha virt. eigenvalues --    5.50554   5.52801   5.56816   5.65498   5.66773
 Alpha virt. eigenvalues --    5.68215   5.79927   5.81854   5.90041   5.94555
 Alpha virt. eigenvalues --    5.96172   6.06321   6.12348   6.15444   6.22207
 Alpha virt. eigenvalues --    6.36058   6.37184   6.43580   6.59312   6.65030
 Alpha virt. eigenvalues --    6.73543   6.76579   6.87999   6.92301   7.07939
 Alpha virt. eigenvalues --    7.13271   7.32542   7.41899  22.40890  22.55004
 Alpha virt. eigenvalues --   22.58548  22.85384  22.98889  23.26910  23.35957
 Alpha virt. eigenvalues --   23.54964  32.08174  32.51021  32.85731  44.11551
 Alpha virt. eigenvalues --   44.40233
          Condensed to atoms (all electrons):
               1          2          3          4          5          6
     1  N    6.581898   0.390006  -0.108903   0.007170   0.000253  -0.004646
     2  C    0.390006   4.477613   0.500919  -0.095804   0.004020  -0.026621
     3  N   -0.108903   0.500919   6.540582   0.591406  -0.052654  -0.108954
     4  C    0.007170  -0.095804   0.591406   4.948747   0.256884   0.414392
     5  C    0.000253   0.004020  -0.052654   0.256884   5.093823  -0.072930
     6  C   -0.004646  -0.026621  -0.108954   0.414392  -0.072930   5.409887
     7  C   -0.000025   0.003701   0.002669  -0.040427  -0.023127   0.328869
     8  O   -0.000002  -0.000092  -0.000255  -0.005407   0.000381  -0.138622
     9  C   -0.000000   0.000016   0.000029   0.000041  -0.000134   0.008885
    10  C    0.000000   0.000000  -0.000002   0.000062   0.000003   0.003515
    11  O   -0.000001   0.000099   0.000160  -0.012422   0.000477  -0.094812
    12  C    0.006983  -0.106446  -0.014518  -0.051045   0.003289   0.452363
    13  N   -0.109566   0.493551  -0.073283  -0.031078  -0.002521  -0.056732
    14  H    0.369093  -0.028210   0.006062  -0.000992   0.000027   0.000437
    15  H    0.369414  -0.028773   0.008192   0.000726  -0.000329   0.000829
    16  H    0.000003  -0.000514   0.000842  -0.038824   0.412642   0.000833
    17  H   -0.000266   0.000659   0.005757  -0.070308   0.422420   0.013819
    18  H    0.000003  -0.000591   0.000974  -0.039449   0.414181   0.000127
    19  H    0.000000  -0.000001  -0.000001  -0.000049  -0.000023  -0.001004
    20  H    0.000000  -0.000001  -0.000001  -0.000064  -0.000020  -0.001128
    21  H   -0.000000   0.000000  -0.000000  -0.000009  -0.000000  -0.000469
    22  H   -0.000000   0.000001  -0.000000  -0.000009  -0.000000  -0.000453
    23  H   -0.000000  -0.000000   0.000000  -0.000000  -0.000000   0.000002
    24  H    0.000017   0.005815  -0.001588   0.001059  -0.000118  -0.059690
               7          8          9         10         11         12
     1  N   -0.000025  -0.000002  -0.000000   0.000000  -0.000001   0.006983
     2  C    0.003701  -0.000092   0.000016   0.000000   0.000099  -0.106446
     3  N    0.002669  -0.000255   0.000029  -0.000002   0.000160  -0.014518
     4  C   -0.040427  -0.005407   0.000041   0.000062  -0.012422  -0.051045
     5  C   -0.023127   0.000381  -0.000134   0.000003   0.000477   0.003289
     6  C    0.328869  -0.138622   0.008885   0.003515  -0.094812   0.452363
     7  C    4.476049   0.369657  -0.043607   0.001948   0.636620  -0.053743
     8  O    0.369657   8.016296   0.199180  -0.042813  -0.077896   0.020798
     9  C   -0.043607   0.199180   4.933685   0.277051  -0.006124  -0.002027
    10  C    0.001948  -0.042813   0.277051   5.017149   0.003765  -0.000679
    11  O    0.636620  -0.077896  -0.006124   0.003765   7.910653   0.005352
    12  C   -0.053743   0.020798  -0.002027  -0.000679   0.005352   4.827443
    13  N    0.005602  -0.000067  -0.000040   0.000010  -0.000302   0.540205
    14  H   -0.000003   0.000000   0.000000  -0.000000   0.000000   0.001017
    15  H   -0.000009   0.000000  -0.000000   0.000000   0.000000  -0.001066
    16  H   -0.004601  -0.000085  -0.000002   0.000001  -0.001428   0.000798
    17  H    0.000593   0.000044  -0.000005  -0.000000   0.002297  -0.000486
    18  H   -0.004528  -0.000089  -0.000000   0.000001  -0.001490   0.000759
    19  H   -0.006642  -0.036178   0.424794  -0.038275   0.004830   0.000334
    20  H   -0.006657  -0.036142   0.424877  -0.038172   0.004858   0.000349
    21  H   -0.000170   0.001455  -0.036649   0.409189  -0.000083   0.000153
    22  H   -0.000173   0.001474  -0.036637   0.409207  -0.000083   0.000150
    23  H    0.000176   0.004594  -0.042733   0.412112   0.000132   0.000010
    24  H   -0.008835   0.009913  -0.000876  -0.000637   0.000192   0.433616
              13         14         15         16         17         18
     1  N   -0.109566   0.369093   0.369414   0.000003  -0.000266   0.000003
     2  C    0.493551  -0.028210  -0.028773  -0.000514   0.000659  -0.000591
     3  N   -0.073283   0.006062   0.008192   0.000842   0.005757   0.000974
     4  C   -0.031078  -0.000992   0.000726  -0.038824  -0.070308  -0.039449
     5  C   -0.002521   0.000027  -0.000329   0.412642   0.422420   0.414181
     6  C   -0.056732   0.000437   0.000829   0.000833   0.013819   0.000127
     7  C    0.005602  -0.000003  -0.000009  -0.004601   0.000593  -0.004528
     8  O   -0.000067   0.000000   0.000000  -0.000085   0.000044  -0.000089
     9  C   -0.000040   0.000000  -0.000000  -0.000002  -0.000005  -0.000000
    10  C    0.000010  -0.000000   0.000000   0.000001  -0.000000   0.000001
    11  O   -0.000302   0.000000   0.000000  -0.001428   0.002297  -0.001490
    12  C    0.540205   0.001017  -0.001066   0.000798  -0.000486   0.000759
    13  N    6.532388   0.007769   0.006118   0.000166   0.000384   0.000173
    14  H    0.007769   0.401584  -0.022994  -0.000001   0.000003  -0.000001
    15  H    0.006118  -0.022994   0.401792   0.000007   0.000128   0.000006
    16  H    0.000166  -0.000001   0.000007   0.511711  -0.021600  -0.027762
    17  H    0.000384   0.000003   0.000128  -0.021600   0.520705  -0.021782
    18  H    0.000173  -0.000001   0.000006  -0.027762  -0.021782   0.511886
    19  H    0.000005  -0.000000  -0.000000  -0.000012  -0.000001   0.000045
    20  H    0.000005  -0.000000  -0.000000   0.000044  -0.000001  -0.000013
    21  H    0.000000   0.000000  -0.000000   0.000000   0.000000  -0.000000
    22  H    0.000001   0.000000   0.000000  -0.000000   0.000000   0.000000
    23  H    0.000000  -0.000000  -0.000000   0.000000  -0.000000   0.000000
    24  H   -0.025705  -0.000114   0.000018   0.000015   0.000008   0.000016
              19         20         21         22         23         24
     1  N    0.000000   0.000000  -0.000000  -0.000000  -0.000000   0.000017
     2  C   -0.000001  -0.000001   0.000000   0.000001  -0.000000   0.005815
     3  N   -0.000001  -0.000001  -0.000000  -0.000000   0.000000  -0.001588
     4  C   -0.000049  -0.000064  -0.000009  -0.000009  -0.000000   0.001059
     5  C   -0.000023  -0.000020  -0.000000  -0.000000  -0.000000  -0.000118
     6  C   -0.001004  -0.001128  -0.000469  -0.000453   0.000002  -0.059690
     7  C   -0.006642  -0.006657  -0.000170  -0.000173   0.000176  -0.008835
     8  O   -0.036178  -0.036142   0.001455   0.001474   0.004594   0.009913
     9  C    0.424794   0.424877  -0.036649  -0.036637  -0.042733  -0.000876
    10  C   -0.038275  -0.038172   0.409189   0.409207   0.412112  -0.000637
    11  O    0.004830   0.004858  -0.000083  -0.000083   0.000132   0.000192
    12  C    0.000334   0.000349   0.000153   0.000150   0.000010   0.433616
    13  N    0.000005   0.000005   0.000000   0.000001   0.000000  -0.025705
    14  H   -0.000000  -0.000000   0.000000   0.000000  -0.000000  -0.000114
    15  H   -0.000000  -0.000000  -0.000000   0.000000  -0.000000   0.000018
    16  H   -0.000012   0.000044   0.000000  -0.000000   0.000000   0.000015
    17  H   -0.000001  -0.000001   0.000000   0.000000  -0.000000   0.000008
    18  H    0.000045  -0.000013  -0.000000   0.000000   0.000000   0.000016
    19  H    0.557779  -0.045902  -0.008546   0.007800  -0.001917   0.000094
    20  H   -0.045902   0.557545   0.007797  -0.008535  -0.001927   0.000096
    21  H   -0.008546   0.007797   0.535111  -0.030080  -0.022986  -0.000060
    22  H    0.007800  -0.008535  -0.030080   0.534806  -0.022950  -0.000062
    23  H   -0.001917  -0.001927  -0.022986  -0.022950   0.533864   0.000050
    24  H    0.000094   0.000096  -0.000060  -0.000062   0.000050   0.474925
 Mulliken charges:
               1
     1  N   -0.501431
     2  C    0.410655
     3  N   -0.297434
     4  C    0.165399
     5  C   -0.456542
     6  C   -0.067896
     7  C    0.366662
     8  O   -0.286144
     9  C   -0.099723
    10  C   -0.413436
    11  O   -0.374798
    12  C   -0.063610
    13  N   -0.287081
    14  H    0.266325
    15  H    0.265944
    16  H    0.167768
    17  H    0.147632
    18  H    0.167535
    19  H    0.142871
    20  H    0.142993
    21  H    0.145344
    22  H    0.145544
    23  H    0.141572
    24  H    0.171851
 Sum of Mulliken charges =  -0.00000
 Mulliken charges with hydrogens summed into heavy atoms:
               1
     1  N    0.030838
     2  C    0.410655
     3  N   -0.297434
     4  C    0.165399
     5  C    0.026394
     6  C   -0.067896
     7  C    0.366662
     8  O   -0.286144
     9  C    0.186140
    10  C    0.019024
    11  O   -0.374798
    12  C    0.108241
    13  N   -0.287081
 Electronic spatial extent (au):  <R**2>=           3015.0325
 Charge=              0.0000 electrons
 Dipole moment (field-independent basis, Debye):
    X=              0.5416    Y=             -1.5196    Z=             -0.2555  Tot=              1.6334
 Quadrupole moment (field-independent basis, Debye-Ang):
   XX=            -56.8800   YY=            -79.5325   ZZ=            -77.0752
   XY=              0.4392   XZ=             -1.2338   YZ=              0.3823
 Traceless Quadrupole moment (field-independent basis, Debye-Ang):
   XX=             14.2826   YY=             -8.3699   ZZ=             -5.9126
   XY=              0.4392   XZ=             -1.2338   YZ=              0.3823
 Octapole moment (field-independent basis, Debye-Ang**2):
  XXX=             34.6275  YYY=             -2.2926  ZZZ=             -0.1631  XYY=             13.4811
  XXY=            -36.3639  XXZ=             -5.7918  XZZ=             -8.8107  YZZ=              2.8740
  YYZ=             -0.7247  XYZ=              1.7312
 Hexadecapole moment (field-independent basis, Debye-Ang**3):
 XXXX=          -2353.0756 YYYY=           -905.1252 ZZZZ=            -97.6839 XXXY=           -139.6737
 XXXZ=            -27.3566 YYYX=             -7.8161 YYYZ=              1.6808 ZZZX=             -0.9428
 ZZZY=              0.3184 XXYY=           -619.4275 XXZZ=           -530.8124 YYZZ=           -165.0285
 XXYZ=              7.6775 YYXZ=             -3.2380 ZZXY=             -2.2180
 N-N= 7.841580833001D+02 E-N=-3.029626858160D+03  KE= 6.230065813461D+02
 Unable to Open any file for archive entry.
 1\1\GINC-COMPUTE-0-1\SP\RM062X\def2TZVP\C8H11N3O2\ZTAN64\16-Aug-2024\0
 \\# M062X/def2tzvp int=(grid=ultrafine) nmr=giao guess=read geom=check
 \\pyrmd1.xyz\\0,1\N,0,-3.9111025052,2.1337047331,0.2495211068\C,0,-2.7
 677055014,1.422547303,0.1158946282\N,0,-2.8940556995,0.1559185281,-0.3
 282713506\C,0,-1.7802785757,-0.5690376701,-0.4484029951\C,0,-1.9648866
 865,-1.9734367296,-0.9460020318\C,0,-0.5181653497,-0.0145618488,-0.118
 7852678\C,0,0.7393909665,-0.7766795811,-0.2349289286\O,0,1.8135531252,
 -0.0348913146,0.1351950766\C,0,3.0900997151,-0.7017330925,0.0539158965
 \C,0,4.1441795892,0.288412113,0.5061422463\O,0,0.8421014421,-1.9307980
 597,-0.6120029814\C,0,-0.5231148601,1.3162753543,0.3257672987\N,0,-1.6
 202899202,2.0519666999,0.4511415479\H,0,-3.8519267166,3.1084525238,0.4
 905114061\H,0,-4.7743893471,1.7320512918,-0.0745474261\H,0,-1.58054386
 31,-2.6958419779,-0.2214922153\H,0,-3.0261648337,-2.1461715007,-1.1266
 991393\H,0,-1.3910732499,-2.1406955423,-1.8609799556\H,0,3.2513707299,
 -1.0347115491,-0.9759586743\H,0,3.064543157,-1.5947869996,0.6858182027
 \H,0,4.1483637428,1.1734700546,-0.136189657\H,0,3.960423925,0.61019093
 69,1.5350305366\H,0,5.134219774,-0.1751467588,0.4612256155\H,0,0.41535
 0942,1.7955030863,0.5878970611\\Version=ES64L-G16RevC.01\State=1-A\HF=
 -626.2037132\RMSD=1.898e-09\Dipole=-0.0636628,0.6316862,0.099377\Quadr
 upole=9.5917071,-4.8750846,-4.7166225,-3.8583289,1.144267,-1.10841\PG=
 C01 [X(C8H11N3O2)]\\@
 The archive entry for this job was punched.


 Experience is what you get when you don't get what you want.
 -- Dan Stanford
 Job cpu time:       0 days  0 hours 35 minutes 59.5 seconds.
 Elapsed time:       0 days  0 hours  2 minutes 24.9 seconds.
 File lengths (MBytes):  RWF=    126 Int=      0 D2E=      0 Chk=     21 Scr=      1
 Normal termination of Gaussian 16 at Fri Aug 16 14:06:34 2024.
 
 
-----Kestrel cluster job statistics-----
Time info:

real	13m53.184s
user	217m15.277s
sys	0m22.879s
 
Disk space usage:
21M	/scratch/363659.kestrel.chem.wisc.edu
