 Entering Gaussian System, Link 0=/share/apps/gaussian/g16/g16
 Initial command:
 /share/apps/gaussian/g16/l1.exe "/scratch/363660.kestrel.chem.wisc.edu/Gau-40453.inp" -scrdir="/scratch/363660.kestrel.chem.wisc.edu/"
 Entering Link 1 = /share/apps/gaussian/g16/l1.exe PID=     40454.
  
 Copyright (c) 1988-2019, Gaussian, Inc.  All Rights Reserved.
  
 This is part of the Gaussian(R) 16 program.  It is based on
 the Gaussian(R) 09 system (copyright 2009, Gaussian, Inc.),
 the Gaussian(R) 03 system (copyright 2003, Gaussian, Inc.),
 the Gaussian(R) 98 system (copyright 1998, Gaussian, Inc.),
 the Gaussian(R) 94 system (copyright 1995, Gaussian, Inc.),
 the Gaussian 92(TM) system (copyright 1992, Gaussian, Inc.),
 the Gaussian 90(TM) system (copyright 1990, Gaussian, Inc.),
 the Gaussian 88(TM) system (copyright 1988, Gaussian, Inc.),
 the Gaussian 86(TM) system (copyright 1986, Carnegie Mellon
 University), and the Gaussian 82(TM) system (copyright 1983,
 Carnegie Mellon University). Gaussian is a federally registered
 trademark of Gaussian, Inc.
  
 This software contains proprietary and confidential information,
 including trade secrets, belonging to Gaussian, Inc.
  
 This software is provided under written license and may be
 used, copied, transmitted, or stored only in accord with that
 written license.
  
 The following legend is applicable only to US Government
 contracts under FAR:
  
                    RESTRICTED RIGHTS LEGEND
  
 Use, reproduction and disclosure by the US Government is
 subject to restrictions as set forth in subparagraphs (a)
 and (c) of the Commercial Computer Software - Restricted
 Rights clause in FAR 52.227-19.
  
 Gaussian, Inc.
 340 Quinnipiac St., Bldg. 40, Wallingford CT 06492
  
  
 ---------------------------------------------------------------
 Warning -- This program may not be used in any manner that
 competes with the business of Gaussian, Inc. or will provide
 assistance to any competitor of Gaussian, Inc.  The licensee
 of this program is prohibited from giving any competitor of
 Gaussian, Inc. access to this program.  By using this program,
 the user acknowledges that Gaussian, Inc. is engaged in the
 business of creating and licensing software in the field of
 computational chemistry and represents and warrants to the
 licensee that it is not a competitor of Gaussian, Inc. and that
 it will not use this program in any manner prohibited above.
 ---------------------------------------------------------------
  

 Cite this work as:
 Gaussian 16, Revision C.01,
 M. J. Frisch, G. W. Trucks, H. B. Schlegel, G. E. Scuseria, 
 M. A. Robb, J. R. Cheeseman, G. Scalmani, V. Barone, 
 G. A. Petersson, H. Nakatsuji, X. Li, M. Caricato, A. V. Marenich, 
 J. Bloino, B. G. Janesko, R. Gomperts, B. Mennucci, H. P. Hratchian, 
 J. V. Ortiz, A. F. Izmaylov, J. L. Sonnenberg, D. Williams-Young, 
 F. Ding, F. Lipparini, F. Egidi, J. Goings, B. Peng, A. Petrone, 
 T. Henderson, D. Ranasinghe, V. G. Zakrzewski, J. Gao, N. Rega, 
 G. Zheng, W. Liang, M. Hada, M. Ehara, K. Toyota, R. Fukuda, 
 J. Hasegawa, M. Ishida, T. Nakajima, Y. Honda, O. Kitao, H. Nakai, 
 T. Vreven, K. Throssell, J. A. Montgomery, Jr., J. E. Peralta, 
 F. Ogliaro, M. J. Bearpark, J. J. Heyd, E. N. Brothers, K. N. Kudin, 
 V. N. Staroverov, T. A. Keith, R. Kobayashi, J. Normand, 
 K. Raghavachari, A. P. Rendell, J. C. Burant, S. S. Iyengar, 
 J. Tomasi, M. Cossi, J. M. Millam, M. Klene, C. Adamo, R. Cammi, 
 J. W. Ochterski, R. L. Martin, K. Morokuma, O. Farkas, 
 J. B. Foresman, and D. J. Fox, Gaussian, Inc., Wallingford CT, 2019.
 
 ******************************************
 Gaussian 16:  ES64L-G16RevC.01  3-Jul-2019
                16-Aug-2024 
 ******************************************
 %nprocs=16
 Will use up to   16 processors via shared memory.
 %mem=16GB
 %chk=pyrmd1_conf-2.chk
 ----------------------------------------------------------------------
 # B3LYP/6-31G(d,p) symmetry=loose empiricaldispersion=GD3BJ int=(grid=
 ultrafine) opt=calcfc freq=noraman
 ----------------------------------------------------------------------
 1/10=4,18=20,19=15,26=4,38=1/1,3;
 2/9=110,12=2,17=4,18=3,40=1/2;
 3/5=1,6=6,7=101,11=2,25=1,30=1,71=2,74=-5,75=-5,124=41,140=1/1,2,3;
 4//1;
 5/5=2,38=5/2;
 8/6=4,10=90,11=11/1;
 11/6=1,8=1,9=11,15=111,16=1/1,2,10;
 10/6=1,13=1/2;
 6/7=2,8=2,9=2,10=2,28=1/1;
 7/10=1,25=1/1,2,3,16;
 1/10=4,18=20,19=15,26=4/3(2);
 2/9=110/2;
 99//99;
 2/9=110/2;
 3/5=1,6=6,7=101,11=2,25=1,30=1,71=1,74=-5,75=-5,124=41/1,2,3;
 4/5=5,16=3,69=1/1;
 5/5=2,38=5/2;
 7//1,2,3,16;
 1/18=20,19=15,26=4/3(-5);
 2/9=110/2;
 6/7=2,8=2,9=2,10=2,19=2,28=1/1;
 99/9=1/99;
 ----------
 pyrmd1.xyz
 ----------
 Symbolic Z-matrix:
 Charge =  0 Multiplicity = 1
 N                    -4.0058    2.1037    0.0762 
 C                    -2.8248    1.4016    0.0471 
 N                    -2.8629    0.18     -0.5159 
 C                    -1.6928   -0.5114   -0.5427 
 C                    -1.8147   -1.8812   -1.193 
 C                    -0.4913    0.0109   -0.0117 
 C                     0.8195   -0.721    -0.0241 
 O                     1.8253   -0.0195    0.5612 
 C                     3.1494   -0.539     0.6353 
 C                     3.9122   -0.2874   -0.673 
 O                     0.9812   -1.8425   -0.5065 
 C                    -0.5933    1.2982    0.5464 
 N                    -1.7501    2.0069    0.5844 
 H                    -4.0024    3.0184    0.4922 
 H                    -4.8217    1.6703   -0.3193 
 H                    -1.5315   -2.6591   -0.4845 
 H                    -2.8295   -2.0921   -1.5315 
 H                    -1.1548   -1.9455   -2.0576 
 H                     3.1406   -1.6026    0.8837 
 H                     3.6628   -0.0355    1.455 
 H                     3.4435   -0.8105   -1.5072 
 H                     3.9372    0.7751   -0.9146 
 H                     4.9404   -0.6399   -0.5968 
 H                     0.2611    1.7991    0.9816 
 

 GradGradGradGradGradGradGradGradGradGradGradGradGradGradGradGradGradGrad
 Berny optimization.
 Initialization pass.
                           ----------------------------
                           !    Initial Parameters    !
                           ! (Angstroms and Degrees)  !
 --------------------------                            --------------------------
 ! Name  Definition              Value          Derivative Info.                !
 --------------------------------------------------------------------------------
 ! R1    R(1,2)                  1.3742         calculate D2E/DX2 analytically  !
 ! R2    R(1,14)                 1.0049         calculate D2E/DX2 analytically  !
 ! R3    R(1,15)                 1.005          calculate D2E/DX2 analytically  !
 ! R4    R(2,3)                  1.3456         calculate D2E/DX2 analytically  !
 ! R5    R(2,13)                 1.3454         calculate D2E/DX2 analytically  !
 ! R6    R(3,4)                  1.3594         calculate D2E/DX2 analytically  !
 ! R7    R(4,5)                  1.5212         calculate D2E/DX2 analytically  !
 ! R8    R(4,6)                  1.4136         calculate D2E/DX2 analytically  !
 ! R9    R(5,16)                 1.0896         calculate D2E/DX2 analytically  !
 ! R10   R(5,17)                 1.0904         calculate D2E/DX2 analytically  !
 ! R11   R(5,18)                 1.0896         calculate D2E/DX2 analytically  !
 ! R12   R(6,7)                  1.5013         calculate D2E/DX2 analytically  !
 ! R13   R(6,12)                 1.4068         calculate D2E/DX2 analytically  !
 ! R14   R(7,8)                  1.3588         calculate D2E/DX2 analytically  !
 ! R15   R(7,11)                 1.2315         calculate D2E/DX2 analytically  !
 ! R16   R(8,9)                  1.4243         calculate D2E/DX2 analytically  !
 ! R17   R(9,10)                 1.5352         calculate D2E/DX2 analytically  !
 ! R18   R(9,19)                 1.0923         calculate D2E/DX2 analytically  !
 ! R19   R(9,20)                 1.0904         calculate D2E/DX2 analytically  !
 ! R20   R(10,21)                1.0905         calculate D2E/DX2 analytically  !
 ! R21   R(10,22)                1.0899         calculate D2E/DX2 analytically  !
 ! R22   R(10,23)                1.0896         calculate D2E/DX2 analytically  !
 ! R23   R(12,13)                1.3572         calculate D2E/DX2 analytically  !
 ! R24   R(12,24)                1.0818         calculate D2E/DX2 analytically  !
 ! A1    A(2,1,14)             118.0938         calculate D2E/DX2 analytically  !
 ! A2    A(2,1,15)             117.9722         calculate D2E/DX2 analytically  !
 ! A3    A(14,1,15)            123.9339         calculate D2E/DX2 analytically  !
 ! A4    A(1,2,3)              116.6368         calculate D2E/DX2 analytically  !
 ! A5    A(1,2,13)             116.6259         calculate D2E/DX2 analytically  !
 ! A6    A(3,2,13)             126.7373         calculate D2E/DX2 analytically  !
 ! A7    A(2,3,4)              116.4626         calculate D2E/DX2 analytically  !
 ! A8    A(3,4,5)              113.4185         calculate D2E/DX2 analytically  !
 ! A9    A(3,4,6)              122.4302         calculate D2E/DX2 analytically  !
 ! A10   A(5,4,6)              124.1514         calculate D2E/DX2 analytically  !
 ! A11   A(4,5,16)             110.1246         calculate D2E/DX2 analytically  !
 ! A12   A(4,5,17)             112.4243         calculate D2E/DX2 analytically  !
 ! A13   A(4,5,18)             110.1105         calculate D2E/DX2 analytically  !
 ! A14   A(16,5,17)            107.7983         calculate D2E/DX2 analytically  !
 ! A15   A(16,5,18)            108.4469         calculate D2E/DX2 analytically  !
 ! A16   A(17,5,18)            107.8137         calculate D2E/DX2 analytically  !
 ! A17   A(4,6,7)              123.9762         calculate D2E/DX2 analytically  !
 ! A18   A(4,6,12)             115.1816         calculate D2E/DX2 analytically  !
 ! A19   A(7,6,12)             120.8422         calculate D2E/DX2 analytically  !
 ! A20   A(6,7,8)              113.019          calculate D2E/DX2 analytically  !
 ! A21   A(6,7,11)             124.1819         calculate D2E/DX2 analytically  !
 ! A22   A(8,7,11)             122.7987         calculate D2E/DX2 analytically  !
 ! A23   A(7,8,9)              121.4834         calculate D2E/DX2 analytically  !
 ! A24   A(8,9,10)             110.9657         calculate D2E/DX2 analytically  !
 ! A25   A(8,9,19)             111.0704         calculate D2E/DX2 analytically  !
 ! A26   A(8,9,20)             107.9628         calculate D2E/DX2 analytically  !
 ! A27   A(10,9,19)            110.9406         calculate D2E/DX2 analytically  !
 ! A28   A(10,9,20)            109.3302         calculate D2E/DX2 analytically  !
 ! A29   A(19,9,20)            106.4078         calculate D2E/DX2 analytically  !
 ! A30   A(9,10,21)            111.084          calculate D2E/DX2 analytically  !
 ! A31   A(9,10,22)            111.1046         calculate D2E/DX2 analytically  !
 ! A32   A(9,10,23)            110.8703         calculate D2E/DX2 analytically  !
 ! A33   A(21,10,22)           107.9334         calculate D2E/DX2 analytically  !
 ! A34   A(21,10,23)           107.6914         calculate D2E/DX2 analytically  !
 ! A35   A(22,10,23)           108.0129         calculate D2E/DX2 analytically  !
 ! A36   A(6,12,13)            123.4187         calculate D2E/DX2 analytically  !
 ! A37   A(6,12,24)            121.7377         calculate D2E/DX2 analytically  !
 ! A38   A(13,12,24)           114.8435         calculate D2E/DX2 analytically  !
 ! A39   A(2,13,12)            115.7697         calculate D2E/DX2 analytically  !
 ! D1    D(14,1,2,3)           179.9659         calculate D2E/DX2 analytically  !
 ! D2    D(14,1,2,13)           -0.0399         calculate D2E/DX2 analytically  !
 ! D3    D(15,1,2,3)             0.0385         calculate D2E/DX2 analytically  !
 ! D4    D(15,1,2,13)         -179.9674         calculate D2E/DX2 analytically  !
 ! D5    D(1,2,3,4)           -179.995          calculate D2E/DX2 analytically  !
 ! D6    D(13,2,3,4)             0.0115         calculate D2E/DX2 analytically  !
 ! D7    D(1,2,13,12)          179.9994         calculate D2E/DX2 analytically  !
 ! D8    D(3,2,13,12)           -0.0071         calculate D2E/DX2 analytically  !
 ! D9    D(2,3,4,5)            179.9857         calculate D2E/DX2 analytically  !
 ! D10   D(2,3,4,6)              0.0009         calculate D2E/DX2 analytically  !
 ! D11   D(3,4,5,16)          -120.4971         calculate D2E/DX2 analytically  !
 ! D12   D(3,4,5,17)            -0.2728         calculate D2E/DX2 analytically  !
 ! D13   D(3,4,5,18)           119.9614         calculate D2E/DX2 analytically  !
 ! D14   D(6,4,5,16)            59.4873         calculate D2E/DX2 analytically  !
 ! D15   D(6,4,5,17)           179.7117         calculate D2E/DX2 analytically  !
 ! D16   D(6,4,5,18)           -60.0541         calculate D2E/DX2 analytically  !
 ! D17   D(3,4,6,7)           -179.9303         calculate D2E/DX2 analytically  !
 ! D18   D(3,4,6,12)            -0.0155         calculate D2E/DX2 analytically  !
 ! D19   D(5,4,6,7)              0.0866         calculate D2E/DX2 analytically  !
 ! D20   D(5,4,6,12)          -179.9986         calculate D2E/DX2 analytically  !
 ! D21   D(4,6,7,8)           -179.1588         calculate D2E/DX2 analytically  !
 ! D22   D(4,6,7,11)             0.6059         calculate D2E/DX2 analytically  !
 ! D23   D(12,6,7,8)             0.931          calculate D2E/DX2 analytically  !
 ! D24   D(12,6,7,11)         -179.3043         calculate D2E/DX2 analytically  !
 ! D25   D(4,6,12,13)            0.0204         calculate D2E/DX2 analytically  !
 ! D26   D(4,6,12,24)         -179.9417         calculate D2E/DX2 analytically  !
 ! D27   D(7,6,12,13)          179.9381         calculate D2E/DX2 analytically  !
 ! D28   D(7,6,12,24)           -0.024          calculate D2E/DX2 analytically  !
 ! D29   D(6,7,8,9)           -179.2973         calculate D2E/DX2 analytically  !
 ! D30   D(11,7,8,9)             0.9343         calculate D2E/DX2 analytically  !
 ! D31   D(7,8,9,10)            82.6737         calculate D2E/DX2 analytically  !
 ! D32   D(7,8,9,19)           -41.2294         calculate D2E/DX2 analytically  !
 ! D33   D(7,8,9,20)          -157.5331         calculate D2E/DX2 analytically  !
 ! D34   D(8,9,10,21)          -63.1795         calculate D2E/DX2 analytically  !
 ! D35   D(8,9,10,22)           56.9884         calculate D2E/DX2 analytically  !
 ! D36   D(8,9,10,23)          177.1138         calculate D2E/DX2 analytically  !
 ! D37   D(19,9,10,21)          60.7977         calculate D2E/DX2 analytically  !
 ! D38   D(19,9,10,22)        -179.0344         calculate D2E/DX2 analytically  !
 ! D39   D(19,9,10,23)         -58.909          calculate D2E/DX2 analytically  !
 ! D40   D(20,9,10,21)         177.8468         calculate D2E/DX2 analytically  !
 ! D41   D(20,9,10,22)         -61.9853         calculate D2E/DX2 analytically  !
 ! D42   D(20,9,10,23)          58.1401         calculate D2E/DX2 analytically  !
 ! D43   D(6,12,13,2)           -0.01           calculate D2E/DX2 analytically  !
 ! D44   D(24,12,13,2)         179.9545         calculate D2E/DX2 analytically  !
 --------------------------------------------------------------------------------
 Trust Radius=3.00D-01 FncErr=1.00D-07 GrdErr=1.00D-06 EigMax=2.50D+02 EigMin=1.00D-04
 Number of steps in this run=    117 maximum allowed number of steps=    144.
 GradGradGradGradGradGradGradGradGradGradGradGradGradGradGradGradGradGrad

                          Input orientation:                          
 ---------------------------------------------------------------------
 Center     Atomic      Atomic             Coordinates (Angstroms)
 Number     Number       Type             X           Y           Z
 ---------------------------------------------------------------------
      1          7           0       -4.005800    2.103700    0.076200
      2          6           0       -2.824800    1.401600    0.047100
      3          7           0       -2.862900    0.180000   -0.515900
      4          6           0       -1.692800   -0.511400   -0.542700
      5          6           0       -1.814700   -1.881200   -1.193000
      6          6           0       -0.491300    0.010900   -0.011700
      7          6           0        0.819500   -0.721000   -0.024100
      8          8           0        1.825300   -0.019500    0.561200
      9          6           0        3.149400   -0.539000    0.635300
     10          6           0        3.912200   -0.287400   -0.673000
     11          8           0        0.981200   -1.842500   -0.506500
     12          6           0       -0.593300    1.298200    0.546400
     13          7           0       -1.750100    2.006900    0.584400
     14          1           0       -4.002400    3.018400    0.492200
     15          1           0       -4.821700    1.670300   -0.319300
     16          1           0       -1.531500   -2.659100   -0.484500
     17          1           0       -2.829500   -2.092100   -1.531500
     18          1           0       -1.154800   -1.945500   -2.057600
     19          1           0        3.140600   -1.602600    0.883700
     20          1           0        3.662800   -0.035500    1.455000
     21          1           0        3.443500   -0.810500   -1.507200
     22          1           0        3.937200    0.775100   -0.914600
     23          1           0        4.940400   -0.639900   -0.596800
     24          1           0        0.261100    1.799100    0.981600
 ---------------------------------------------------------------------
                    Distance matrix (angstroms):
                    1          2          3          4          5
     1  N    0.000000
     2  C    1.374246   0.000000
     3  N    2.314611   1.345633   0.000000
     4  C    3.545667   2.299752   1.359370   0.000000
     5  C    4.721357   3.651702   2.409509   1.521217   0.000000
     6  C    4.091363   2.717117   2.430494   1.413634   2.593627
     7  C    5.592183   4.217988   3.822792   2.573816   3.106670
     8  O    6.224543   4.889504   4.814474   3.719891   4.448904
     9  C    7.648094   6.308960   6.163601   4.983507   5.457698
    10  C    8.305022   6.982724   6.793020   5.610987   5.967242
    11  O    6.386094   5.031530   4.343697   2.987208   2.879208
    12  C    3.537665   2.289014   2.744073   2.381111   3.824384
    13  N    2.314264   1.345385   2.405524   2.759615   4.275587
    14  H    1.004860   2.049121   3.220441   4.343358   5.624234
    15  H    1.004962   2.047940   2.469118   3.820960   4.734823
    16  H    5.396370   4.294707   3.135937   2.154535   1.089634
    17  H    4.644687   3.833789   2.488975   2.183672   1.090358
    18  H    5.392339   4.292056   3.132442   2.154300   1.089558
    19  H    8.090720   6.731353   6.417052   5.156267   5.380084
    20  H    8.079894   6.792378   6.820238   5.735829   6.357792
    21  H    8.154250   6.826479   6.460220   5.234625   5.375294
    22  H    8.114069   6.858718   6.837724   5.787080   6.341750
    23  H    9.381618   8.054853   7.846673   6.634665   6.894030
    24  H    4.372524   3.248704   3.824051   3.388160   4.752098
                    6          7          8          9         10
     6  C    0.000000
     7  C    1.501342   0.000000
     8  O    2.386582   1.358791   0.000000
     9  C    3.738408   2.428243   1.424293   0.000000
    10  C    4.462859   3.189651   2.439297   1.535192   0.000000
    11  O    2.418300   1.231511   2.275042   2.775592   3.322171
    12  C    1.406777   2.529554   2.754302   4.170253   4.929563
    13  N    2.433912   3.796650   4.109783   5.521711   6.237508
    14  H    4.650462   6.123757   6.572342   7.988981   8.656032
    15  H    4.647644   6.134215   6.914717   8.326506   8.957606
    16  H    2.904213   3.081461   4.396485   5.259240   5.940906
    17  H    3.492790   4.179398   5.508378   6.546326   7.031677
    18  H    2.907480   3.087456   4.410055   5.268405   5.508258
    19  H    4.073797   2.643639   2.083321   1.092257   2.179090
    20  H    4.405668   3.277499   2.043414   1.090413   2.157322
    21  H    4.288807   3.015455   2.742723   2.179567   1.090506
    22  H    4.583759   3.570904   2.696200   2.179376   1.089909
    23  H    5.501749   4.161295   3.380785   2.176220   1.089614
    24  H    2.179544   2.770225   2.435316   3.732146   4.519039
                   11         12         13         14         15
    11  O    0.000000
    12  C    3.667648   0.000000
    13  N    4.844372   1.357161   0.000000
    14  H    7.032924   3.818899   2.470726   0.000000
    15  H    6.785901   4.332120   3.219425   1.774023   0.000000
    16  H    2.642155   4.195616   4.791857   6.268436   5.440258
    17  H    3.954031   4.562060   4.737503   5.620344   4.426505
    18  H    2.641783   4.197343   4.791243   6.265031   5.435242
    19  H    2.579383   4.740298   6.085805   8.516417   8.692370
    20  H    3.782025   4.551780   5.850541   8.307140   8.834287
    21  H    2.851201   4.995963   6.267856   8.608107   8.710856
    22  H    3.969422   4.788902   6.009136   8.369512   8.824630
    23  H    4.138800   5.973690   7.291336   9.723310  10.035568
    24  H    3.999279   1.081804   2.060552   4.461349   5.248217
                   16         17         18         19         20
    16  H    0.000000
    17  H    1.761392   0.000000
    18  H    1.767985   1.761503   0.000000
    19  H    4.981634   6.458707   5.217211   0.000000
    20  H    6.133978   7.436313   6.260649   1.747821   0.000000
    21  H    5.404985   6.402626   4.768179   2.536843   3.069747
    22  H    6.471893   7.374933   5.885285   3.085760   2.519399
    23  H    6.780507   7.959516   6.402343   2.521498   2.491474
    24  H    5.023785   5.568565   5.026285   4.457877   3.893768
                   21         22         23         24
    21  H    0.000000
    22  H    1.763248   0.000000
    23  H    1.760296   1.763415   0.000000
    24  H    4.809554   4.261204   5.507805   0.000000
 Stoichiometry    C8H11N3O2
 Framework group  C1[X(C8H11N3O2)]
 Deg. of freedom    66
 Full point group                 C1      NOp   1
 Largest Abelian subgroup         C1      NOp   1
 Largest concise Abelian subgroup C1      NOp   1
                         Standard orientation:                         
 ---------------------------------------------------------------------
 Center     Atomic      Atomic             Coordinates (Angstroms)
 Number     Number       Type             X           Y           Z
 ---------------------------------------------------------------------
      1          7           0       -4.127417   -0.893657    0.178533
      2          6           0       -2.793679   -0.577795    0.078901
      3          7           0       -2.479065    0.730034    0.115359
      4          6           0       -1.158849    1.038462    0.016426
      5          6           0       -0.881953    2.533480    0.064894
      6          6           0       -0.157397    0.049848   -0.118102
      7          6           0        1.309304    0.350889   -0.228516
      8          8           0        2.071809   -0.765181   -0.367390
      9          6           0        3.490125   -0.688657   -0.472913
     10          6           0        4.138930   -0.577428    0.913988
     11          8           0        1.786559    1.485859   -0.202262
     12          6           0       -0.625176   -1.276665   -0.141924
     13          7           0       -1.937617   -1.608279   -0.044881
     14          1           0       -4.387071   -1.864060    0.153211
     15          1           0       -4.784838   -0.139242    0.271291
     16          1           0       -0.380772    2.851749   -0.848794
     17          1           0       -1.793934    3.122293    0.167217
     18          1           0       -0.237175    2.767808    0.911349
     19          1           0        3.791951    0.143375   -1.112951
     20          1           0        3.840359   -1.597364   -0.963411
     21          1           0        3.837069    0.342578    1.415657
     22          1           0        3.852968   -1.415519    1.549386
     23          1           0        5.225632   -0.570135    0.834718
     24          1           0        0.049741   -2.116400   -0.240055
 ---------------------------------------------------------------------
 Rotational constants (GHZ):           1.7468219           0.4387034           0.3639570
 Standard basis: 6-31G(d,p) (6D, 7F)
 There are   250 symmetry adapted cartesian basis functions of A   symmetry.
 There are   250 symmetry adapted basis functions of A   symmetry.
   250 basis functions,   441 primitive gaussians,   250 cartesian basis functions
    48 alpha electrons       48 beta electrons
       nuclear repulsion energy       781.1049928235 Hartrees.
 NAtoms=   24 NActive=   24 NUniq=   24 SFac= 1.00D+00 NAtFMM=   60 NAOKFM=F Big=F
 Integral buffers will be    131072 words long.
 Raffenetti 2 integral format.
 Two-electron integral symmetry is turned on.
 Nuclear repulsion after empirical dispersion term =      781.0639159185 Hartrees.
 One-electron integrals computed using PRISM.
 NBasis=   250 RedAO= T EigKep=  9.73D-04  NBF=   250
 NBsUse=   250 1.00D-06 EigRej= -1.00D+00 NBFU=   250
 ExpMin= 1.61D-01 ExpMax= 5.48D+03 ExpMxC= 8.25D+02 IAcc=3 IRadAn=         5 AccDes= 0.00D+00
 Harris functional with IExCor=  402 and IRadAn=       5 diagonalized for initial guess.
 HarFok:  IExCor=  402 AccDes= 0.00D+00 IRadAn=         5 IDoV= 1 UseB2=F ITyADJ=14
 ICtDFT=  3500011 ScaDFX=  1.000000  1.000000  1.000000  1.000000
 FoFCou: FMM=F IPFlag=           0 FMFlag=      100000 FMFlg1=           0
         NFxFlg=           0 DoJE=T BraDBF=F KetDBF=T FulRan=T
         wScrn=  0.000000 ICntrl=       500 IOpCl=  0 I1Cent=   200000004 NGrid=           0
         NMat0=    1 NMatS0=      1 NMatT0=    0 NMatD0=    1 NMtDS0=    0 NMtDT0=    0
 Petite list used in FoFCou.
 Requested convergence on RMS density matrix=1.00D-08 within 128 cycles.
 Requested convergence on MAX density matrix=1.00D-06.
 Requested convergence on             energy=1.00D-06.
 No special actions if energy rises.
 Integral accuracy reduced to 1.0D-05 until final iterations.
 Initial convergence to 1.0D-05 achieved.  Increase integral accuracy.
 SCF Done:  E(RB3LYP) =  -626.269659779     A.U. after   15 cycles
            NFock= 15  Conv=0.39D-08     -V/T= 2.0098
 DoSCS=F DFT=T ScalE2(SS,OS)=  1.000000  1.000000
 Range of M.O.s used for correlation:     1   250
 NBasis=   250 NAE=    48 NBE=    48 NFC=     0 NFV=     0
 NROrb=    250 NOA=    48 NOB=    48 NVA=   202 NVB=   202
 Symmetrizing basis deriv contribution to polar:
 IMax=3 JMax=2 DiffMx= 0.00D+00
 G2DrvN: will do    25 centers at a time, making    1 passes.
 Calling FoFCou, ICntrl=  3107 FMM=F I1Cent=   0 AccDes= 0.00D+00.
 End of G2Drv F.D. properties file   721 does not exist.
 End of G2Drv F.D. properties file   722 does not exist.
 End of G2Drv F.D. properties file   788 does not exist.
          IDoAtm=111111111111111111111111
          Differentiating once with respect to nuclear coordinates.
 Keep R1 ints in memory in canonical form, NReq=509470449.
          There are    75 degrees of freedom in the 1st order CPHF.  IDoFFX=6 NUNeed=     0.
     69 vectors produced by pass  0 Test12= 1.29D-14 1.33D-09 XBig12= 2.36D-01 1.98D-01.
 AX will form    69 AO Fock derivatives at one time.
     69 vectors produced by pass  1 Test12= 1.29D-14 1.33D-09 XBig12= 8.11D-02 6.05D-02.
     69 vectors produced by pass  2 Test12= 1.29D-14 1.33D-09 XBig12= 8.49D-04 3.51D-03.
     69 vectors produced by pass  3 Test12= 1.29D-14 1.33D-09 XBig12= 3.61D-06 1.98D-04.
     69 vectors produced by pass  4 Test12= 1.29D-14 1.33D-09 XBig12= 6.46D-09 8.13D-06.
     56 vectors produced by pass  5 Test12= 1.29D-14 1.33D-09 XBig12= 5.66D-12 2.50D-07.
     14 vectors produced by pass  6 Test12= 1.29D-14 1.33D-09 XBig12= 4.34D-15 1.00D-08.
 InvSVY:  IOpt=1 It=  1 EMax= 5.00D-16
 Solved reduced A of dimension   415 with    75 vectors.
 End of Minotr F.D. properties file   721 does not exist.
 End of Minotr F.D. properties file   722 does not exist.
 End of Minotr F.D. properties file   788 does not exist.

 **********************************************************************

            Population analysis using the SCF Density.

 **********************************************************************

 Orbital symmetries:
       Occupied  (A) (A) (A) (A) (A) (A) (A) (A) (A) (A) (A) (A)
                 (A) (A) (A) (A) (A) (A) (A) (A) (A) (A) (A) (A)
                 (A) (A) (A) (A) (A) (A) (A) (A) (A) (A) (A) (A)
                 (A) (A) (A) (A) (A) (A) (A) (A) (A) (A) (A) (A)
       Virtual   (A) (A) (A) (A) (A) (A) (A) (A) (A) (A) (A) (A)
                 (A) (A) (A) (A) (A) (A) (A) (A) (A) (A) (A) (A)
                 (A) (A) (A) (A) (A) (A) (A) (A) (A) (A) (A) (A)
                 (A) (A) (A) (A) (A) (A) (A) (A) (A) (A) (A) (A)
                 (A) (A) (A) (A) (A) (A) (A) (A) (A) (A) (A) (A)
                 (A) (A) (A) (A) (A) (A) (A) (A) (A) (A) (A) (A)
                 (A) (A) (A) (A) (A) (A) (A) (A) (A) (A) (A) (A)
                 (A) (A) (A) (A) (A) (A) (A) (A) (A) (A) (A) (A)
                 (A) (A) (A) (A) (A) (A) (A) (A) (A) (A) (A) (A)
                 (A) (A) (A) (A) (A) (A) (A) (A) (A) (A) (A) (A)
                 (A) (A) (A) (A) (A) (A) (A) (A) (A) (A) (A) (A)
                 (A) (A) (A) (A) (A) (A) (A) (A) (A) (A) (A) (A)
                 (A) (A) (A) (A) (A) (A) (A) (A) (A) (A) (A) (A)
                 (A) (A) (A) (A) (A) (A) (A) (A) (A) (A) (A) (A)
                 (A) (A) (A) (A) (A) (A) (A) (A) (A) (A) (A) (A)
                 (A) (A) (A) (A) (A) (A) (A) (A) (A) (A) (A) (A)
                 (A) (A) (A) (A) (A) (A) (A) (A) (A) (A)
 The electronic state is 1-A.
 Alpha  occ. eigenvalues --  -19.19034 -19.13126 -14.35704 -14.33093 -14.32989
 Alpha  occ. eigenvalues --  -10.32240 -10.29346 -10.25444 -10.24695 -10.24301
 Alpha  occ. eigenvalues --  -10.20777 -10.18166 -10.17571  -1.09555  -1.00566
 Alpha  occ. eigenvalues --   -0.99572  -0.90245  -0.88292  -0.79924  -0.76525
 Alpha  occ. eigenvalues --   -0.72292  -0.67136  -0.64809  -0.62287  -0.56749
 Alpha  occ. eigenvalues --   -0.54906  -0.52346  -0.51978  -0.49092  -0.47422
 Alpha  occ. eigenvalues --   -0.45879  -0.44573  -0.43971  -0.42498  -0.40549
 Alpha  occ. eigenvalues --   -0.40094  -0.38856  -0.38263  -0.37544  -0.37397
 Alpha  occ. eigenvalues --   -0.33926  -0.32158  -0.31581  -0.29872  -0.29507
 Alpha  occ. eigenvalues --   -0.26862  -0.24738  -0.23391
 Alpha virt. eigenvalues --   -0.03849  -0.03372   0.05353   0.08702   0.10787
 Alpha virt. eigenvalues --    0.12012   0.13745   0.13898   0.14576   0.14777
 Alpha virt. eigenvalues --    0.15112   0.15510   0.17110   0.17857   0.18907
 Alpha virt. eigenvalues --    0.20441   0.21854   0.22763   0.25098   0.25287
 Alpha virt. eigenvalues --    0.26318   0.30421   0.32635   0.33598   0.37173
 Alpha virt. eigenvalues --    0.40935   0.42220   0.46713   0.49041   0.50932
 Alpha virt. eigenvalues --    0.52396   0.53560   0.54542   0.55018   0.55368
 Alpha virt. eigenvalues --    0.56718   0.58838   0.60028   0.60297   0.60617
 Alpha virt. eigenvalues --    0.61702   0.62918   0.63452   0.64402   0.65919
 Alpha virt. eigenvalues --    0.66895   0.67259   0.69140   0.74161   0.75068
 Alpha virt. eigenvalues --    0.76854   0.78290   0.78602   0.79235   0.79973
 Alpha virt. eigenvalues --    0.81974   0.83308   0.85339   0.85779   0.86211
 Alpha virt. eigenvalues --    0.87414   0.87648   0.88542   0.89942   0.91169
 Alpha virt. eigenvalues --    0.93000   0.93752   0.94113   0.95493   0.97482
 Alpha virt. eigenvalues --    0.99976   1.02014   1.04028   1.06938   1.09077
 Alpha virt. eigenvalues --    1.10921   1.11063   1.15081   1.19999   1.23357
 Alpha virt. eigenvalues --    1.24845   1.26786   1.27660   1.29559   1.31883
 Alpha virt. eigenvalues --    1.32819   1.34526   1.36831   1.40906   1.41174
 Alpha virt. eigenvalues --    1.43183   1.43270   1.45561   1.50194   1.51193
 Alpha virt. eigenvalues --    1.54493   1.56428   1.58931   1.63070   1.64398
 Alpha virt. eigenvalues --    1.66533   1.69153   1.70421   1.73617   1.76368
 Alpha virt. eigenvalues --    1.77318   1.78860   1.80660   1.82733   1.85813
 Alpha virt. eigenvalues --    1.86100   1.87247   1.88661   1.90706   1.95402
 Alpha virt. eigenvalues --    1.96805   1.98441   2.00379   2.01160   2.02487
 Alpha virt. eigenvalues --    2.05087   2.05402   2.05667   2.06329   2.06979
 Alpha virt. eigenvalues --    2.07658   2.08363   2.09502   2.13209   2.14999
 Alpha virt. eigenvalues --    2.16980   2.18443   2.18883   2.20196   2.21223
 Alpha virt. eigenvalues --    2.25304   2.28862   2.29528   2.30292   2.31394
 Alpha virt. eigenvalues --    2.33922   2.37175   2.39392   2.40806   2.42544
 Alpha virt. eigenvalues --    2.45031   2.48221   2.48712   2.53181   2.53515
 Alpha virt. eigenvalues --    2.56624   2.58523   2.60223   2.61690   2.62415
 Alpha virt. eigenvalues --    2.64189   2.64782   2.69019   2.70403   2.71994
 Alpha virt. eigenvalues --    2.74316   2.74460   2.77512   2.77969   2.80348
 Alpha virt. eigenvalues --    2.82336   2.85801   2.87913   2.88431   2.91194
 Alpha virt. eigenvalues --    2.93272   2.94987   2.97976   3.01274   3.06934
 Alpha virt. eigenvalues --    3.16279   3.19354   3.21730   3.24046   3.27739
 Alpha virt. eigenvalues --    3.31226   3.39469   3.43189   3.44645   3.46687
 Alpha virt. eigenvalues --    3.48341   3.53466   3.56283   3.60529   4.00705
 Alpha virt. eigenvalues --    4.02948   4.06903   4.14649   4.18295   4.26588
 Alpha virt. eigenvalues --    4.33316   4.39461   4.43664   4.48287   4.56344
 Alpha virt. eigenvalues --    4.61008   4.74513
          Condensed to atoms (all electrons):
               1          2          3          4          5          6
     1  N    6.829012   0.319079  -0.099865   0.001481  -0.000212   0.001815
     2  C    0.319079   4.341377   0.430370  -0.052324   0.005378  -0.026543
     3  N   -0.099865   0.430370   6.924083   0.471234  -0.084344  -0.029989
     4  C    0.001481  -0.052324   0.471234   4.688634   0.387113   0.448507
     5  C   -0.000212   0.005378  -0.084344   0.387113   5.014352  -0.079922
     6  C    0.001815  -0.026543  -0.029989   0.448507  -0.079922   5.202235
     7  C    0.000012   0.001271   0.004618  -0.030405  -0.007677   0.318354
     8  O   -0.000000  -0.000013  -0.000024   0.001086   0.000130  -0.088761
     9  C    0.000000   0.000000   0.000001  -0.000012  -0.000007   0.006912
    10  C   -0.000000  -0.000000  -0.000000   0.000003   0.000001  -0.000659
    11  O   -0.000000  -0.000005   0.000029  -0.011551   0.002308  -0.063823
    12  C    0.001949  -0.063496  -0.039538  -0.054122   0.006139   0.401950
    13  N   -0.101848   0.440888  -0.077756  -0.037241  -0.000202  -0.021093
    14  H    0.336243  -0.015966   0.005010  -0.000105   0.000006  -0.000018
    15  H    0.337557  -0.017832   0.007213   0.000308  -0.000059   0.000019
    16  H    0.000003  -0.000182   0.001838  -0.022396   0.372155  -0.002445
    17  H   -0.000039   0.000604   0.003976  -0.023995   0.355661   0.005417
    18  H    0.000003  -0.000181   0.001815  -0.022196   0.371803  -0.002542
    19  H    0.000000  -0.000000   0.000000  -0.000002  -0.000002   0.000088
    20  H    0.000000  -0.000000  -0.000000   0.000002  -0.000000  -0.000033
    21  H   -0.000000   0.000000   0.000000   0.000003  -0.000002  -0.000009
    22  H   -0.000000  -0.000000  -0.000000  -0.000001  -0.000000  -0.000046
    23  H   -0.000000   0.000000   0.000000  -0.000000   0.000000   0.000006
    24  H   -0.000150   0.004301  -0.000225   0.003527  -0.000125  -0.055077
               7          8          9         10         11         12
     1  N    0.000012  -0.000000   0.000000  -0.000000  -0.000000   0.001949
     2  C    0.001271  -0.000013   0.000000  -0.000000  -0.000005  -0.063496
     3  N    0.004618  -0.000024   0.000001  -0.000000   0.000029  -0.039538
     4  C   -0.030405   0.001086  -0.000012   0.000003  -0.011551  -0.054122
     5  C   -0.007677   0.000130  -0.000007   0.000001   0.002308   0.006139
     6  C    0.318354  -0.088761   0.006912  -0.000659  -0.063823   0.401950
     7  C    4.411819   0.259428  -0.015546  -0.004445   0.502968  -0.040019
     8  O    0.259428   8.273637   0.211309  -0.041389  -0.081836   0.004172
     9  C   -0.015546   0.211309   4.694791   0.369448   0.003155  -0.000535
    10  C   -0.004445  -0.041389   0.369448   4.969743  -0.003266   0.000052
    11  O    0.502968  -0.081836   0.003155  -0.003266   8.130591   0.003770
    12  C   -0.040019   0.004172  -0.000535   0.000052   0.003770   4.847595
    13  N    0.003493   0.000250   0.000000   0.000000  -0.000028   0.444435
    14  H   -0.000001   0.000000  -0.000000   0.000000   0.000000   0.000265
    15  H   -0.000001   0.000000  -0.000000   0.000000   0.000000  -0.000154
    16  H    0.001323   0.000002  -0.000001   0.000000   0.002957  -0.000072
    17  H    0.000165   0.000002  -0.000000   0.000000   0.000586  -0.000116
    18  H    0.001440   0.000004   0.000003  -0.000001   0.003038  -0.000086
    19  H   -0.004609  -0.031747   0.376965  -0.040459   0.011714   0.000063
    20  H    0.003214  -0.033291   0.393523  -0.046751   0.000235  -0.000059
    21  H    0.003237  -0.003914  -0.028542   0.387958   0.004922  -0.000021
    22  H    0.000356   0.000680  -0.033174   0.383742   0.000094   0.000012
    23  H    0.000030   0.003067  -0.025006   0.366358   0.000009  -0.000000
    24  H   -0.004640   0.010646  -0.000277   0.000021   0.000089   0.386574
              13         14         15         16         17         18
     1  N   -0.101848   0.336243   0.337557   0.000003  -0.000039   0.000003
     2  C    0.440888  -0.015966  -0.017832  -0.000182   0.000604  -0.000181
     3  N   -0.077756   0.005010   0.007213   0.001838   0.003976   0.001815
     4  C   -0.037241  -0.000105   0.000308  -0.022396  -0.023995  -0.022196
     5  C   -0.000202   0.000006  -0.000059   0.372155   0.355661   0.371803
     6  C   -0.021093  -0.000018   0.000019  -0.002445   0.005417  -0.002542
     7  C    0.003493  -0.000001  -0.000001   0.001323   0.000165   0.001440
     8  O    0.000250   0.000000   0.000000   0.000002   0.000002   0.000004
     9  C    0.000000  -0.000000  -0.000000  -0.000001  -0.000000   0.000003
    10  C    0.000000   0.000000   0.000000   0.000000   0.000000  -0.000001
    11  O   -0.000028   0.000000   0.000000   0.002957   0.000586   0.003038
    12  C    0.444435   0.000265  -0.000154  -0.000072  -0.000116  -0.000086
    13  N    6.875288   0.007085   0.005104   0.000018   0.000038   0.000018
    14  H    0.007085   0.405309  -0.022156  -0.000000   0.000000  -0.000000
    15  H    0.005104  -0.022156   0.405801   0.000001   0.000035   0.000001
    16  H    0.000018  -0.000000   0.000001   0.561700  -0.028802  -0.024349
    17  H    0.000038   0.000000   0.000035  -0.028802   0.597164  -0.028741
    18  H    0.000018  -0.000000   0.000001  -0.024349  -0.028741   0.561765
    19  H    0.000000  -0.000000  -0.000000   0.000002  -0.000000  -0.000001
    20  H   -0.000001  -0.000000   0.000000   0.000000  -0.000000   0.000000
    21  H    0.000000  -0.000000  -0.000000  -0.000000  -0.000000   0.000005
    22  H    0.000000   0.000000  -0.000000  -0.000000  -0.000000  -0.000000
    23  H   -0.000000  -0.000000  -0.000000   0.000000  -0.000000  -0.000000
    24  H   -0.047434  -0.000031   0.000005   0.000001   0.000002   0.000001
              19         20         21         22         23         24
     1  N    0.000000   0.000000  -0.000000  -0.000000  -0.000000  -0.000150
     2  C   -0.000000  -0.000000   0.000000  -0.000000   0.000000   0.004301
     3  N    0.000000  -0.000000   0.000000  -0.000000   0.000000  -0.000225
     4  C   -0.000002   0.000002   0.000003  -0.000001  -0.000000   0.003527
     5  C   -0.000002  -0.000000  -0.000002  -0.000000   0.000000  -0.000125
     6  C    0.000088  -0.000033  -0.000009  -0.000046   0.000006  -0.055077
     7  C   -0.004609   0.003214   0.003237   0.000356   0.000030  -0.004640
     8  O   -0.031747  -0.033291  -0.003914   0.000680   0.003067   0.010646
     9  C    0.376965   0.393523  -0.028542  -0.033174  -0.025006  -0.000277
    10  C   -0.040459  -0.046751   0.387958   0.383742   0.366358   0.000021
    11  O    0.011714   0.000235   0.004922   0.000094   0.000009   0.000089
    12  C    0.000063  -0.000059  -0.000021   0.000012  -0.000000   0.386574
    13  N    0.000000  -0.000001   0.000000   0.000000  -0.000000  -0.047434
    14  H   -0.000000  -0.000000  -0.000000   0.000000  -0.000000  -0.000031
    15  H   -0.000000   0.000000  -0.000000  -0.000000  -0.000000   0.000005
    16  H    0.000002   0.000000  -0.000000  -0.000000   0.000000   0.000001
    17  H   -0.000000  -0.000000  -0.000000  -0.000000  -0.000000   0.000002
    18  H   -0.000001   0.000000   0.000005  -0.000000  -0.000000   0.000001
    19  H    0.606166  -0.043023  -0.005732   0.005170   0.000374   0.000041
    20  H   -0.043023   0.615105   0.004828  -0.005952  -0.000307  -0.000037
    21  H   -0.005732   0.004828   0.560200  -0.032135  -0.027192  -0.000002
    22  H    0.005170  -0.005952  -0.032135   0.592990  -0.028827   0.000034
    23  H    0.000374  -0.000307  -0.027192  -0.028827   0.602879  -0.000000
    24  H    0.000041  -0.000037  -0.000002   0.000034  -0.000000   0.573855
 Mulliken charges:
               1
     1  N   -0.625038
     2  C    0.633272
     3  N   -0.518448
     4  C    0.252450
     5  C   -0.342492
     6  C   -0.014342
     7  C    0.595614
     8  O   -0.483438
     9  C    0.046995
    10  C   -0.340357
    11  O   -0.505954
    12  C    0.101243
    13  N   -0.491015
    14  H    0.284359
    15  H    0.284158
    16  H    0.138248
    17  H    0.118042
    18  H    0.138202
    19  H    0.124992
    20  H    0.112547
    21  H    0.136396
    22  H    0.117057
    23  H    0.108610
    24  H    0.128901
 Sum of Mulliken charges =  -0.00000
 Mulliken charges with hydrogens summed into heavy atoms:
               1
     1  N   -0.056521
     2  C    0.633272
     3  N   -0.518448
     4  C    0.252450
     5  C    0.052000
     6  C   -0.014342
     7  C    0.595614
     8  O   -0.483438
     9  C    0.284534
    10  C    0.021706
    11  O   -0.505954
    12  C    0.230143
    13  N   -0.491015
 APT charges:
               1
     1  N   -1.139514
     2  C    0.072551
     3  N   -0.132534
     4  C   -0.221486
     5  C   -1.024150
     6  C   -0.415708
     7  C   -0.118028
     8  O   -0.236402
     9  C   -0.902831
    10  C   -1.171638
    11  O   -0.009536
    12  C   -0.373126
    13  N   -0.145249
    14  H    0.825164
    15  H    0.847741
    16  H    0.364267
    17  H    0.602369
    18  H    0.333380
    19  H    0.460562
    20  H    0.643213
    21  H    0.165499
    22  H    0.300765
    23  H    0.840807
    24  H    0.433883
 Sum of APT charges =  -0.00000
 APT charges with hydrogens summed into heavy atoms:
               1
     1  N    0.533392
     2  C    0.072551
     3  N   -0.132534
     4  C   -0.221486
     5  C    0.275867
     6  C   -0.415708
     7  C   -0.118028
     8  O   -0.236402
     9  C    0.200944
    10  C    0.135433
    11  O   -0.009536
    12  C    0.060757
    13  N   -0.145249
 Electronic spatial extent (au):  <R**2>=           2999.8882
 Charge=             -0.0000 electrons
 Dipole moment (field-independent basis, Debye):
    X=             -0.5757    Y=             -1.4475    Z=              0.1112  Tot=              1.5617
 Quadrupole moment (field-independent basis, Debye-Ang):
   XX=            -56.2128   YY=            -77.5392   ZZ=            -75.2699
   XY=             -2.5967   XZ=             -1.2688   YZ=              0.2528
 Traceless Quadrupole moment (field-independent basis, Debye-Ang):
   XX=             13.4612   YY=             -7.8652   ZZ=             -5.5959
   XY=             -2.5967   XZ=             -1.2688   YZ=              0.2528
 Octapole moment (field-independent basis, Debye-Ang**2):
  XXX=            -43.9358  YYY=              0.1080  ZZZ=             -2.4772  XYY=             -6.1859
  XXY=            -35.2582  XXZ=              1.7585  XZZ=              8.1010  YZZ=              1.9598
  YYZ=              0.3514  XYZ=              2.8742
 Hexadecapole moment (field-independent basis, Debye-Ang**3):
 XXXX=          -2291.4870 YYYY=           -762.2806 ZZZZ=           -152.8852 XXXY=             74.5048
 XXXZ=            -53.9823 YYYX=             -2.4486 YYYZ=              1.4805 ZZZX=             -6.9596
 ZZZY=             -0.4339 XXYY=           -601.9684 XXZZ=           -528.6546 YYZZ=           -151.5448
 XXYZ=              1.1636 YYXZ=             -3.8032 ZZXY=              1.0305
 N-N= 7.810639159185D+02 E-N=-3.021359855641D+03  KE= 6.201849966049D+02
  Exact polarizability:       0.000       0.000       0.000       0.000       0.000       0.000
 Approx polarizability:     234.542      18.965     191.485     -11.405       3.240      88.576
 Calling FoFJK, ICntrl=    100127 FMM=F ISym2X=0 I1Cent= 0 IOpClX= 0 NMat=1 NMatS=1 NMatT=0.
 ***** Axes restored to original set *****
 -------------------------------------------------------------------
 Center     Atomic                   Forces (Hartrees/Bohr)
 Number     Number              X              Y              Z
 -------------------------------------------------------------------
      1        7           0.019890032   -0.012187661   -0.000675164
      2        6          -0.011931504    0.007258805    0.000389663
      3        7           0.021714782   -0.007872044    0.001783506
      4        6          -0.027054322   -0.007681238   -0.010206363
      5        6           0.002778321    0.005329475    0.003248821
      6        6           0.011303187    0.006447968    0.005563771
      7        6          -0.000628445   -0.022062555   -0.009939914
      8        8          -0.015270646    0.013292404    0.005982967
      9        6           0.013354450   -0.009450986   -0.012962835
     10        6          -0.005052913   -0.002405833    0.001654133
     11        8          -0.001256406    0.019987822    0.008996757
     12        6          -0.027898043    0.010554709   -0.001989318
     13        7           0.024172403   -0.009134919    0.001735687
     14        1          -0.003046987    0.000372460   -0.000572977
     15        1          -0.001834477    0.002668202    0.000772390
     16        1           0.005148632   -0.001845002   -0.000537266
     17        1          -0.002465277    0.007461576    0.002751951
     18        1           0.004825659   -0.002496939    0.000877793
     19        1          -0.004440388   -0.002155085   -0.002987809
     20        1          -0.006004314    0.005539882    0.002534961
     21        1          -0.002014388   -0.001753241    0.000095720
     22        1          -0.000586796    0.003037128    0.001137524
     23        1           0.002879886   -0.001343792    0.002213137
     24        1           0.003417553   -0.001561134    0.000132868
 -------------------------------------------------------------------
 Cartesian Forces:  Max     0.027898043 RMS     0.009332333
 FormGI is forming the generalized inverse of G from B-inverse, IUseBI=4.

 GradGradGradGradGradGradGradGradGradGradGradGradGradGradGradGradGradGrad
 Berny optimization.
 Internal  Forces:  Max     0.028655634 RMS     0.006423602
 Search for a local minimum.
 Step number   1 out of a maximum of  117
 All quantities printed in internal units (Hartrees-Bohrs-Radians)
 Mixed Optimization -- RFO/linear search
 Second derivative matrix not updated -- analytic derivatives used.
 ITU=  0
     Eigenvalues ---   -0.00233   0.00084   0.00272   0.00346   0.00385
     Eigenvalues ---    0.01121   0.01361   0.01519   0.01715   0.02122
     Eigenvalues ---    0.02429   0.02568   0.03824   0.04489   0.04530
     Eigenvalues ---    0.04874   0.05269   0.05464   0.05698   0.05734
     Eigenvalues ---    0.06396   0.10088   0.10106   0.11045   0.12073
     Eigenvalues ---    0.12158   0.12260   0.12449   0.13090   0.14097
     Eigenvalues ---    0.14307   0.16592   0.18106   0.18940   0.19485
     Eigenvalues ---    0.20055   0.20922   0.22048   0.22973   0.23899
     Eigenvalues ---    0.24964   0.27978   0.28499   0.29179   0.33566
     Eigenvalues ---    0.34053   0.34257   0.34678   0.34901   0.35001
     Eigenvalues ---    0.35030   0.35478   0.35545   0.36154   0.36997
     Eigenvalues ---    0.38210   0.40261   0.42066   0.43732   0.47439
     Eigenvalues ---    0.48944   0.49840   0.50759   0.51564   0.56828
     Eigenvalues ---    0.77632
 RFO step:  Lambda=-1.35589055D-02 EMin=-2.33279981D-03
 Linear search not attempted -- first point.
 Iteration  1 RMS(Cart)=  0.07910547 RMS(Int)=  0.03456219
 Iteration  2 RMS(Cart)=  0.03127995 RMS(Int)=  0.01411347
 Iteration  3 RMS(Cart)=  0.00329624 RMS(Int)=  0.01363918
 Iteration  4 RMS(Cart)=  0.00023610 RMS(Int)=  0.01363804
 Iteration  5 RMS(Cart)=  0.00002553 RMS(Int)=  0.01363803
 Iteration  6 RMS(Cart)=  0.00000278 RMS(Int)=  0.01363803
 Iteration  7 RMS(Cart)=  0.00000030 RMS(Int)=  0.01363803
 Variable       Old X    -DE/DX   Delta X   Delta X   Delta X     New X
                                 (Linear)    (Quad)   (Total)
    R1        2.59695  -0.01758   0.00000  -0.04377  -0.04377   2.55318
    R2        1.89891   0.00009   0.00000   0.00118   0.00118   1.90009
    R3        1.89910   0.00003   0.00000   0.00091   0.00091   1.90001
    R4        2.54288   0.00272   0.00000   0.00530   0.00531   2.54819
    R5        2.54241   0.00144   0.00000   0.01061   0.01060   2.55301
    R6        2.56884  -0.02300   0.00000  -0.05035  -0.05033   2.51851
    R7        2.87468  -0.01114   0.00000  -0.03771  -0.03771   2.83697
    R8        2.67138  -0.00368   0.00000   0.00628   0.00629   2.67767
    R9        2.05911   0.00231   0.00000   0.00557   0.00557   2.06468
   R10        2.06048  -0.00000   0.00000  -0.00019  -0.00019   2.06029
   R11        2.05897   0.00237   0.00000   0.00587   0.00587   2.06483
   R12        2.83713  -0.01789   0.00000  -0.05378  -0.05378   2.78334
   R13        2.65842  -0.00466   0.00000  -0.00616  -0.00617   2.65225
   R14        2.56774  -0.01123   0.00000  -0.00077  -0.00077   2.56698
   R15        2.32722  -0.02189   0.00000  -0.02435  -0.02435   2.30287
   R16        2.69152   0.00095   0.00000   0.03024   0.03024   2.72177
   R17        2.90109  -0.00712   0.00000  -0.02846  -0.02846   2.87263
   R18        2.06407   0.00145   0.00000   0.00072   0.00072   2.06478
   R19        2.06058   0.00164   0.00000   0.00349   0.00349   2.06407
   R20        2.06076   0.00163   0.00000   0.00293   0.00293   2.06369
   R21        2.05963   0.00270   0.00000   0.00704   0.00704   2.06667
   R22        2.05907   0.00331   0.00000   0.00904   0.00904   2.06812
   R23        2.56466  -0.02866   0.00000  -0.06178  -0.06180   2.50286
   R24        2.04431   0.00203   0.00000   0.00722   0.00722   2.05153
    A1        2.06113   0.00184   0.00000   0.01850  -0.04949   2.01164
    A2        2.05900   0.00224   0.00000   0.02067  -0.04732   2.01169
    A3        2.16306  -0.00408   0.00000  -0.04005  -0.12916   2.03389
    A4        2.03570  -0.00183   0.00000  -0.00119  -0.00134   2.03436
    A5        2.03551  -0.00165   0.00000   0.00025   0.00011   2.03561
    A6        2.21198   0.00349   0.00000   0.00094   0.00079   2.21277
    A7        2.03266   0.00092   0.00000   0.01722   0.01726   2.04991
    A8        1.97953   0.01161   0.00000   0.04116   0.04114   2.02067
    A9        2.13681  -0.00807   0.00000  -0.03012  -0.03010   2.10671
   A10        2.16685  -0.00353   0.00000  -0.01103  -0.01105   2.15580
   A11        1.92204   0.00243   0.00000   0.01394   0.01409   1.93613
   A12        1.96217  -0.01145   0.00000  -0.06062  -0.06040   1.90177
   A13        1.92179   0.00238   0.00000   0.01115   0.01126   1.93305
   A14        1.88143   0.00547   0.00000   0.03923   0.03947   1.92091
   A15        1.89276  -0.00403   0.00000  -0.04025  -0.04021   1.85255
   A16        1.88170   0.00544   0.00000   0.03734   0.03751   1.91922
   A17        2.16379  -0.00756   0.00000  -0.02352  -0.02353   2.14026
   A18        2.01030   0.00776   0.00000   0.01765   0.01763   2.02793
   A19        2.10909  -0.00020   0.00000   0.00589   0.00587   2.11497
   A20        1.97255  -0.00840   0.00000  -0.02295  -0.02295   1.94960
   A21        2.16738   0.00615   0.00000   0.02665   0.02664   2.19403
   A22        2.14324   0.00225   0.00000  -0.00368  -0.00368   2.13956
   A23        2.12028  -0.02525   0.00000  -0.10716  -0.10716   2.01313
   A24        1.93672   0.00390   0.00000   0.00960   0.00976   1.94648
   A25        1.93854  -0.00262   0.00000  -0.03264  -0.03271   1.90583
   A26        1.88431  -0.00667   0.00000  -0.05390  -0.05391   1.83040
   A27        1.93628  -0.00150   0.00000   0.00073   0.00035   1.93663
   A28        1.90817   0.00415   0.00000   0.03527   0.03502   1.94319
   A29        1.85717   0.00263   0.00000   0.04181   0.04062   1.89779
   A30        1.93878  -0.00204   0.00000  -0.01268  -0.01274   1.92604
   A31        1.93914  -0.00172   0.00000  -0.00492  -0.00495   1.93419
   A32        1.93505  -0.00203   0.00000  -0.01527  -0.01537   1.91968
   A33        1.88379   0.00221   0.00000   0.01620   0.01620   1.89999
   A34        1.87957   0.00212   0.00000   0.01143   0.01131   1.89088
   A35        1.88518   0.00177   0.00000   0.00703   0.00696   1.89214
   A36        2.15406   0.00193   0.00000   0.00902   0.00899   2.16305
   A37        2.12472  -0.00420   0.00000  -0.03779  -0.03778   2.08695
   A38        2.00440   0.00227   0.00000   0.02877   0.02878   2.03318
   A39        2.02056  -0.00603   0.00000  -0.01470  -0.01475   2.00582
    D1        3.14100   0.00000   0.00000  -0.35747  -0.33143   2.80957
    D2       -0.00070  -0.00000   0.00000  -0.38715  -0.36110  -0.36180
    D3        0.00067   0.00001   0.00000   0.38719   0.36113   0.36180
    D4       -3.14102   0.00000   0.00000   0.35750   0.33146  -2.80956
    D5       -3.14151  -0.00001   0.00000  -0.05248  -0.05253   3.08915
    D6        0.00020  -0.00000   0.00000  -0.01937  -0.01941  -0.01921
    D7        3.14158  -0.00001   0.00000   0.05231   0.05227  -3.08933
    D8       -0.00012  -0.00001   0.00000   0.01920   0.01913   0.01901
    D9        3.14134   0.00001   0.00000   0.00060   0.00060  -3.14124
   D10        0.00002   0.00002   0.00000   0.00343   0.00343   0.00344
   D11       -2.10307  -0.00098   0.00000  -0.02041  -0.02032  -2.12339
   D12       -0.00476   0.00003   0.00000  -0.00126  -0.00127  -0.00603
   D13        2.09372   0.00098   0.00000   0.01359   0.01355   2.10728
   D14        1.03825  -0.00099   0.00000  -0.02330  -0.02324   1.01501
   D15        3.13656   0.00002   0.00000  -0.00415  -0.00419   3.13237
   D16       -1.04814   0.00097   0.00000   0.01070   0.01063  -1.03751
   D17       -3.14038  -0.00000   0.00000  -0.00040  -0.00032  -3.14070
   D18       -0.00027  -0.00002   0.00000   0.00986   0.00989   0.00962
   D19        0.00151   0.00000   0.00000   0.00273   0.00273   0.00424
   D20       -3.14157  -0.00001   0.00000   0.01299   0.01294  -3.12862
   D21       -3.12691  -0.00017   0.00000   0.00203   0.00198  -3.12493
   D22        0.01058   0.00006   0.00000   0.00426   0.00422   0.01480
   D23        0.01625  -0.00016   0.00000  -0.00878  -0.00874   0.00751
   D24       -3.12945   0.00007   0.00000  -0.00655  -0.00650  -3.13595
   D25        0.00036   0.00000   0.00000  -0.01002  -0.01009  -0.00973
   D26       -3.14058   0.00001   0.00000  -0.01387  -0.01392   3.12869
   D27        3.14051  -0.00002   0.00000  -0.00014  -0.00006   3.14045
   D28       -0.00042  -0.00001   0.00000  -0.00399  -0.00389  -0.00431
   D29       -3.12933   0.00037   0.00000   0.00757   0.00755  -3.12178
   D30        0.01631   0.00013   0.00000   0.00529   0.00530   0.02161
   D31        1.44293  -0.00121   0.00000  -0.00625  -0.00617   1.43676
   D32       -0.71959  -0.00021   0.00000   0.00940   0.00975  -0.70984
   D33       -2.74947   0.00201   0.00000   0.00881   0.00837  -2.74110
   D34       -1.10269  -0.00067   0.00000  -0.00948  -0.00945  -1.11214
   D35        0.99464  -0.00039   0.00000  -0.00080  -0.00083   0.99381
   D36        3.09122  -0.00066   0.00000  -0.00540  -0.00543   3.08579
   D37        1.06112  -0.00232   0.00000  -0.04415  -0.04435   1.01677
   D38       -3.12474  -0.00204   0.00000  -0.03548  -0.03572   3.12272
   D39       -1.02816  -0.00230   0.00000  -0.04008  -0.04033  -1.06848
   D40        3.10401   0.00254   0.00000   0.02885   0.02912   3.13313
   D41       -1.08185   0.00282   0.00000   0.03753   0.03775  -1.04410
   D42        1.01474   0.00255   0.00000   0.03292   0.03314   1.04788
   D43       -0.00018   0.00001   0.00000  -0.00320  -0.00327  -0.00345
   D44        3.14080   0.00001   0.00000   0.00039   0.00043   3.14123
         Item               Value     Threshold  Converged?
 Maximum Force            0.028656     0.000450     NO 
 RMS     Force            0.006424     0.000300     NO 
 Maximum Displacement     0.316247     0.001800     NO 
 RMS     Displacement     0.095089     0.001200     NO 
 Predicted change in Energy=-7.775309D-03
 GradGradGradGradGradGradGradGradGradGradGradGradGradGradGradGradGradGrad

                          Input orientation:                          
 ---------------------------------------------------------------------
 Center     Atomic      Atomic             Coordinates (Angstroms)
 Number     Number       Type             X           Y           Z
 ---------------------------------------------------------------------
      1          7           0       -3.944317    2.115924   -0.055332
      2          6           0       -2.790061    1.415679   -0.002659
      3          7           0       -2.806106    0.184535   -0.552498
      4          6           0       -1.661237   -0.497591   -0.565291
      5          6           0       -1.721748   -1.862992   -1.186424
      6          6           0       -0.480628    0.059960   -0.014768
      7          6           0        0.806845   -0.655400   -0.007278
      8          8           0        1.783438    0.074210    0.592010
      9          6           0        3.084685   -0.542585    0.619870
     10          6           0        3.828199   -0.335566   -0.689761
     11          8           0        1.006738   -1.764937   -0.469895
     12          6           0       -0.602299    1.342847    0.541328
     13          7           0       -1.731180    2.035192    0.563169
     14          1           0       -4.014099    2.877785    0.597126
     15          1           0       -4.774234    1.565394   -0.193430
     16          1           0       -1.411916   -2.630397   -0.473100
     17          1           0       -2.741086   -2.054494   -1.522484
     18          1           0       -1.031004   -1.935638   -2.029934
     19          1           0        2.973249   -1.606561    0.842108
     20          1           0        3.604570   -0.062918    1.452137
     21          1           0        3.299678   -0.828285   -1.508592
     22          1           0        3.921701    0.729569   -0.919518
     23          1           0        4.832960   -0.763909   -0.621294
     24          1           0        0.265452    1.817176    0.989208
 ---------------------------------------------------------------------
                    Distance matrix (angstroms):
                    1          2          3          4          5
     1  N    0.000000
     2  C    1.351082   0.000000
     3  N    2.296293   1.348442   0.000000
     4  C    3.507559   2.291593   1.332736   0.000000
     5  C    4.695844   3.645857   2.402095   1.501262   0.000000
     6  C    4.028123   2.677985   2.390088   1.416960   2.571167
     7  C    5.500553   4.150557   3.749157   2.535293   3.040139
     8  O    6.115131   4.803131   4.731383   3.678599   4.381998
     9  C    7.545226   6.223744   6.050172   4.891872   5.301695
    10  C    8.174613   6.880432   6.656076   5.493237   5.777682
    11  O    6.304434   4.974968   4.283111   2.955225   2.822704
    12  C    3.481771   2.255555   2.719358   2.394403   3.809947
    13  N    2.299355   1.350995   2.413526   2.773680   4.272821
    14  H    1.005486   1.998941   3.167724   4.275551   5.559756
    15  H    1.005444   1.998937   2.430890   3.752990   4.696545
    16  H    5.395845   4.300155   3.142278   2.149307   1.092583
    17  H    4.581777   3.788716   2.440973   2.122791   1.090257
    18  H    5.366712   4.293653   3.135114   2.147173   1.092663
    19  H    7.906644   6.562265   6.209179   4.968808   5.120908
    20  H    8.000344   6.722647   6.721351   5.655765   6.210630
    21  H    7.953351   6.662442   6.262629   5.060617   5.137034
    22  H    8.033868   6.808754   6.759819   5.727180   6.216198
    23  H    9.254963   7.952595   7.698027   6.499897   6.670199
    24  H    4.347697   3.237462   3.804845   3.389210   4.714443
                    6          7          8          9         10
     6  C    0.000000
     7  C    1.472883   0.000000
     8  O    2.344009   1.358385   0.000000
     9  C    3.671142   2.365290   1.440298   0.000000
    10  C    4.379275   3.113946   2.447836   1.520133   0.000000
    11  O    2.397842   1.218624   2.261275   2.645675   3.170503
    12  C    1.403512   2.505923   2.702545   4.141845   4.895096
    13  N    2.408201   3.742495   4.024776   5.462665   6.172279
    14  H    4.560699   6.007513   6.439837   7.879860   8.572243
    15  H    4.553384   6.009577   6.770790   8.177264   8.823936
    16  H    2.883641   3.006743   4.319681   5.076708   5.724683
    17  H    3.442934   4.103795   5.428976   6.388675   6.841320
    18  H    2.888983   3.017919   4.339950   5.089298   5.288492
    19  H    3.929478   2.513856   2.074414   1.092636   2.166332
    20  H    4.342321   3.210637   2.018698   1.092258   2.170731
    21  H    4.160673   2.915141   2.743357   2.158285   1.092058
    22  H    4.543946   3.528830   2.699330   2.165337   1.093637
    23  H    5.411178   4.074112   3.387350   2.155444   1.094400
    24  H    2.156945   2.720243   2.345203   3.694991   4.488474
                   11         12         13         14         15
    11  O    0.000000
    12  C    3.642787   0.000000
    13  N    4.796290   1.324459   0.000000
    14  H    6.921142   3.741594   2.433688   0.000000
    15  H    6.677362   4.241985   3.170698   1.710308   0.000000
    16  H    2.568835   4.179858   4.789938   6.185209   5.384056
    17  H    3.903585   4.513940   4.700573   5.517308   4.359318
    18  H    2.572013   4.188513   4.793947   6.242543   5.444423
    19  H    2.369304   4.644785   5.955823   8.306168   8.435469
    20  H    3.652370   4.528079   5.801945   8.211145   8.692735
    21  H    2.685849   4.913391   6.148270   8.465243   8.523344
    22  H    3.862866   4.793407   5.988161   8.360141   8.766133
    23  H    3.957898   5.944086   7.233662   9.644529   9.894791
    24  H    3.938276   1.085623   2.053188   4.426419   5.182708
                   16         17         18         19         20
    16  H    0.000000
    17  H    1.788733   0.000000
    18  H    1.746858   1.787740   0.000000
    19  H    4.691235   6.200449   4.938720   0.000000
    20  H    5.955133   7.285746   6.092654   1.775819   0.000000
    21  H    5.149656   6.163977   4.500314   2.497611   3.073216
    22  H    6.319503   7.246192   5.732856   3.075775   2.520586
    23  H    6.519526   7.735886   6.143557   2.511998   2.509870
    24  H    4.973210   5.507967   4.987949   4.367583   3.859892
                   21         22         23         24
    21  H    0.000000
    22  H    1.777872   0.000000
    23  H    1.772681   1.774770   0.000000
    24  H    4.737509   4.265475   5.487973   0.000000
 Stoichiometry    C8H11N3O2
 Framework group  C1[X(C8H11N3O2)]
 Deg. of freedom    66
 Full point group                 C1      NOp   1
 Largest Abelian subgroup         C1      NOp   1
 Largest concise Abelian subgroup C1      NOp   1
                         Standard orientation:                         
 ---------------------------------------------------------------------
 Center     Atomic      Atomic             Coordinates (Angstroms)
 Number     Number       Type             X           Y           Z
 ---------------------------------------------------------------------
      1          7           0       -4.081691   -0.818008    0.259121
      2          6           0       -2.770000   -0.540464    0.092214
      3          7           0       -2.421987    0.762137    0.112540
      4          6           0       -1.125411    1.053321    0.011113
      5          6           0       -0.780319    2.514129    0.038310
      6          6           0       -0.160472    0.023632   -0.116988
      7          6           0        1.282324    0.297038   -0.230874
      8          8           0        2.001574   -0.847629   -0.363639
      9          6           0        3.428160   -0.672155   -0.455931
     10          6           0        4.060729   -0.514599    0.917327
     11          8           0        1.800788    1.399743   -0.214065
     12          6           0       -0.655303   -1.289533   -0.141202
     13          7           0       -1.939594   -1.597640   -0.041925
     14          1           0       -4.369622   -1.730895   -0.048671
     15          1           0       -4.709654   -0.058294    0.060589
     16          1           0       -0.246610    2.806092   -0.869243
     17          1           0       -1.698886    3.093442    0.134694
     18          1           0       -0.109001    2.737990    0.870855
     19          1           0        3.643583    0.193314   -1.087128
     20          1           0        3.789355   -1.571868   -0.959002
     21          1           0        3.695361    0.393289    1.401926
     22          1           0        3.827769   -1.373159    1.553445
     23          1           0        5.148414   -0.440135    0.821893
     24          1           0        0.035048   -2.120330   -0.249686
 ---------------------------------------------------------------------
 Rotational constants (GHZ):           1.7908265           0.4525894           0.3755124
 Standard basis: 6-31G(d,p) (6D, 7F)
 There are   250 symmetry adapted cartesian basis functions of A   symmetry.
 There are   250 symmetry adapted basis functions of A   symmetry.
   250 basis functions,   441 primitive gaussians,   250 cartesian basis functions
    48 alpha electrons       48 beta electrons
       nuclear repulsion energy       790.0823271293 Hartrees.
 NAtoms=   24 NActive=   24 NUniq=   24 SFac= 1.00D+00 NAtFMM=   60 NAOKFM=F Big=F
 Integral buffers will be    131072 words long.
 Raffenetti 2 integral format.
 Two-electron integral symmetry is turned on.
 Nuclear repulsion after empirical dispersion term =      790.0405708704 Hartrees.
 One-electron integrals computed using PRISM.
 NBasis=   250 RedAO= T EigKep=  9.27D-04  NBF=   250
 NBsUse=   250 1.00D-06 EigRej= -1.00D+00 NBFU=   250
 Initial guess from the checkpoint file:  "pyrmd1_conf-2.chk"
 B after Tr=    -0.000000    0.000000   -0.000000
         Rot=    0.999962    0.006838   -0.000145    0.005375 Ang=   1.00 deg.
 ExpMin= 1.61D-01 ExpMax= 5.48D+03 ExpMxC= 8.25D+02 IAcc=3 IRadAn=         5 AccDes= 0.00D+00
 Harris functional with IExCor=  402 and IRadAn=       5 diagonalized for initial guess.
 HarFok:  IExCor=  402 AccDes= 0.00D+00 IRadAn=         5 IDoV= 1 UseB2=F ITyADJ=14
 ICtDFT=  3500011 ScaDFX=  1.000000  1.000000  1.000000  1.000000
 FoFCou: FMM=F IPFlag=           0 FMFlag=      100000 FMFlg1=           0
         NFxFlg=           0 DoJE=T BraDBF=F KetDBF=T FulRan=T
         wScrn=  0.000000 ICntrl=       500 IOpCl=  0 I1Cent=   200000004 NGrid=           0
         NMat0=    1 NMatS0=      1 NMatT0=    0 NMatD0=    1 NMtDS0=    0 NMtDT0=    0
 Petite list used in FoFCou.
 Requested convergence on RMS density matrix=1.00D-08 within 128 cycles.
 Requested convergence on MAX density matrix=1.00D-06.
 Requested convergence on             energy=1.00D-06.
 No special actions if energy rises.
 Integral accuracy reduced to 1.0D-05 until final iterations.
 Initial convergence to 1.0D-05 achieved.  Increase integral accuracy.
 SCF Done:  E(RB3LYP) =  -626.275733429     A.U. after   13 cycles
            NFock= 13  Conv=0.40D-08     -V/T= 2.0092
 Calling FoFJK, ICntrl=      2127 FMM=F ISym2X=0 I1Cent= 0 IOpClX= 0 NMat=1 NMatS=1 NMatT=0.
 ***** Axes restored to original set *****
 -------------------------------------------------------------------
 Center     Atomic                   Forces (Hartrees/Bohr)
 Number     Number              X              Y              Z
 -------------------------------------------------------------------
      1        7          -0.007531498    0.002209175    0.003476620
      2        6           0.009458532   -0.004806402   -0.001596408
      3        7          -0.000699881    0.002172904    0.000807481
      4        6           0.001430577   -0.001760769   -0.000311370
      5        6          -0.000789918   -0.000258457   -0.000253010
      6        6          -0.000983899    0.000892186    0.000105043
      7        6           0.000385915   -0.000021143    0.000090425
      8        8          -0.000738361   -0.000565972   -0.000334479
      9        6           0.004395174   -0.001237430    0.001365339
     10        6          -0.000673745    0.000310375   -0.000594972
     11        8          -0.000932628   -0.000268874   -0.000337081
     12        6           0.002378873   -0.001329700    0.000218395
     13        7          -0.002571137    0.000361063   -0.000543445
     14        1          -0.000009206    0.004425726    0.000622964
     15        1          -0.003292743   -0.001180413   -0.002805177
     16        1           0.000742227   -0.000087083   -0.000243696
     17        1          -0.000306266    0.000484447    0.000130367
     18        1           0.000590109   -0.000370007    0.000349047
     19        1          -0.000789797    0.000187566   -0.000592801
     20        1          -0.000676385    0.001119572    0.000073337
     21        1           0.000084019   -0.000211443    0.000065716
     22        1           0.000053263    0.000151093    0.000096642
     23        1           0.000161878   -0.000004990    0.000203187
     24        1           0.000314897   -0.000211423    0.000007875
 -------------------------------------------------------------------
 Cartesian Forces:  Max     0.009458532 RMS     0.001998055

 GradGradGradGradGradGradGradGradGradGradGradGradGradGradGradGradGradGrad
 Berny optimization.
 Using GEDIIS/GDIIS optimizer.
 FormGI is forming the generalized inverse of G from B-inverse, IUseBI=4.
 Internal  Forces:  Max     0.012031855 RMS     0.001551628
 Search for a local minimum.
 Step number   2 out of a maximum of  117
 All quantities printed in internal units (Hartrees-Bohrs-Radians)
 Mixed Optimization -- RFO/linear search
 Update second derivatives using D2CorX and points    1    2
 DE= -6.07D-03 DEPred=-7.78D-03 R= 7.81D-01
 TightC=F SS=  1.41D+00  RLast= 7.55D-01 DXNew= 5.0454D-01 2.2645D+00
 Trust test= 7.81D-01 RLast= 7.55D-01 DXMaxT set to 5.05D-01
 ITU=  1  0
 Use linear search instead of GDIIS.
     Eigenvalues ---   -0.00362   0.00084   0.00272   0.00346   0.00385
     Eigenvalues ---    0.01120   0.01361   0.01519   0.01715   0.02121
     Eigenvalues ---    0.02428   0.02567   0.03821   0.04489   0.04529
     Eigenvalues ---    0.04769   0.05264   0.05437   0.05698   0.05732
     Eigenvalues ---    0.06395   0.09503   0.10058   0.11044   0.11964
     Eigenvalues ---    0.12133   0.12246   0.12387   0.13033   0.14082
     Eigenvalues ---    0.14092   0.16573   0.17927   0.18925   0.19640
     Eigenvalues ---    0.19926   0.20945   0.21574   0.22904   0.23870
     Eigenvalues ---    0.24930   0.27834   0.28445   0.29180   0.33558
     Eigenvalues ---    0.34017   0.34245   0.34674   0.34878   0.34983
     Eigenvalues ---    0.35001   0.35476   0.35525   0.35993   0.37008
     Eigenvalues ---    0.38183   0.41198   0.42346   0.43617   0.47457
     Eigenvalues ---    0.48403   0.49797   0.49939   0.51562   0.58251
     Eigenvalues ---    0.76468
 RFO step:  Lambda=-5.54835612D-03 EMin=-3.62363869D-03
 Quartic linear search produced a step of -0.16497.
 Iteration  1 RMS(Cart)=  0.04581022 RMS(Int)=  0.06018988
 Iteration  2 RMS(Cart)=  0.03677353 RMS(Int)=  0.02956844
 Iteration  3 RMS(Cart)=  0.01037419 RMS(Int)=  0.02763739
 Iteration  4 RMS(Cart)=  0.00151639 RMS(Int)=  0.02759992
 Iteration  5 RMS(Cart)=  0.00023915 RMS(Int)=  0.02759907
 Iteration  6 RMS(Cart)=  0.00003609 RMS(Int)=  0.02759905
 Iteration  7 RMS(Cart)=  0.00000552 RMS(Int)=  0.02759905
 Iteration  8 RMS(Cart)=  0.00000084 RMS(Int)=  0.02759905
 Variable       Old X    -DE/DX   Delta X   Delta X   Delta X     New X
                                 (Linear)    (Quad)   (Total)
    R1        2.55318   0.01203   0.00722  -0.00166   0.00556   2.55873
    R2        1.90009   0.00376  -0.00020   0.00863   0.00843   1.90853
    R3        1.90001   0.00375  -0.00015   0.00840   0.00825   1.90827
    R4        2.54819  -0.00050  -0.00088  -0.00060  -0.00145   2.54674
    R5        2.55301  -0.00031  -0.00175   0.00349   0.00176   2.55477
    R6        2.51851   0.00250   0.00830  -0.03046  -0.02215   2.49636
    R7        2.83697   0.00021   0.00622  -0.02726  -0.02104   2.81593
    R8        2.67767   0.00017  -0.00104   0.00440   0.00335   2.68101
    R9        2.06468   0.00011  -0.00092   0.00446   0.00354   2.06822
   R10        2.06029   0.00016   0.00003  -0.00006  -0.00003   2.06026
   R11        2.06483   0.00013  -0.00097   0.00478   0.00382   2.06865
   R12        2.78334   0.00137   0.00887  -0.03086  -0.02198   2.76136
   R13        2.65225  -0.00023   0.00102  -0.00632  -0.00532   2.64693
   R14        2.56698   0.00130   0.00013  -0.00291  -0.00278   2.56419
   R15        2.30287   0.00022   0.00402  -0.01811  -0.01409   2.28877
   R16        2.72177   0.00218  -0.00499   0.02864   0.02365   2.74542
   R17        2.87263   0.00005   0.00469  -0.02102  -0.01632   2.85631
   R18        2.06478  -0.00022  -0.00012  -0.00013  -0.00025   2.06453
   R19        2.06407   0.00023  -0.00058   0.00256   0.00199   2.06606
   R20        2.06369   0.00001  -0.00048   0.00216   0.00167   2.06536
   R21        2.06667   0.00013  -0.00116   0.00530   0.00414   2.07082
   R22        2.06812   0.00016  -0.00149   0.00717   0.00567   2.07379
   R23        2.50286   0.00312   0.01020  -0.03686  -0.02667   2.47620
   R24        2.05153   0.00016  -0.00119   0.00530   0.00411   2.05564
    A1        2.01164   0.00145   0.00816   0.23519   0.08241   2.09405
    A2        2.01169   0.00153   0.00781   0.23736   0.08424   2.09593
    A3        2.03389   0.00004   0.02131   0.17028   0.02403   2.05793
    A4        2.03436   0.00058   0.00022  -0.00052  -0.00058   2.03378
    A5        2.03561   0.00060  -0.00002   0.00070   0.00040   2.03601
    A6        2.21277  -0.00117  -0.00013   0.00089   0.00057   2.21334
    A7        2.04991   0.00117  -0.00285   0.01496   0.01218   2.06209
    A8        2.02067   0.00031  -0.00679   0.02983   0.02304   2.04371
    A9        2.10671  -0.00037   0.00497  -0.02441  -0.01944   2.08727
   A10        2.15580   0.00005   0.00182  -0.00542  -0.00360   2.15221
   A11        1.93613   0.00017  -0.00233   0.00853   0.00622   1.94235
   A12        1.90177  -0.00066   0.00996  -0.04611  -0.03610   1.86567
   A13        1.93305   0.00019  -0.00186   0.01049   0.00867   1.94173
   A14        1.92091   0.00049  -0.00651   0.03240   0.02591   1.94682
   A15        1.85255  -0.00064   0.00663  -0.03616  -0.02951   1.82304
   A16        1.91922   0.00047  -0.00619   0.03288   0.02676   1.94598
   A17        2.14026   0.00008   0.00388  -0.01826  -0.01438   2.12588
   A18        2.02793  -0.00020  -0.00291   0.01384   0.01088   2.03881
   A19        2.11497   0.00012  -0.00097   0.00450   0.00352   2.11849
   A20        1.94960  -0.00047   0.00379  -0.01891  -0.01512   1.93448
   A21        2.19403  -0.00092  -0.00440   0.01504   0.01065   2.20467
   A22        2.13956   0.00139   0.00061   0.00387   0.00447   2.14403
   A23        2.01313   0.00527   0.01768  -0.05259  -0.03491   1.97821
   A24        1.94648   0.00004  -0.00161   0.00402   0.00247   1.94895
   A25        1.90583  -0.00022   0.00540  -0.02659  -0.02120   1.88463
   A26        1.83040  -0.00074   0.00889  -0.04783  -0.03888   1.79152
   A27        1.93663   0.00006  -0.00006   0.00258   0.00232   1.93894
   A28        1.94319   0.00030  -0.00578   0.02835   0.02238   1.96556
   A29        1.89779   0.00052  -0.00670   0.03716   0.02999   1.92778
   A30        1.92604   0.00002   0.00210  -0.00891  -0.00682   1.91922
   A31        1.93419  -0.00007   0.00082  -0.00457  -0.00377   1.93042
   A32        1.91968  -0.00026   0.00254  -0.01290  -0.01039   1.90929
   A33        1.89999   0.00016  -0.00267   0.01382   0.01115   1.91114
   A34        1.89088   0.00008  -0.00187   0.00863   0.00674   1.89762
   A35        1.89214   0.00007  -0.00115   0.00472   0.00354   1.89568
   A36        2.16305  -0.00014  -0.00148   0.00527   0.00377   2.16682
   A37        2.08695  -0.00028   0.00623  -0.02725  -0.02102   2.06593
   A38        2.03318   0.00042  -0.00475   0.02199   0.01725   2.05043
   A39        2.00582   0.00071   0.00243  -0.01025  -0.00777   1.99804
    D1        2.80957   0.00189   0.05468   0.43539   0.46989  -3.00373
    D2       -0.36180   0.00204   0.05957   0.47128   0.51066   0.14887
    D3        0.36180  -0.00207  -0.05958  -0.47260  -0.51199  -0.15018
    D4       -2.80956  -0.00191  -0.05468  -0.43671  -0.47121   3.00241
    D5        3.08915   0.00019   0.00867   0.05586   0.06457  -3.12947
    D6       -0.01921  -0.00003   0.00320   0.01581   0.01906  -0.00016
    D7       -3.08933  -0.00020  -0.00862  -0.05640  -0.06499   3.12886
    D8        0.01901   0.00002  -0.00316  -0.01634  -0.01945  -0.00044
    D9       -3.14124   0.00001  -0.00010  -0.00052  -0.00063   3.14131
   D10        0.00344   0.00000  -0.00057  -0.00301  -0.00357  -0.00013
   D11       -2.12339  -0.00029   0.00335  -0.01601  -0.01267  -2.13605
   D12       -0.00603   0.00000   0.00021  -0.00055  -0.00033  -0.00637
   D13        2.10728   0.00028  -0.00224   0.01690   0.01464   2.12191
   D14        1.01501  -0.00029   0.00383  -0.01348  -0.00963   1.00538
   D15        3.13237   0.00000   0.00069   0.00198   0.00270   3.13507
   D16       -1.03751   0.00028  -0.00175   0.01943   0.01767  -1.01984
   D17       -3.14070   0.00004   0.00005   0.00344   0.00342  -3.13728
   D18        0.00962   0.00004  -0.00163  -0.00701  -0.00868   0.00094
   D19        0.00424   0.00003  -0.00045   0.00070   0.00024   0.00448
   D20       -3.12862   0.00004  -0.00214  -0.00976  -0.01186  -3.14049
   D21       -3.12493  -0.00003  -0.00033  -0.00742  -0.00770  -3.13263
   D22        0.01480  -0.00001  -0.00070  -0.00667  -0.00732   0.00748
   D23        0.00751  -0.00003   0.00144   0.00358   0.00498   0.01249
   D24       -3.13595  -0.00001   0.00107   0.00434   0.00536  -3.13059
   D25       -0.00973  -0.00005   0.00166   0.00638   0.00809  -0.00164
   D26        3.12869  -0.00002   0.00230   0.01121   0.01354  -3.14096
   D27        3.14045  -0.00005   0.00001  -0.00379  -0.00386   3.13659
[...]
                 (A) (A) (A) (A) (A) (A) (A) (A) (A) (A) (A) (A)
                 (A) (A) (A) (A) (A) (A) (A) (A) (A) (A) (A) (A)
                 (A)
 The electronic state is 1-A.
 Alpha  occ. eigenvalues --  -19.66866 -19.61363 -14.77371 -14.75269 -14.75085
 Alpha  occ. eigenvalues --  -10.67761 -10.65644 -10.61108 -10.59842 -10.59561
 Alpha  occ. eigenvalues --  -10.55604 -10.53155 -10.52870  -1.22824  -1.13578
 Alpha  occ. eigenvalues --   -1.12203  -1.02227  -1.00339  -0.90345  -0.86412
 Alpha  occ. eigenvalues --   -0.82358  -0.76394  -0.73679  -0.71393  -0.65041
 Alpha  occ. eigenvalues --   -0.63497  -0.61305  -0.60454  -0.57088  -0.55973
 Alpha  occ. eigenvalues --   -0.54470  -0.52797  -0.52034  -0.50026  -0.48235
 Alpha  occ. eigenvalues --   -0.47499  -0.46596  -0.45356  -0.44892  -0.44399
 Alpha  occ. eigenvalues --   -0.41212  -0.40028  -0.39738  -0.37358  -0.37077
 Alpha  occ. eigenvalues --   -0.35354  -0.32314  -0.29283
 Alpha virt. eigenvalues --   -0.01226  -0.00322   0.06605   0.07414   0.08860
 Alpha virt. eigenvalues --    0.09409   0.10666   0.11244   0.11732   0.13014
 Alpha virt. eigenvalues --    0.13566   0.14611   0.15312   0.15586   0.16112
 Alpha virt. eigenvalues --    0.17069   0.17204   0.18793   0.19318   0.21847
 Alpha virt. eigenvalues --    0.22561   0.23640   0.24028   0.25149   0.25639
 Alpha virt. eigenvalues --    0.26026   0.26266   0.26767   0.27293   0.28870
 Alpha virt. eigenvalues --    0.29578   0.30954   0.31683   0.31832   0.33212
 Alpha virt. eigenvalues --    0.33415   0.34816   0.36226   0.36888   0.38118
 Alpha virt. eigenvalues --    0.38291   0.39326   0.40162   0.41073   0.42151
 Alpha virt. eigenvalues --    0.42666   0.44024   0.45008   0.45339   0.46101
 Alpha virt. eigenvalues --    0.46407   0.46920   0.47346   0.47864   0.48084
 Alpha virt. eigenvalues --    0.49030   0.49423   0.50429   0.50862   0.51905
 Alpha virt. eigenvalues --    0.52167   0.52640   0.53138   0.53765   0.55816
 Alpha virt. eigenvalues --    0.56385   0.56694   0.58270   0.59221   0.60254
 Alpha virt. eigenvalues --    0.61575   0.62324   0.63091   0.64585   0.65523
 Alpha virt. eigenvalues --    0.66157   0.66979   0.67249   0.68429   0.69736
 Alpha virt. eigenvalues --    0.69897   0.71235   0.72472   0.73422   0.74171
 Alpha virt. eigenvalues --    0.74648   0.76716   0.77844   0.78422   0.79581
 Alpha virt. eigenvalues --    0.79802   0.82029   0.84194   0.84596   0.87135
 Alpha virt. eigenvalues --    0.88698   0.89318   0.90876   0.92193   0.93962
 Alpha virt. eigenvalues --    0.94598   0.95266   0.97479   0.98851   1.00037
 Alpha virt. eigenvalues --    1.02458   1.02499   1.05031   1.06430   1.09014
 Alpha virt. eigenvalues --    1.09591   1.10142   1.12327   1.12731   1.13243
 Alpha virt. eigenvalues --    1.15345   1.19604   1.20180   1.21594   1.23302
 Alpha virt. eigenvalues --    1.24380   1.28269   1.30639   1.31459   1.32609
 Alpha virt. eigenvalues --    1.35223   1.36621   1.37624   1.38448   1.39960
 Alpha virt. eigenvalues --    1.42843   1.44686   1.45224   1.47754   1.48441
 Alpha virt. eigenvalues --    1.51206   1.52270   1.53039   1.53660   1.54675
 Alpha virt. eigenvalues --    1.55600   1.56835   1.57503   1.58221   1.59082
 Alpha virt. eigenvalues --    1.59595   1.59986   1.60193   1.61006   1.62511
 Alpha virt. eigenvalues --    1.63544   1.64354   1.64844   1.65813   1.68173
 Alpha virt. eigenvalues --    1.68725   1.70199   1.71203   1.73614   1.74191
 Alpha virt. eigenvalues --    1.75215   1.75845   1.78826   1.80172   1.81172
 Alpha virt. eigenvalues --    1.83185   1.83696   1.84177   1.85763   1.86614
 Alpha virt. eigenvalues --    1.87835   1.90164   1.91007   1.92734   1.94873
 Alpha virt. eigenvalues --    1.95582   1.96713   1.99720   2.01031   2.02138
 Alpha virt. eigenvalues --    2.03329   2.04556   2.06065   2.08361   2.09006
 Alpha virt. eigenvalues --    2.10226   2.11637   2.13358   2.15127   2.15940
 Alpha virt. eigenvalues --    2.17584   2.20331   2.21120   2.24215   2.26990
 Alpha virt. eigenvalues --    2.28868   2.29306   2.30012   2.30306   2.33072
 Alpha virt. eigenvalues --    2.34039   2.34327   2.35024   2.37274   2.37785
 Alpha virt. eigenvalues --    2.38822   2.41278   2.41782   2.42838   2.44132
 Alpha virt. eigenvalues --    2.44601   2.46028   2.47251   2.48644   2.49529
 Alpha virt. eigenvalues --    2.53562   2.54739   2.55890   2.57438   2.58461
 Alpha virt. eigenvalues --    2.59615   2.60583   2.61975   2.62776   2.64246
 Alpha virt. eigenvalues --    2.65203   2.67007   2.69116   2.70349   2.72134
 Alpha virt. eigenvalues --    2.73528   2.76067   2.76988   2.80767   2.81528
 Alpha virt. eigenvalues --    2.82701   2.83708   2.84437   2.85403   2.88545
 Alpha virt. eigenvalues --    2.91215   2.91645   2.92602   2.94525   2.95805
 Alpha virt. eigenvalues --    2.96365   2.97475   2.99061   3.00329   3.00547
 Alpha virt. eigenvalues --    3.02889   3.03260   3.04811   3.06110   3.06310
 Alpha virt. eigenvalues --    3.08243   3.08953   3.11625   3.12695   3.13585
 Alpha virt. eigenvalues --    3.15258   3.16059   3.16443   3.17090   3.18289
 Alpha virt. eigenvalues --    3.18804   3.20768   3.21266   3.22545   3.24330
 Alpha virt. eigenvalues --    3.24737   3.25804   3.26689   3.28010   3.29520
 Alpha virt. eigenvalues --    3.30187   3.30894   3.31590   3.32649   3.33836
 Alpha virt. eigenvalues --    3.35502   3.35923   3.36847   3.38177   3.38635
 Alpha virt. eigenvalues --    3.40052   3.41274   3.41986   3.43562   3.44969
 Alpha virt. eigenvalues --    3.47700   3.48388   3.49504   3.50760   3.53865
 Alpha virt. eigenvalues --    3.54176   3.54975   3.58395   3.60497   3.61517
 Alpha virt. eigenvalues --    3.66528   3.67209   3.68939   3.70130   3.74247
 Alpha virt. eigenvalues --    3.75372   3.76243   3.78404   3.79485   3.80508
 Alpha virt. eigenvalues --    3.84148   3.85537   3.87769   3.88725   3.89964
 Alpha virt. eigenvalues --    3.91058   3.92173   3.94772   3.96047   3.98044
 Alpha virt. eigenvalues --    3.99857   4.05750   4.10652   4.10776   4.12229
 Alpha virt. eigenvalues --    4.13788   4.18072   4.20306   4.22317   4.23955
 Alpha virt. eigenvalues --    4.25790   4.31385   4.33264   4.33856   4.36463
 Alpha virt. eigenvalues --    4.38139   4.41136   4.42670   4.44801   4.46807
 Alpha virt. eigenvalues --    4.50987   4.52405   4.54139   4.56501   4.57266
 Alpha virt. eigenvalues --    4.64752   4.66713   4.69087   4.70935   4.73382
 Alpha virt. eigenvalues --    4.74114   4.75233   4.77882   4.81039   4.83169
 Alpha virt. eigenvalues --    4.92543   4.93455   4.95190   4.97835   5.00951
 Alpha virt. eigenvalues --    5.02524   5.02858   5.04739   5.05294   5.12411
 Alpha virt. eigenvalues --    5.14721   5.15848   5.19227   5.19269   5.19516
 Alpha virt. eigenvalues --    5.27773   5.31037   5.31810   5.32920   5.34905
 Alpha virt. eigenvalues --    5.37702   5.39756   5.42372   5.42857   5.48295
 Alpha virt. eigenvalues --    5.49853   5.51440   5.56762   5.64930   5.68317
 Alpha virt. eigenvalues --    5.69780   5.79841   5.81883   5.89247   5.95231
 Alpha virt. eigenvalues --    5.96155   6.06128   6.11153   6.15777   6.20866
 Alpha virt. eigenvalues --    6.36817   6.37157   6.43413   6.58867   6.64806
 Alpha virt. eigenvalues --    6.73632   6.78890   6.90827   6.91680   7.06307
 Alpha virt. eigenvalues --    7.12636   7.28952   7.41893  22.43445  22.54668
 Alpha virt. eigenvalues --   22.58288  22.85553  22.98757  23.26751  23.35813
 Alpha virt. eigenvalues --   23.53048  32.08176  32.51043  32.85776  44.12189
 Alpha virt. eigenvalues --   44.36915
          Condensed to atoms (all electrons):
               1          2          3          4          5          6
     1  N    6.581665   0.390266  -0.109046   0.007321   0.000279  -0.004790
     2  C    0.390266   4.477438   0.500897  -0.096244   0.004217  -0.024922
     3  N   -0.109046   0.500897   6.540878   0.591123  -0.052354  -0.107956
     4  C    0.007321  -0.096244   0.591123   4.952237   0.253890   0.405966
     5  C    0.000279   0.004217  -0.052354   0.253890   5.101449  -0.064929
     6  C   -0.004790  -0.024922  -0.107956   0.405966  -0.064929   5.514374
     7  C   -0.000059   0.003258   0.002351  -0.037465  -0.031011   0.252880
     8  O   -0.000002  -0.000142  -0.000252  -0.006085   0.000067  -0.149588
     9  C   -0.000000  -0.000008   0.000021   0.000196  -0.000402   0.002610
    10  C    0.000000   0.000003  -0.000000  -0.000160   0.000038   0.000842
    11  O   -0.000001   0.000157   0.000154  -0.008771  -0.004293  -0.101151
    12  C    0.007030  -0.107184  -0.015358  -0.047949   0.002282   0.452274
    13  N   -0.109588   0.492963  -0.073010  -0.030995  -0.002311  -0.058679
    14  H    0.369057  -0.028123   0.006070  -0.001012   0.000025   0.000464
    15  H    0.369382  -0.028707   0.008203   0.000731  -0.000334   0.000832
    16  H    0.000005  -0.000602   0.000946  -0.041022   0.415872   0.001466
    17  H   -0.000265   0.000732   0.005909  -0.069348   0.421293   0.013636
    18  H    0.000002  -0.000536   0.000812  -0.038623   0.411444  -0.000181
    19  H    0.000000  -0.000004  -0.000001  -0.000090  -0.000021  -0.001676
    20  H    0.000000   0.000001  -0.000001   0.000054   0.000015   0.004168
    21  H    0.000000   0.000002   0.000000  -0.000077   0.000082   0.004290
    22  H   -0.000000  -0.000001  -0.000000   0.000007  -0.000009  -0.001357
    23  H   -0.000000  -0.000000   0.000000   0.000002   0.000002  -0.000029
    24  H    0.000015   0.005613  -0.001646   0.001560  -0.000132  -0.059993
               7          8          9         10         11         12
     1  N   -0.000059  -0.000002  -0.000000   0.000000  -0.000001   0.007030
     2  C    0.003258  -0.000142  -0.000008   0.000003   0.000157  -0.107184
     3  N    0.002351  -0.000252   0.000021  -0.000000   0.000154  -0.015358
     4  C   -0.037465  -0.006085   0.000196  -0.000160  -0.008771  -0.047949
     5  C   -0.031011   0.000067  -0.000402   0.000038  -0.004293   0.002282
     6  C    0.252880  -0.149588   0.002610   0.000842  -0.101151   0.452274
     7  C    4.548161   0.368858  -0.047975   0.001511   0.630537  -0.046991
     8  O    0.368858   8.027833   0.188942  -0.033069  -0.080082   0.021118
     9  C   -0.047975   0.188942   4.951358   0.273159   0.006006  -0.002083
    10  C    0.001511  -0.033069   0.273159   5.082479  -0.014632   0.000458
    11  O    0.630537  -0.080082   0.006006  -0.014632   7.932939   0.004483
    12  C   -0.046991   0.021118  -0.002083   0.000458   0.004483   4.817722
    13  N    0.004606   0.000079   0.000011  -0.000009  -0.000289   0.542864
    14  H   -0.000002   0.000000  -0.000000   0.000000   0.000000   0.000985
    15  H   -0.000007   0.000000  -0.000000   0.000000   0.000000  -0.001073
    16  H   -0.005791  -0.000061  -0.000091   0.000017  -0.001319   0.000904
    17  H    0.000764   0.000041  -0.000007   0.000001   0.002290  -0.000562
    18  H   -0.003439  -0.000075   0.000102  -0.000045  -0.000783   0.000758
    19  H   -0.015630  -0.031098   0.438483  -0.059625   0.008543   0.000574
    20  H    0.004727  -0.033273   0.403744  -0.036901   0.001122  -0.000539
    21  H    0.003870  -0.003685  -0.041904   0.418168   0.005063  -0.000117
    22  H   -0.003153   0.003071  -0.033746   0.397611   0.000449   0.000106
    23  H    0.000507   0.004774  -0.040191   0.402726   0.000247  -0.000010
    24  H   -0.009592   0.012690  -0.000274  -0.000102   0.000229   0.431877
              13         14         15         16         17         18
     1  N   -0.109588   0.369057   0.369382   0.000005  -0.000265   0.000002
     2  C    0.492963  -0.028123  -0.028707  -0.000602   0.000732  -0.000536
     3  N   -0.073010   0.006070   0.008203   0.000946   0.005909   0.000812
     4  C   -0.030995  -0.001012   0.000731  -0.041022  -0.069348  -0.038623
     5  C   -0.002311   0.000025  -0.000334   0.415872   0.421293   0.411444
     6  C   -0.058679   0.000464   0.000832   0.001466   0.013636  -0.000181
     7  C    0.004606  -0.000002  -0.000007  -0.005791   0.000764  -0.003439
     8  O    0.000079   0.000000   0.000000  -0.000061   0.000041  -0.000075
     9  C    0.000011  -0.000000  -0.000000  -0.000091  -0.000007   0.000102
    10  C   -0.000009   0.000000   0.000000   0.000017   0.000001  -0.000045
    11  O   -0.000289   0.000000   0.000000  -0.001319   0.002290  -0.000783
    12  C    0.542864   0.000985  -0.001073   0.000904  -0.000562   0.000758
    13  N    6.532387   0.007804   0.006119   0.000170   0.000388   0.000166
    14  H    0.007804   0.401352  -0.022972  -0.000001   0.000003  -0.000001
    15  H    0.006119  -0.022972   0.401657   0.000006   0.000128   0.000007
    16  H    0.000170  -0.000001   0.000006   0.511377  -0.021604  -0.027912
    17  H    0.000388   0.000003   0.000128  -0.021604   0.520283  -0.021447
    18  H    0.000166  -0.000001   0.000007  -0.027912  -0.021447   0.512773
    19  H    0.000009  -0.000000  -0.000000   0.000063  -0.000002  -0.000013
    20  H   -0.000000   0.000000   0.000000   0.000001  -0.000000  -0.000000
    21  H    0.000003   0.000000   0.000000  -0.000005  -0.000000   0.000051
    22  H    0.000004  -0.000000  -0.000000   0.000000  -0.000000   0.000001
    23  H    0.000000  -0.000000   0.000000   0.000000  -0.000000  -0.000001
    24  H   -0.025482  -0.000118   0.000018   0.000019   0.000007   0.000014
              19         20         21         22         23         24
     1  N    0.000000   0.000000   0.000000  -0.000000  -0.000000   0.000015
     2  C   -0.000004   0.000001   0.000002  -0.000001  -0.000000   0.005613
     3  N   -0.000001  -0.000001   0.000000  -0.000000   0.000000  -0.001646
     4  C   -0.000090   0.000054  -0.000077   0.000007   0.000002   0.001560
     5  C   -0.000021   0.000015   0.000082  -0.000009   0.000002  -0.000132
     6  C   -0.001676   0.004168   0.004290  -0.001357  -0.000029  -0.059993
     7  C   -0.015630   0.004727   0.003870  -0.003153   0.000507  -0.009592
     8  O   -0.031098  -0.033273  -0.003685   0.003071   0.004774   0.012690
     9  C    0.438483   0.403744  -0.041904  -0.033746  -0.040191  -0.000274
    10  C   -0.059625  -0.036901   0.418168   0.397611   0.402726  -0.000102
    11  O    0.008543   0.001122   0.005063   0.000449   0.000247   0.000229
    12  C    0.000574  -0.000539  -0.000117   0.000106  -0.000010   0.431877
    13  N    0.000009  -0.000000   0.000003   0.000004   0.000000  -0.025482
    14  H   -0.000000   0.000000   0.000000  -0.000000  -0.000000  -0.000118
    15  H   -0.000000   0.000000   0.000000  -0.000000   0.000000   0.000018
    16  H    0.000063   0.000001  -0.000005   0.000000   0.000000   0.000019
    17  H   -0.000002  -0.000000  -0.000000  -0.000000  -0.000000   0.000007
    18  H   -0.000013  -0.000000   0.000051   0.000001  -0.000001   0.000014
    19  H    0.532331  -0.029124  -0.005108   0.007474   0.001550   0.000255
    20  H   -0.029124   0.550381   0.005179  -0.005734  -0.002844  -0.000294
    21  H   -0.005108   0.005179   0.493439  -0.025475  -0.022311  -0.000003
    22  H    0.007474  -0.005734  -0.025475   0.538161  -0.020170   0.000167
    23  H    0.001550  -0.002844  -0.022311  -0.020170   0.535815   0.000001
    24  H    0.000255  -0.000294  -0.000003   0.000167   0.000001   0.475276
 Mulliken charges:
               1
     1  N   -0.501271
     2  C    0.410926
     3  N   -0.297739
     4  C    0.164754
     5  C   -0.455163
     6  C   -0.078552
     7  C    0.379087
     8  O   -0.290062
     9  C   -0.097950
    10  C   -0.432469
    11  O   -0.380899
    12  C   -0.061567
    13  N   -0.287213
    14  H    0.266469
    15  H    0.266011
    16  H    0.167563
    17  H    0.147760
    18  H    0.166925
    19  H    0.153111
    20  H    0.139320
    21  H    0.168538
    22  H    0.142595
    23  H    0.139931
    24  H    0.169896
 Sum of Mulliken charges =  -0.00000
 Mulliken charges with hydrogens summed into heavy atoms:
               1
     1  N    0.031209
     2  C    0.410926
     3  N   -0.297739
     4  C    0.164754
     5  C    0.027086
     6  C   -0.078552
     7  C    0.379087
     8  O   -0.290062
     9  C    0.194481
    10  C    0.018594
    11  O   -0.380899
    12  C    0.108329
    13  N   -0.287213
 Electronic spatial extent (au):  <R**2>=           2924.9355
 Charge=              0.0000 electrons
 Dipole moment (field-independent basis, Debye):
    X=             -0.7594    Y=             -1.2305    Z=             -0.0784  Tot=              1.4480
 Quadrupole moment (field-independent basis, Debye-Ang):
   XX=            -57.2359   YY=            -78.7325   ZZ=            -77.3745
   XY=             -2.4214   XZ=              0.0104   YZ=              0.5094
 Traceless Quadrupole moment (field-independent basis, Debye-Ang):
   XX=             13.8784   YY=             -7.6182   ZZ=             -6.2602
   XY=             -2.4214   XZ=              0.0104   YZ=              0.5094
 Octapole moment (field-independent basis, Debye-Ang**2):
  XXX=            -49.8026  YYY=              0.8514  ZZZ=             -3.0023  XYY=             -3.6401
  XXY=            -33.6401  XXZ=             -2.9315  XZZ=              8.5975  YZZ=              1.7632
  YYZ=             -0.2031  XYZ=              1.6435
 Hexadecapole moment (field-independent basis, Debye-Ang**3):
 XXXX=          -2252.0277 YYYY=           -768.6300 ZZZZ=           -163.7991 XXXY=             70.4718
 XXXZ=            -26.7832 YYYX=             -6.7933 YYYZ=              2.6824 ZZZX=             -6.4349
 ZZZY=             -0.4317 XXYY=           -602.3887 XXZZ=           -534.5725 YYZZ=           -154.5898
 XXYZ=              6.0033 YYXZ=             -2.0464 ZZXY=              0.2749
 N-N= 7.890889890714D+02 E-N=-3.039522454884D+03  KE= 6.230053887916D+02
 Unable to Open any file for archive entry.
 1\1\GINC-COMPUTE-0-29\SP\RM062X\def2TZVP\C8H11N3O2\ZTAN64\16-Aug-2024\
 0\\# M062X/def2tzvp int=(grid=ultrafine) nmr=giao guess=read geom=chec
 k\\pyrmd1.xyz\\0,1\N,0,-3.9614604847,2.0826971398,0.0314078587\C,0,-2.
 7939246433,1.3991874808,0.0349227595\N,0,-2.8108963455,0.1741243002,-0
 .5277665272\C,0,-1.6651432527,-0.5092873961,-0.5512159839\C,0,-1.72837
 78804,-1.8681136057,-1.1866575557\C,0,-0.4822553289,0.0440375211,0.000
 3060706\C,0,0.8068413447,-0.6721155362,-0.0041830472\O,0,1.7876182131,
 0.0570452736,0.5882168165\C,0,3.1004454311,-0.5451166305,0.6147201199\
 C,0,3.8348638608,-0.323249661,-0.6972942156\O,0,1.0006370844,-1.781414
 2887,-0.470965251\C,0,-0.6002492442,1.3254494482,0.5601661363\N,0,-1.7
 307581793,2.0192601078,0.5921025793\H,0,-4.0121266704,2.9612972858,0.5
 184058081\H,0,-4.7940997013,1.6220763799,-0.2943244545\H,0,-1.41742524
 78,-2.6426979121,-0.4811648136\H,0,-2.7485051216,-2.0508413593,-1.5253
 871147\H,0,-1.0314169931,-1.9372350577,-2.025672859\H,0,2.9957444893,-
 1.6105258051,0.8314574001\H,0,3.6068183181,-0.0521081295,1.4474783726\
 H,0,3.3209425831,-0.8384885411,-1.5115236701\H,0,3.8946361747,0.743323
 1996,-0.9320587664\H,0,4.8532526129,-0.7187711706,-0.6263933476\H,0,0.
 2724389809,1.7984669569,1.0001236851\\Version=ES64L-G16RevC.01\State=1
 -A\HF=-626.2035796\RMSD=2.030e-09\Dipole=-0.159021,0.4978311,0.2267935
 \Quadrupole=9.8199646,-5.2860585,-4.5339061,-3.2166672,0.7400626,-0.35
 91455\PG=C01 [X(C8H11N3O2)]\\@
 The archive entry for this job was punched.


 IN NATURE THERE ARE NEITHER REWARDS OR
 PUNISHMENTS -- THERE ARE CONSEQUENCES.

                            -- ROBERT GREEN INGERSOLL
 Job cpu time:       0 days  0 hours 45 minutes 57.0 seconds.
 Elapsed time:       0 days  0 hours  3 minutes  4.3 seconds.
 File lengths (MBytes):  RWF=    126 Int=      0 D2E=      0 Chk=     21 Scr=      1
 Normal termination of Gaussian 16 at Fri Aug 16 14:10:30 2024.
 
 
-----Kestrel cluster job statistics-----
Time info:

real	17m48.436s
user	276m9.862s
sys	0m42.616s
 
Disk space usage:
21M	/scratch/363660.kestrel.chem.wisc.edu
