 Entering Gaussian System, Link 0=/share/apps/gaussian/g16/g16
 Initial command:
 /share/apps/gaussian/g16/l1.exe "/scratch/362968.kestrel.chem.wisc.edu/Gau-83910.inp" -scrdir="/scratch/362968.kestrel.chem.wisc.edu/"
 Entering Link 1 = /share/apps/gaussian/g16/l1.exe PID=     83911.
  
 Copyright (c) 1988-2019, Gaussian, Inc.  All Rights Reserved.
  
 This is part of the Gaussian(R) 16 program.  It is based on
 the Gaussian(R) 09 system (copyright 2009, Gaussian, Inc.),
 the Gaussian(R) 03 system (copyright 2003, Gaussian, Inc.),
 the Gaussian(R) 98 system (copyright 1998, Gaussian, Inc.),
 the Gaussian(R) 94 system (copyright 1995, Gaussian, Inc.),
 the Gaussian 92(TM) system (copyright 1992, Gaussian, Inc.),
 the Gaussian 90(TM) system (copyright 1990, Gaussian, Inc.),
 the Gaussian 88(TM) system (copyright 1988, Gaussian, Inc.),
 the Gaussian 86(TM) system (copyright 1986, Carnegie Mellon
 University), and the Gaussian 82(TM) system (copyright 1983,
 Carnegie Mellon University). Gaussian is a federally registered
 trademark of Gaussian, Inc.
  
 This software contains proprietary and confidential information,
 including trade secrets, belonging to Gaussian, Inc.
  
 This software is provided under written license and may be
 used, copied, transmitted, or stored only in accord with that
 written license.
  
 The following legend is applicable only to US Government
 contracts under FAR:
  
                    RESTRICTED RIGHTS LEGEND
  
 Use, reproduction and disclosure by the US Government is
 subject to restrictions as set forth in subparagraphs (a)
 and (c) of the Commercial Computer Software - Restricted
 Rights clause in FAR 52.227-19.
  
 Gaussian, Inc.
 340 Quinnipiac St., Bldg. 40, Wallingford CT 06492
  
  
 ---------------------------------------------------------------
 Warning -- This program may not be used in any manner that
 competes with the business of Gaussian, Inc. or will provide
 assistance to any competitor of Gaussian, Inc.  The licensee
 of this program is prohibited from giving any competitor of
 Gaussian, Inc. access to this program.  By using this program,
 the user acknowledges that Gaussian, Inc. is engaged in the
 business of creating and licensing software in the field of
 computational chemistry and represents and warrants to the
 licensee that it is not a competitor of Gaussian, Inc. and that
 it will not use this program in any manner prohibited above.
 ---------------------------------------------------------------
  

 Cite this work as:
 Gaussian 16, Revision C.01,
 M. J. Frisch, G. W. Trucks, H. B. Schlegel, G. E. Scuseria, 
 M. A. Robb, J. R. Cheeseman, G. Scalmani, V. Barone, 
 G. A. Petersson, H. Nakatsuji, X. Li, M. Caricato, A. V. Marenich, 
 J. Bloino, B. G. Janesko, R. Gomperts, B. Mennucci, H. P. Hratchian, 
 J. V. Ortiz, A. F. Izmaylov, J. L. Sonnenberg, D. Williams-Young, 
 F. Ding, F. Lipparini, F. Egidi, J. Goings, B. Peng, A. Petrone, 
 T. Henderson, D. Ranasinghe, V. G. Zakrzewski, J. Gao, N. Rega, 
 G. Zheng, W. Liang, M. Hada, M. Ehara, K. Toyota, R. Fukuda, 
 J. Hasegawa, M. Ishida, T. Nakajima, Y. Honda, O. Kitao, H. Nakai, 
 T. Vreven, K. Throssell, J. A. Montgomery, Jr., J. E. Peralta, 
 F. Ogliaro, M. J. Bearpark, J. J. Heyd, E. N. Brothers, K. N. Kudin, 
 V. N. Staroverov, T. A. Keith, R. Kobayashi, J. Normand, 
 K. Raghavachari, A. P. Rendell, J. C. Burant, S. S. Iyengar, 
 J. Tomasi, M. Cossi, J. M. Millam, M. Klene, C. Adamo, R. Cammi, 
 J. W. Ochterski, R. L. Martin, K. Morokuma, O. Farkas, 
 J. B. Foresman, and D. J. Fox, Gaussian, Inc., Wallingford CT, 2019.
 
 ******************************************
 Gaussian 16:  ES64L-G16RevC.01  3-Jul-2019
                14-Aug-2024 
 ******************************************
 %nprocs=16
 Will use up to   16 processors via shared memory.
 %mem=16GB
 %chk=pyrd4_conf-5.chk
 ----------------------------------------------------------------------
 # B3LYP/6-31G(d,p) symmetry=loose empiricaldispersion=GD3BJ int=(grid=
 ultrafine) opt freq=noraman
 ----------------------------------------------------------------------
 1/18=20,19=15,26=4,38=1/1,3;
 2/9=110,12=2,17=4,18=3,40=1/2;
 3/5=1,6=6,7=101,11=2,25=1,30=1,71=1,74=-5,75=-5,124=41/1,2,3;
 4//1;
 5/5=2,38=5/2;
 6/7=2,8=2,9=2,10=2,28=1/1;
 7//1,2,3,16;
 1/18=20,19=15,26=4/3(2);
 2/9=110/2;
 99//99;
 2/9=110/2;
 3/5=1,6=6,7=101,11=2,25=1,30=1,71=1,74=-5,75=-5,124=41/1,2,3;
 4/5=5,16=3,69=1/1;
 5/5=2,38=5/2;
 7//1,2,3,16;
 1/18=20,19=15,26=4/3(-5);
 2/9=110/2;
 6/7=2,8=2,9=2,10=2,19=2,28=1/1;
 99/9=1/99;
 ---------
 pyrd4.xyz
 ---------
 Symbolic Z-matrix:
 Charge =  0 Multiplicity = 1
 O                     1.0281    1.4358    5.9315 
 C                     1.1557    1.1301    4.7463 
 N                     2.3326    1.0432    4.0961 
 C                     3.6271    1.2264    4.5968 
 N                     3.8992    1.1014    5.9245 
 C                     5.1779    1.2665    6.3407 
 C                     6.2261    1.547     5.4637 
 C                     5.9505    1.6637    4.0983 
 C                     7.082     1.9689    3.1227 
 C                     7.1415    1.3758    1.7306 
 C                     6.896     2.8595    1.9122 
 C                     4.6301    1.4967    3.661 
 C                    -0.0653    0.8762    3.8892 
 C                    -0.0299   -0.0099    2.7992 
 C                    -1.1703   -0.223     2.0286 
 C                    -2.3626    0.4357    2.3331 
 B                    -3.6565    0.1902    1.4545 
 O                    -3.705    -0.6506    0.3652 
 C                    -5.0686   -0.8128    0.0203 
 C                    -5.1283   -1.0005   -1.5091 
 C                    -5.5308   -2.1031    0.7426 
 C                    -5.6916    0.5274    0.5576 
 C                    -5.5327    1.7588   -0.3689 
 C                    -7.1425    0.4212    1.0691 
 O                    -4.8742    0.7902    1.6832 
 C                    -2.4067    1.3062    3.4232 
 C                    -1.27      1.5219    4.1975 
 H                     2.2579    0.9286    3.104 
 H                     5.3466    1.1687    7.4036 
 H                     7.2302    1.671     5.8405 
 H                     8.0486    2.0684    3.621 
 H                     6.3278    0.7288    1.4001 
 H                     8.1079    1.0355    1.3556 
 H                     7.6889    3.5675    1.6661 
 H                     5.9067    3.274     1.7134 
 H                     4.3957    1.5847    2.6121 
 H                     0.8667   -0.5586    2.5475 
 H                    -1.136    -0.9093    1.1939 
 H                    -4.6289   -0.191    -2.0416 
 H                    -6.1598   -1.0423   -1.858 
 H                    -4.6359   -1.9243   -1.8146 
 H                    -6.5677   -2.3398    0.5053 
 H                    -5.4521   -2.0114    1.8267 
 H                    -4.9249   -2.9619    0.4514 
 H                    -6.1618    1.6718   -1.2543 
 H                    -4.5026    1.8831   -0.705 
 H                    -5.814     2.6804    0.1421 
 H                    -7.8203    0.1303    0.2669 
 H                    -7.4916    1.3728    1.4714 
 H                    -7.2421   -0.3101    1.8713 
 H                    -3.3284    1.8133    3.6721 
 H                    -1.3284    2.1956    5.0431 
 

 GradGradGradGradGradGradGradGradGradGradGradGradGradGradGradGradGradGrad
 Berny optimization.
 Initialization pass.
                           ----------------------------
                           !    Initial Parameters    !
                           ! (Angstroms and Degrees)  !
 --------------------------                            --------------------------
 ! Name  Definition              Value          Derivative Info.                !
 --------------------------------------------------------------------------------
 ! R1    R(1,2)                  1.2306         estimate D2E/DX2                !
 ! R2    R(2,3)                  1.3474         estimate D2E/DX2                !
 ! R3    R(2,13)                 1.5133         estimate D2E/DX2                !
 ! R4    R(3,4)                  1.4            estimate D2E/DX2                !
 ! R5    R(3,28)                 1.0015         estimate D2E/DX2                !
 ! R6    R(4,5)                  1.361          estimate D2E/DX2                !
 ! R7    R(4,12)                 1.3981         estimate D2E/DX2                !
 ! R8    R(5,6)                  1.3548         estimate D2E/DX2                !
 ! R9    R(6,7)                  1.3952         estimate D2E/DX2                !
 ! R10   R(6,29)                 1.0806         estimate D2E/DX2                !
 ! R11   R(7,8)                  1.3978         estimate D2E/DX2                !
 ! R12   R(7,30)                 1.0796         estimate D2E/DX2                !
 ! R13   R(8,9)                  1.5249         estimate D2E/DX2                !
 ! R14   R(8,12)                 1.4009         estimate D2E/DX2                !
 ! R15   R(9,10)                 1.5143         estimate D2E/DX2                !
 ! R16   R(9,11)                 1.5143         estimate D2E/DX2                !
 ! R17   R(9,31)                 1.092          estimate D2E/DX2                !
 ! R18   R(10,11)                1.5148         estimate D2E/DX2                !
 ! R19   R(10,32)                1.0908         estimate D2E/DX2                !
 ! R20   R(10,33)                1.091          estimate D2E/DX2                !
 ! R21   R(11,34)                1.0911         estimate D2E/DX2                !
 ! R22   R(11,35)                1.0909         estimate D2E/DX2                !
 ! R23   R(12,36)                1.0784         estimate D2E/DX2                !
 ! R24   R(13,14)                1.4052         estimate D2E/DX2                !
 ! R25   R(13,27)                1.4012         estimate D2E/DX2                !
 ! R26   R(14,15)                1.3927         estimate D2E/DX2                !
 ! R27   R(14,37)                1.0809         estimate D2E/DX2                !
 ! R28   R(15,16)                1.3958         estimate D2E/DX2                !
 ! R29   R(15,38)                1.0812         estimate D2E/DX2                !
 ! R30   R(16,17)                1.5832         estimate D2E/DX2                !
 ! R31   R(16,26)                1.3957         estimate D2E/DX2                !
 ! R32   R(17,18)                1.3769         estimate D2E/DX2                !
 ! R33   R(17,25)                1.3766         estimate D2E/DX2                !
 ! R34   R(18,19)                1.4159         estimate D2E/DX2                !
 ! R35   R(19,20)                1.542          estimate D2E/DX2                !
 ! R36   R(19,21)                1.5493         estimate D2E/DX2                !
 ! R37   R(19,22)                1.5726         estimate D2E/DX2                !
 ! R38   R(20,39)                1.0901         estimate D2E/DX2                !
 ! R39   R(20,40)                1.0897         estimate D2E/DX2                !
 ! R40   R(20,41)                1.0905         estimate D2E/DX2                !
 ! R41   R(21,42)                1.0897         estimate D2E/DX2                !
 ! R42   R(21,43)                1.0908         estimate D2E/DX2                !
 ! R43   R(21,44)                1.0906         estimate D2E/DX2                !
 ! R44   R(22,23)                1.5492         estimate D2E/DX2                !
 ! R45   R(22,24)                1.5421         estimate D2E/DX2                !
 ! R46   R(22,25)                1.4157         estimate D2E/DX2                !
 ! R47   R(23,45)                1.0896         estimate D2E/DX2                !
 ! R48   R(23,46)                1.0907         estimate D2E/DX2                !
 ! R49   R(23,47)                1.0907         estimate D2E/DX2                !
 ! R50   R(24,48)                1.0898         estimate D2E/DX2                !
 ! R51   R(24,49)                1.0905         estimate D2E/DX2                !
 ! R52   R(24,50)                1.0901         estimate D2E/DX2                !
 ! R53   R(26,27)                1.3922         estimate D2E/DX2                !
 ! R54   R(26,51)                1.081          estimate D2E/DX2                !
 ! R55   R(27,52)                1.0827         estimate D2E/DX2                !
 ! A1    A(1,2,3)              124.8443         estimate D2E/DX2                !
 ! A2    A(1,2,13)             120.2323         estimate D2E/DX2                !
 ! A3    A(3,2,13)             114.875          estimate D2E/DX2                !
 ! A4    A(2,3,4)              128.802          estimate D2E/DX2                !
 ! A5    A(2,3,28)             114.852          estimate D2E/DX2                !
 ! A6    A(4,3,28)             115.9912         estimate D2E/DX2                !
 ! A7    A(3,4,5)              121.4475         estimate D2E/DX2                !
 ! A8    A(3,4,12)             116.6952         estimate D2E/DX2                !
 ! A9    A(5,4,12)             121.8202         estimate D2E/DX2                !
 ! A10   A(4,5,6)              118.5005         estimate D2E/DX2                !
 ! A11   A(5,6,7)              122.7165         estimate D2E/DX2                !
 ! A12   A(5,6,29)             116.0061         estimate D2E/DX2                !
 ! A13   A(7,6,29)             121.2774         estimate D2E/DX2                !
 ! A14   A(6,7,8)              118.8599         estimate D2E/DX2                !
 ! A15   A(6,7,30)             120.1625         estimate D2E/DX2                !
 ! A16   A(8,7,30)             120.9776         estimate D2E/DX2                !
 ! A17   A(7,8,9)              119.6936         estimate D2E/DX2                !
 ! A18   A(7,8,12)             118.7372         estimate D2E/DX2                !
 ! A19   A(9,8,12)             121.5691         estimate D2E/DX2                !
 ! A20   A(8,9,10)             122.6094         estimate D2E/DX2                !
 ! A21   A(8,9,11)             122.5482         estimate D2E/DX2                !
 ! A22   A(8,9,31)             112.5257         estimate D2E/DX2                !
 ! A23   A(10,9,31)            114.8586         estimate D2E/DX2                !
 ! A24   A(11,9,31)            114.8283         estimate D2E/DX2                !
 ! A25   A(9,10,32)            118.7838         estimate D2E/DX2                !
 ! A26   A(9,10,33)            118.2243         estimate D2E/DX2                !
 ! A27   A(11,10,32)           119.7602         estimate D2E/DX2                !
 ! A28   A(11,10,33)           119.3578         estimate D2E/DX2                !
 ! A29   A(32,10,33)           111.8137         estimate D2E/DX2                !
 ! A30   A(9,11,34)            118.2077         estimate D2E/DX2                !
 ! A31   A(9,11,35)            118.7204         estimate D2E/DX2                !
 ! A32   A(10,11,34)           119.3896         estimate D2E/DX2                !
 ! A33   A(10,11,35)           119.8209         estimate D2E/DX2                !
 ! A34   A(34,11,35)           111.7996         estimate D2E/DX2                !
 ! A35   A(4,12,8)             119.3581         estimate D2E/DX2                !
 ! A36   A(4,12,36)            120.7218         estimate D2E/DX2                !
 ! A37   A(8,12,36)            119.9184         estimate D2E/DX2                !
 ! A38   A(2,13,14)            121.657          estimate D2E/DX2                !
 ! A39   A(2,13,27)            119.4582         estimate D2E/DX2                !
 ! A40   A(14,13,27)           118.8773         estimate D2E/DX2                !
 ! A41   A(13,14,15)           120.3346         estimate D2E/DX2                !
 ! A42   A(13,14,37)           121.4427         estimate D2E/DX2                !
 ! A43   A(15,14,37)           118.2093         estimate D2E/DX2                !
 ! A44   A(14,15,16)           120.4332         estimate D2E/DX2                !
 ! A45   A(14,15,38)           119.8886         estimate D2E/DX2                !
 ! A46   A(16,15,38)           119.6761         estimate D2E/DX2                !
 ! A47   A(15,16,17)           120.2581         estimate D2E/DX2                !
 ! A48   A(15,16,26)           119.4534         estimate D2E/DX2                !
 ! A49   A(17,16,26)           120.2875         estimate D2E/DX2                !
 ! A50   A(16,17,18)           124.2307         estimate D2E/DX2                !
 ! A51   A(16,17,25)           124.2742         estimate D2E/DX2                !
 ! A52   A(18,17,25)           111.495          estimate D2E/DX2                !
 ! A53   A(17,18,19)           107.2531         estimate D2E/DX2                !
 ! A54   A(18,19,20)           107.0276         estimate D2E/DX2                !
 ! A55   A(18,19,21)           105.6145         estimate D2E/DX2                !
 ! A56   A(18,19,22)           101.5769         estimate D2E/DX2                !
 ! A57   A(20,19,21)           110.4553         estimate D2E/DX2                !
 ! A58   A(20,19,22)           115.2945         estimate D2E/DX2                !
 ! A59   A(21,19,22)           115.6136         estimate D2E/DX2                !
 ! A60   A(19,20,39)           112.1091         estimate D2E/DX2                !
 ! A61   A(19,20,40)           111.0308         estimate D2E/DX2                !
 ! A62   A(19,20,41)           111.3144         estimate D2E/DX2                !
 ! A63   A(39,20,40)           107.8028         estimate D2E/DX2                !
 ! A64   A(39,20,41)           106.5813         estimate D2E/DX2                !
 ! A65   A(40,20,41)           107.7716         estimate D2E/DX2                !
 ! A66   A(19,21,42)           111.3            estimate D2E/DX2                !
 ! A67   A(19,21,43)           111.8275         estimate D2E/DX2                !
 ! A68   A(19,21,44)           111.4442         estimate D2E/DX2                !
 ! A69   A(42,21,43)           107.6578         estimate D2E/DX2                !
 ! A70   A(42,21,44)           107.424          estimate D2E/DX2                !
 ! A71   A(43,21,44)           106.9463         estimate D2E/DX2                !
 ! A72   A(19,22,23)           115.6227         estimate D2E/DX2                !
 ! A73   A(19,22,24)           115.3015         estimate D2E/DX2                !
 ! A74   A(19,22,25)           101.6025         estimate D2E/DX2                !
 ! A75   A(23,22,24)           110.4638         estimate D2E/DX2                !
 ! A76   A(23,22,25)           105.5887         estimate D2E/DX2                !
 ! A77   A(24,22,25)           106.9959         estimate D2E/DX2                !
 ! A78   A(22,23,45)           111.3018         estimate D2E/DX2                !
 ! A79   A(22,23,46)           111.8244         estimate D2E/DX2                !
 ! A80   A(22,23,47)           111.407          estimate D2E/DX2                !
 ! A81   A(45,23,46)           107.6978         estimate D2E/DX2                !
 ! A82   A(45,23,47)           107.4133         estimate D2E/DX2                !
 ! A83   A(46,23,47)           106.958          estimate D2E/DX2                !
 ! A84   A(22,24,48)           111.0641         estimate D2E/DX2                !
 ! A85   A(22,24,49)           111.3128         estimate D2E/DX2                !
 ! A86   A(22,24,50)           112.1028         estimate D2E/DX2                !
 ! A87   A(48,24,49)           107.7815         estimate D2E/DX2                !
 ! A88   A(48,24,50)           107.8073         estimate D2E/DX2                !
 ! A89   A(49,24,50)           106.5395         estimate D2E/DX2                !
 ! A90   A(17,25,22)           107.3214         estimate D2E/DX2                !
 ! A91   A(16,26,27)           120.3465         estimate D2E/DX2                !
 ! A92   A(16,26,51)           119.9559         estimate D2E/DX2                !
 ! A93   A(27,26,51)           119.697          estimate D2E/DX2                !
 ! A94   A(13,27,26)           120.5459         estimate D2E/DX2                !
 ! A95   A(13,27,52)           120.3281         estimate D2E/DX2                !
 ! A96   A(26,27,52)           119.126          estimate D2E/DX2                !
 ! D1    D(1,2,3,4)              2.2476         estimate D2E/DX2                !
 ! D2    D(1,2,3,28)          -170.5638         estimate D2E/DX2                !
 ! D3    D(13,2,3,4)           179.7102         estimate D2E/DX2                !
 ! D4    D(13,2,3,28)            6.8988         estimate D2E/DX2                !
 ! D5    D(1,2,13,14)         -150.8153         estimate D2E/DX2                !
 ! D6    D(1,2,13,27)           28.1747         estimate D2E/DX2                !
 ! D7    D(3,2,13,14)           31.5949         estimate D2E/DX2                !
 ! D8    D(3,2,13,27)         -149.415          estimate D2E/DX2                !
 ! D9    D(2,3,4,5)             21.8423         estimate D2E/DX2                !
 ! D10   D(2,3,4,12)          -160.333          estimate D2E/DX2                !
 ! D11   D(28,3,4,5)          -165.415          estimate D2E/DX2                !
 ! D12   D(28,3,4,12)           12.4098         estimate D2E/DX2                !
 ! D13   D(3,4,5,6)            178.7656         estimate D2E/DX2                !
 ! D14   D(12,4,5,6)             1.0528         estimate D2E/DX2                !
 ! D15   D(3,4,12,8)          -178.7591         estimate D2E/DX2                !
 ! D16   D(3,4,12,36)            1.7118         estimate D2E/DX2                !
 ! D17   D(5,4,12,8)            -0.9431         estimate D2E/DX2                !
 ! D18   D(5,4,12,36)          179.5278         estimate D2E/DX2                !
 ! D19   D(4,5,6,7)             -0.5852         estimate D2E/DX2                !
 ! D20   D(4,5,6,29)           179.384          estimate D2E/DX2                !
 ! D21   D(5,6,7,8)              0.0123         estimate D2E/DX2                !
 ! D22   D(5,6,7,30)           179.9813         estimate D2E/DX2                !
 ! D23   D(29,6,7,8)          -179.9553         estimate D2E/DX2                !
 ! D24   D(29,6,7,30)            0.0137         estimate D2E/DX2                !
 ! D25   D(6,7,8,9)           -179.9559         estimate D2E/DX2                !
 ! D26   D(6,7,8,12)             0.1063         estimate D2E/DX2                !
 ! D27   D(30,7,8,9)             0.0753         estimate D2E/DX2                !
 ! D28   D(30,7,8,12)         -179.8624         estimate D2E/DX2                !
 ! D29   D(7,8,9,10)           143.8081         estimate D2E/DX2                !
 ! D30   D(7,8,9,11)          -143.3728         estimate D2E/DX2                !
 ! D31   D(7,8,9,31)             0.14           estimate D2E/DX2                !
 ! D32   D(12,8,9,10)          -36.2559         estimate D2E/DX2                !
 ! D33   D(12,8,9,11)           36.5631         estimate D2E/DX2                !
 ! D34   D(12,8,9,31)         -179.9241         estimate D2E/DX2                !
 ! D35   D(7,8,12,4)             0.3401         estimate D2E/DX2                !
 ! D36   D(7,8,12,36)          179.873          estimate D2E/DX2                !
 ! D37   D(9,8,12,4)          -179.5964         estimate D2E/DX2                !
 ! D38   D(9,8,12,36)           -0.0635         estimate D2E/DX2                !
 ! D39   D(8,9,10,32)            1.9343         estimate D2E/DX2                !
 ! D40   D(8,9,10,33)         -138.9674         estimate D2E/DX2                !
 ! D41   D(31,9,10,32)         144.8389         estimate D2E/DX2                !
 ! D42   D(31,9,10,33)           3.9372         estimate D2E/DX2                !
 ! D43   D(8,9,11,34)          138.8218         estimate D2E/DX2                !
 ! D44   D(8,9,11,35)           -1.9312         estimate D2E/DX2                !
 ! D45   D(31,9,11,34)          -3.9338         estimate D2E/DX2                !
 ! D46   D(31,9,11,35)        -144.6868         estimate D2E/DX2                !
 ! D47   D(32,10,11,34)       -144.3973         estimate D2E/DX2                !
 ! D48   D(32,10,11,35)          0.1017         estimate D2E/DX2                !
 ! D49   D(33,10,11,34)         -0.0325         estimate D2E/DX2                !
 ! D50   D(33,10,11,35)        144.4665         estimate D2E/DX2                !
 ! D51   D(2,13,14,15)        -179.9978         estimate D2E/DX2                !
 ! D52   D(2,13,14,37)           1.3565         estimate D2E/DX2                !
 ! D53   D(27,13,14,15)          1.0064         estimate D2E/DX2                !
 ! D54   D(27,13,14,37)       -177.6393         estimate D2E/DX2                !
 ! D55   D(2,13,27,26)         179.9153         estimate D2E/DX2                !
 ! D56   D(2,13,27,52)          -0.1273         estimate D2E/DX2                !
 ! D57   D(14,13,27,26)         -1.0664         estimate D2E/DX2                !
 ! D58   D(14,13,27,52)        178.8909         estimate D2E/DX2                !
 ! D59   D(13,14,15,16)         -0.294          estimate D2E/DX2                !
 ! D60   D(13,14,15,38)       -179.7613         estimate D2E/DX2                !
 ! D61   D(37,14,15,16)        178.3948         estimate D2E/DX2                !
 ! D62   D(37,14,15,38)         -1.0725         estimate D2E/DX2                !
 ! D63   D(14,15,16,17)       -179.9898         estimate D2E/DX2                !
 ! D64   D(14,15,16,26)         -0.3733         estimate D2E/DX2                !
 ! D65   D(38,15,16,17)         -0.5214         estimate D2E/DX2                !
 ! D66   D(38,15,16,26)        179.0952         estimate D2E/DX2                !
 ! D67   D(15,16,17,18)         -0.2836         estimate D2E/DX2                !
 ! D68   D(15,16,17,25)        179.7195         estimate D2E/DX2                !
 ! D69   D(26,16,17,18)       -179.8969         estimate D2E/DX2                !
 ! D70   D(26,16,17,25)          0.1062         estimate D2E/DX2                !
 ! D71   D(15,16,26,27)          0.3151         estimate D2E/DX2                !
 ! D72   D(15,16,26,51)       -179.411          estimate D2E/DX2                !
 ! D73   D(17,16,26,27)        179.9315         estimate D2E/DX2                !
 ! D74   D(17,16,26,51)          0.2055         estimate D2E/DX2                !
 ! D75   D(16,17,18,19)        168.3222         estimate D2E/DX2                !
 ! D76   D(25,17,18,19)        -11.6806         estimate D2E/DX2                !
 ! D77   D(16,17,25,22)        168.9525         estimate D2E/DX2                !
 ! D78   D(18,17,25,22)        -11.0447         estimate D2E/DX2                !
 ! D79   D(17,18,19,20)        147.893          estimate D2E/DX2                !
 ! D80   D(17,18,19,21)        -94.3906         estimate D2E/DX2                !
 ! D81   D(17,18,19,22)         26.6361         estimate D2E/DX2                !
 ! D82   D(18,19,20,39)        -54.2537         estimate D2E/DX2                !
 ! D83   D(18,19,20,40)       -174.901          estimate D2E/DX2                !
 ! D84   D(18,19,20,41)         65.0308         estimate D2E/DX2                !
 ! D85   D(21,19,20,39)       -168.7529         estimate D2E/DX2                !
 ! D86   D(21,19,20,40)         70.5998         estimate D2E/DX2                !
 ! D87   D(21,19,20,41)        -49.4684         estimate D2E/DX2                !
 ! D88   D(22,19,20,39)         57.8863         estimate D2E/DX2                !
 ! D89   D(22,19,20,40)        -62.761          estimate D2E/DX2                !
 ! D90   D(22,19,20,41)        177.1708         estimate D2E/DX2                !
 ! D91   D(18,19,21,42)       -177.6575         estimate D2E/DX2                !
 ! D92   D(18,19,21,43)         61.8866         estimate D2E/DX2                !
 ! D93   D(18,19,21,44)        -57.7607         estimate D2E/DX2                !
 ! D94   D(20,19,21,42)        -62.2687         estimate D2E/DX2                !
 ! D95   D(20,19,21,43)        177.2755         estimate D2E/DX2                !
 ! D96   D(20,19,21,44)         57.6281         estimate D2E/DX2                !
 ! D97   D(22,19,21,42)         70.9309         estimate D2E/DX2                !
 ! D98   D(22,19,21,43)        -49.525          estimate D2E/DX2                !
 ! D99   D(22,19,21,44)       -169.1723         estimate D2E/DX2                !
 ! D100  D(18,19,22,23)         81.4751         estimate D2E/DX2                !
 ! D101  D(18,19,22,24)       -147.5587         estimate D2E/DX2                !
 ! D102  D(18,19,22,25)        -32.2736         estimate D2E/DX2                !
 ! D103  D(20,19,22,23)        -33.8288         estimate D2E/DX2                !
 ! D104  D(20,19,22,24)         97.1374         estimate D2E/DX2                !
 ! D105  D(20,19,22,25)       -147.5775         estimate D2E/DX2                !
 ! D106  D(21,19,22,23)       -164.7652         estimate D2E/DX2                !
 ! D107  D(21,19,22,24)        -33.799          estimate D2E/DX2                !
 ! D108  D(21,19,22,25)         81.4861         estimate D2E/DX2                !
 ! D109  D(19,22,23,45)         70.9602         estimate D2E/DX2                !
 ! D110  D(19,22,23,46)        -49.5458         estimate D2E/DX2                !
 ! D111  D(19,22,23,47)       -169.1805         estimate D2E/DX2                !
 ! D112  D(24,22,23,45)        -62.267          estimate D2E/DX2                !
 ! D113  D(24,22,23,46)        177.227          estimate D2E/DX2                !
 ! D114  D(24,22,23,47)         57.5923         estimate D2E/DX2                !
 ! D115  D(25,22,23,45)       -177.6087         estimate D2E/DX2                !
 ! D116  D(25,22,23,46)         61.8852         estimate D2E/DX2                !
 ! D117  D(25,22,23,47)        -57.7495         estimate D2E/DX2                !
 ! D118  D(19,22,24,48)        -62.756          estimate D2E/DX2                !
 ! D119  D(19,22,24,49)        177.142          estimate D2E/DX2                !
 ! D120  D(19,22,24,50)         57.9161         estimate D2E/DX2                !
 ! D121  D(23,22,24,48)         70.6334         estimate D2E/DX2                !
 ! D122  D(23,22,24,49)        -49.4686         estimate D2E/DX2                !
 ! D123  D(23,22,24,50)       -168.6945         estimate D2E/DX2                !
 ! D124  D(25,22,24,48)       -174.9109         estimate D2E/DX2                !
 ! D125  D(25,22,24,49)         64.9871         estimate D2E/DX2                !
 ! D126  D(25,22,24,50)        -54.2389         estimate D2E/DX2                !
 ! D127  D(19,22,25,17)         26.2752         estimate D2E/DX2                !
 ! D128  D(23,22,25,17)        -94.7627         estimate D2E/DX2                !
 ! D129  D(24,22,25,17)        147.5388         estimate D2E/DX2                !
 ! D130  D(16,26,27,13)          0.4129         estimate D2E/DX2                !
 ! D131  D(16,26,27,52)       -179.5449         estimate D2E/DX2                !
 ! D132  D(51,26,27,13)       -179.8603         estimate D2E/DX2                !
 ! D133  D(51,26,27,52)          0.1818         estimate D2E/DX2                !
 --------------------------------------------------------------------------------
 Trust Radius=3.00D-01 FncErr=1.00D-07 GrdErr=1.00D-06 EigMax=2.50D+02 EigMin=1.00D-04
 Number of steps in this run=    294 maximum allowed number of steps=    312.
 GradGradGradGradGradGradGradGradGradGradGradGradGradGradGradGradGradGrad

 Stoichiometry    C21H25BN2O3
 Framework group  C1[X(C21H25BN2O3)]
 Deg. of freedom   150
 Full point group                 C1      NOp   1
 Largest Abelian subgroup         C1      NOp   1
 Largest concise Abelian subgroup C1      NOp   1
                         Standard orientation:                         
 ---------------------------------------------------------------------
 Center     Atomic      Atomic             Coordinates (Angstroms)
 Number     Number       Type             X           Y           Z
 ---------------------------------------------------------------------
      1          8           0        2.177545   -2.796420    0.185853
      2          6           0        1.882070   -1.617668   -0.008239
      3          7           0        2.770685   -0.618067   -0.171231
      4          6           0        4.168818   -0.683469   -0.201882
      5          7           0        4.819181   -1.842110   -0.496890
      6          6           0        6.173440   -1.831737   -0.534668
      7          6           0        6.925684   -0.681294   -0.295622
      8          6           0        6.259044    0.512315   -0.004452
      9          6           0        7.062421    1.781341    0.258975
     10          6           0        6.595486    3.150529   -0.188848
     11          6           0        6.644132    2.811744    1.286778
     12          6           0        4.858797    0.508506    0.038779
     13          6           0        0.431229   -1.187710   -0.019328
     14          6           0       -0.008085   -0.094273   -0.784786
     15          6           0       -1.350225    0.277618   -0.774532
     16          6           0       -2.275320   -0.434340   -0.009351
     17          5           0       -3.800004   -0.008133   -0.000938
     18          8           0       -4.311034    1.054843   -0.711433
     19          6           0       -5.722299    0.949519   -0.667761
     20          6           0       -6.283101    2.385836   -0.686525
     21          6           0       -6.124279    0.194413   -1.959445
     22          6           0       -5.938513    0.161285    0.675703
     23          6           0       -5.893587    1.014723    1.967842
     24          6           0       -7.156393   -0.784425    0.696282
     25          8           0       -4.781354   -0.653229    0.717324
     26          6           0       -1.846475   -1.529758    0.741772
     27          6           0       -0.506264   -1.906493    0.734154
     28          1           0        2.374220    0.301602   -0.171910
     29          1           0        6.648333   -2.775309   -0.762550
     30          1           0        8.003848   -0.720018   -0.336058
     31          1           0        8.139592    1.617195    0.186334
     32          1           0        5.632009    3.238052   -0.692829
     33          1           0        7.334375    3.837197   -0.604647
     34          1           0        7.417535    3.258472    1.913518
     35          1           0        5.716050    2.655220    1.838330
     36          1           0        4.325152    1.418203    0.263621
     37          1           0        0.672499    0.465733   -1.410497
     38          1           0       -1.681057    1.117732   -1.369230
     39          1           0       -5.859133    3.002195    0.106318
     40          1           0       -7.365957    2.384483   -0.564493
     41          1           0       -6.054769    2.888255   -1.627074
     42          1           0       -7.206636    0.097461   -2.040712
     43          1           0       -5.698821   -0.809498   -1.991432
     44          1           0       -5.775251    0.716155   -2.851305
     45          1           0       -6.772853    1.652809    2.051549
     46          1           0       -5.013164    1.657704    1.998678
     47          1           0       -5.860128    0.386567    2.858851
     48          1           0       -8.085987   -0.228574    0.576094
     49          1           0       -7.215931   -1.333605    1.636556
     50          1           0       -7.109454   -1.530937   -0.096662
     51          1           0       -2.557719   -2.092766    1.329808
     52          1           0       -0.196537   -2.763945    1.318250
 ---------------------------------------------------------------------
 Rotational constants (GHZ):           0.4667174           0.0557308           0.0523053
 Standard basis: 6-31G(d,p) (6D, 7F)
 There are   530 symmetry adapted cartesian basis functions of A   symmetry.
 There are   530 symmetry adapted basis functions of A   symmetry.
   530 basis functions,   931 primitive gaussians,   530 cartesian basis functions
    97 alpha electrons       97 beta electrons
       nuclear repulsion energy      2229.3292063043 Hartrees.
 NAtoms=   52 NActive=   52 NUniq=   52 SFac= 1.00D+00 NAtFMM=   60 NAOKFM=F Big=F
 Integral buffers will be    131072 words long.
 Raffenetti 2 integral format.
 Two-electron integral symmetry is turned on.
 Nuclear repulsion after empirical dispersion term =     2229.2231209419 Hartrees.
 One-electron integrals computed using PRISM.
 NBasis=   530 RedAO= T EigKep=  4.38D-04  NBF=   530
 NBsUse=   530 1.00D-06 EigRej= -1.00D+00 NBFU=   530
 ExpMin= 1.27D-01 ExpMax= 5.48D+03 ExpMxC= 8.25D+02 IAcc=3 IRadAn=         5 AccDes= 0.00D+00
 Harris functional with IExCor=  402 and IRadAn=       5 diagonalized for initial guess.
 HarFok:  IExCor=  402 AccDes= 0.00D+00 IRadAn=         5 IDoV= 1 UseB2=F ITyADJ=14
 ICtDFT=  3500011 ScaDFX=  1.000000  1.000000  1.000000  1.000000
 FoFCou: FMM=F IPFlag=           0 FMFlag=      100000 FMFlg1=           0
         NFxFlg=           0 DoJE=T BraDBF=F KetDBF=T FulRan=T
         wScrn=  0.000000 ICntrl=       500 IOpCl=  0 I1Cent=   200000004 NGrid=           0
         NMat0=    1 NMatS0=      1 NMatT0=    0 NMatD0=    1 NMtDS0=    0 NMtDT0=    0
 Petite list used in FoFCou.
 Requested convergence on RMS density matrix=1.00D-08 within 128 cycles.
 Requested convergence on MAX density matrix=1.00D-06.
 Requested convergence on             energy=1.00D-06.
 No special actions if energy rises.
 Integral accuracy reduced to 1.0D-05 until final iterations.
 Initial convergence to 1.0D-05 achieved.  Increase integral accuracy.
 SCF Done:  E(RB3LYP) =  -1175.56442264     A.U. after   15 cycles
            NFock= 15  Conv=0.58D-08     -V/T= 2.0096

 **********************************************************************

            Population analysis using the SCF Density.

 **********************************************************************

 Orbital symmetries:
       Occupied  (A) (A) (A) (A) (A) (A) (A) (A) (A) (A) (A) (A)
                 (A) (A) (A) (A) (A) (A) (A) (A) (A) (A) (A) (A)
                 (A) (A) (A) (A) (A) (A) (A) (A) (A) (A) (A) (A)
                 (A) (A) (A) (A) (A) (A) (A) (A) (A) (A) (A) (A)
                 (A) (A) (A) (A) (A) (A) (A) (A) (A) (A) (A) (A)
                 (A) (A) (A) (A) (A) (A) (A) (A) (A) (A) (A) (A)
                 (A) (A) (A) (A) (A) (A) (A) (A) (A) (A) (A) (A)
                 (A) (A) (A) (A) (A) (A) (A) (A) (A) (A) (A) (A)
                 (A)
       Virtual   (A) (A) (A) (A) (A) (A) (A) (A) (A) (A) (A) (A)
                 (A) (A) (A) (A) (A) (A) (A) (A) (A) (A) (A) (A)
                 (A) (A) (A) (A) (A) (A) (A) (A) (A) (A) (A) (A)
                 (A) (A) (A) (A) (A) (A) (A) (A) (A) (A) (A) (A)
                 (A) (A) (A) (A) (A) (A) (A) (A) (A) (A) (A) (A)
                 (A) (A) (A) (A) (A) (A) (A) (A) (A) (A) (A) (A)
                 (A) (A) (A) (A) (A) (A) (A) (A) (A) (A) (A) (A)
                 (A) (A) (A) (A) (A) (A) (A) (A) (A) (A) (A) (A)
                 (A) (A) (A) (A) (A) (A) (A) (A) (A) (A) (A) (A)
                 (A) (A) (A) (A) (A) (A) (A) (A) (A) (A) (A) (A)
                 (A) (A) (A) (A) (A) (A) (A) (A) (A) (A) (A) (A)
                 (A) (A) (A) (A) (A) (A) (A) (A) (A) (A) (A) (A)
                 (A) (A) (A) (A) (A) (A) (A) (A) (A) (A) (A) (A)
                 (A) (A) (A) (A) (A) (A) (A) (A) (A) (A) (A) (A)
                 (A) (A) (A) (A) (A) (A) (A) (A) (A) (A) (A) (A)
                 (A) (A) (A) (A) (A) (A) (A) (A) (A) (A) (A) (A)
                 (A) (A) (A) (A) (A) (A) (A) (A) (A) (A) (A) (A)
                 (A) (A) (A) (A) (A) (A) (A) (A) (A) (A) (A) (A)
                 (A) (A) (A) (A) (A) (A) (A) (A) (A) (A) (A) (A)
                 (A) (A) (A) (A) (A) (A) (A) (A) (A) (A) (A) (A)
                 (A) (A) (A) (A) (A) (A) (A) (A) (A) (A) (A) (A)
                 (A) (A) (A) (A) (A) (A) (A) (A) (A) (A) (A) (A)
                 (A) (A) (A) (A) (A) (A) (A) (A) (A) (A) (A) (A)
                 (A) (A) (A) (A) (A) (A) (A) (A) (A) (A) (A) (A)
                 (A) (A) (A) (A) (A) (A) (A) (A) (A) (A) (A) (A)
                 (A) (A) (A) (A) (A) (A) (A) (A) (A) (A) (A) (A)
                 (A) (A) (A) (A) (A) (A) (A) (A) (A) (A) (A) (A)
                 (A) (A) (A) (A) (A) (A) (A) (A) (A) (A) (A) (A)
                 (A) (A) (A) (A) (A) (A) (A) (A) (A) (A) (A) (A)
                 (A) (A) (A) (A) (A) (A) (A) (A) (A) (A) (A) (A)
                 (A) (A) (A) (A) (A) (A) (A) (A) (A) (A) (A) (A)
                 (A) (A) (A) (A) (A) (A) (A) (A) (A) (A) (A) (A)
                 (A) (A) (A) (A) (A) (A) (A) (A) (A) (A) (A) (A)
                 (A) (A) (A) (A) (A) (A) (A) (A) (A) (A) (A) (A)
                 (A) (A) (A) (A) (A) (A) (A) (A) (A) (A) (A) (A)
                 (A) (A) (A) (A) (A) (A) (A) (A) (A) (A) (A) (A)
                 (A)
 The electronic state is 1-A.
 Alpha  occ. eigenvalues --  -19.15116 -19.15092 -19.10394 -14.37592 -14.32197
 Alpha  occ. eigenvalues --  -10.28462 -10.26802 -10.25441 -10.25416 -10.22191
 Alpha  occ. eigenvalues --  -10.21836 -10.21180 -10.20344 -10.20298 -10.20254
 Alpha  occ. eigenvalues --  -10.19766 -10.19716 -10.19249 -10.19004 -10.18999
 Alpha  occ. eigenvalues --  -10.18943 -10.18196 -10.18152 -10.18126 -10.18118
 Alpha  occ. eigenvalues --  -10.17663  -6.77900  -1.07454  -1.02774  -1.00264
 Alpha  occ. eigenvalues --   -0.95860  -0.90976  -0.86991  -0.85545  -0.79992
 Alpha  occ. eigenvalues --   -0.79654  -0.77163  -0.75095  -0.74653  -0.74442
 Alpha  occ. eigenvalues --   -0.70826  -0.68594  -0.66731  -0.65173  -0.62853
 Alpha  occ. eigenvalues --   -0.61432  -0.61225  -0.60754  -0.59539  -0.56241
 Alpha  occ. eigenvalues --   -0.56009  -0.54859  -0.54609  -0.51893  -0.49855
 Alpha  occ. eigenvalues --   -0.49609  -0.48050  -0.47437  -0.46565  -0.45651
 Alpha  occ. eigenvalues --   -0.45592  -0.45250  -0.44696  -0.44055  -0.43649
 Alpha  occ. eigenvalues --   -0.43585  -0.42296  -0.41935  -0.40670  -0.40216
 Alpha  occ. eigenvalues --   -0.40083  -0.40022  -0.38966  -0.38565  -0.37962
 Alpha  occ. eigenvalues --   -0.37860  -0.37769  -0.37361  -0.36899  -0.36514
 Alpha  occ. eigenvalues --   -0.36317  -0.35931  -0.34527  -0.33462  -0.33178
 Alpha  occ. eigenvalues --   -0.32706  -0.32531  -0.31063  -0.30647  -0.29926
 Alpha  occ. eigenvalues --   -0.27119  -0.26444  -0.25772  -0.25459  -0.24896
 Alpha  occ. eigenvalues --   -0.22924  -0.22554
 Alpha virt. eigenvalues --   -0.04668  -0.02091  -0.00581  -0.00427   0.04983
 Alpha virt. eigenvalues --    0.07282   0.07642   0.08212   0.09698   0.09788
 Alpha virt. eigenvalues --    0.10792   0.12170   0.12452   0.12634   0.12927
 Alpha virt. eigenvalues --    0.13298   0.13392   0.13999   0.14432   0.15003
 Alpha virt. eigenvalues --    0.15429   0.15469   0.15661   0.15742   0.16957
 Alpha virt. eigenvalues --    0.17271   0.17682   0.18187   0.18603   0.18993
 Alpha virt. eigenvalues --    0.19432   0.19460   0.19802   0.20897   0.21666
 Alpha virt. eigenvalues --    0.21803   0.22016   0.22185   0.22768   0.22905
 Alpha virt. eigenvalues --    0.24059   0.24465   0.25689   0.26135   0.27032
 Alpha virt. eigenvalues --    0.28673   0.28801   0.29782   0.30963   0.31127
 Alpha virt. eigenvalues --    0.32312   0.33319   0.34156   0.34648   0.35087
 Alpha virt. eigenvalues --    0.37636   0.38725   0.39737   0.43736   0.44039
 Alpha virt. eigenvalues --    0.45855   0.46253   0.47410   0.47957   0.48179
 Alpha virt. eigenvalues --    0.49736   0.50943   0.51216   0.52585   0.52861
 Alpha virt. eigenvalues --    0.53597   0.54144   0.54887   0.55245   0.55712
 Alpha virt. eigenvalues --    0.55980   0.56402   0.57033   0.57089   0.57962
 Alpha virt. eigenvalues --    0.58224   0.58445   0.58839   0.59316   0.59490
 Alpha virt. eigenvalues --    0.59560   0.59749   0.60121   0.61127   0.61269
 Alpha virt. eigenvalues --    0.61542   0.62041   0.63259   0.63597   0.64021
 Alpha virt. eigenvalues --    0.64233   0.64995   0.65801   0.66309   0.67075
 Alpha virt. eigenvalues --    0.67283   0.68782   0.69475   0.70351   0.70852
 Alpha virt. eigenvalues --    0.71812   0.72444   0.73005   0.73778   0.74458
 Alpha virt. eigenvalues --    0.75128   0.75886   0.76614   0.78463   0.78903
 Alpha virt. eigenvalues --    0.80039   0.80201   0.80714   0.80940   0.81555
 Alpha virt. eigenvalues --    0.82213   0.82537   0.82980   0.83250   0.83752
 Alpha virt. eigenvalues --    0.84735   0.85173   0.85256   0.85408   0.87149
 Alpha virt. eigenvalues --    0.87537   0.87725   0.88072   0.88147   0.88540
 Alpha virt. eigenvalues --    0.88784   0.89161   0.89336   0.90595   0.91264
 Alpha virt. eigenvalues --    0.92045   0.92691   0.92987   0.93522   0.94318
 Alpha virt. eigenvalues --    0.94614   0.95283   0.95845   0.96039   0.97521
 Alpha virt. eigenvalues --    0.97963   0.98773   0.99292   1.00139   1.01912
 Alpha virt. eigenvalues --    1.02352   1.03272   1.03695   1.05393   1.06709
 Alpha virt. eigenvalues --    1.08386   1.10440   1.10652   1.11437   1.14055
 Alpha virt. eigenvalues --    1.14595   1.16435   1.16558   1.17264   1.18277
 Alpha virt. eigenvalues --    1.19327   1.20096   1.20538   1.21265   1.22010
 Alpha virt. eigenvalues --    1.24736   1.25683   1.26675   1.27941   1.28861
 Alpha virt. eigenvalues --    1.29560   1.31285   1.32183   1.33476   1.34604
 Alpha virt. eigenvalues --    1.35000   1.35513   1.37246   1.37712   1.39815
 Alpha virt. eigenvalues --    1.40177   1.40642   1.40704   1.41251   1.43857
 Alpha virt. eigenvalues --    1.44031   1.44365   1.44963   1.45597   1.47152
 Alpha virt. eigenvalues --    1.48145   1.49421   1.50075   1.52165   1.53328
 Alpha virt. eigenvalues --    1.56511   1.56612   1.58225   1.58406   1.60619
 Alpha virt. eigenvalues --    1.60738   1.65141   1.65540   1.66761   1.68555
 Alpha virt. eigenvalues --    1.69058   1.69311   1.70956   1.71911   1.72605
 Alpha virt. eigenvalues --    1.73516   1.75039   1.75642   1.76632   1.76958
 Alpha virt. eigenvalues --    1.77413   1.78774   1.79469   1.80528   1.81729
 Alpha virt. eigenvalues --    1.82595   1.83834   1.84999   1.85386   1.85906
 Alpha virt. eigenvalues --    1.86096   1.87346   1.88597   1.89295   1.89772
 Alpha virt. eigenvalues --    1.91293   1.91602   1.92790   1.92848   1.93727
 Alpha virt. eigenvalues --    1.94324   1.95088   1.95573   1.96235   1.96724
 Alpha virt. eigenvalues --    1.97967   1.99906   2.01049   2.01511   2.02908
 Alpha virt. eigenvalues --    2.03650   2.03869   2.04665   2.05610   2.05679
 Alpha virt. eigenvalues --    2.05995   2.07007   2.07731   2.08204   2.09069
 Alpha virt. eigenvalues --    2.09345   2.09442   2.09987   2.11239   2.11331
 Alpha virt. eigenvalues --    2.11419   2.12609   2.13655   2.14373   2.14752
 Alpha virt. eigenvalues --    2.15076   2.15431   2.16421   2.17761   2.18679
 Alpha virt. eigenvalues --    2.19055   2.20673   2.21454   2.22161   2.23295
 Alpha virt. eigenvalues --    2.23953   2.24491   2.25317   2.25611   2.26388
 Alpha virt. eigenvalues --    2.28311   2.29012   2.29054   2.29829   2.30891
 Alpha virt. eigenvalues --    2.31095   2.31567   2.32249   2.34078   2.35936
 Alpha virt. eigenvalues --    2.36386   2.36970   2.37500   2.37612   2.38762
 Alpha virt. eigenvalues --    2.40727   2.41202   2.41302   2.41827   2.42645
 Alpha virt. eigenvalues --    2.43615   2.45316   2.45606   2.46845   2.47420
 Alpha virt. eigenvalues --    2.48413   2.49324   2.50292   2.50423   2.51294
 Alpha virt. eigenvalues --    2.51906   2.52634   2.54625   2.56333   2.57342
 Alpha virt. eigenvalues --    2.58367   2.58839   2.59248   2.60001   2.61258
 Alpha virt. eigenvalues --    2.62147   2.63222   2.63995   2.65016   2.66061
 Alpha virt. eigenvalues --    2.66609   2.67461   2.67848   2.68172   2.69356
 Alpha virt. eigenvalues --    2.70986   2.72221   2.74284   2.74672   2.75124
 Alpha virt. eigenvalues --    2.75327   2.75793   2.76928   2.77343   2.77820
 Alpha virt. eigenvalues --    2.79174   2.79838   2.80190   2.83456   2.83744
 Alpha virt. eigenvalues --    2.84369   2.85606   2.86443   2.86901   2.87953
 Alpha virt. eigenvalues --    2.88240   2.90473   2.90594   2.91331   2.93282
 Alpha virt. eigenvalues --    2.95525   2.97482   2.98070   2.99947   3.01325
 Alpha virt. eigenvalues --    3.02432   3.03155   3.06551   3.08574   3.09910
 Alpha virt. eigenvalues --    3.15536   3.16753   3.19256   3.19336   3.21256
 Alpha virt. eigenvalues --    3.21679   3.22588   3.23655   3.25152   3.26119
 Alpha virt. eigenvalues --    3.26609   3.29801   3.33205   3.34732   3.37113
 Alpha virt. eigenvalues --    3.38093   3.42541   3.42624   3.44658   3.44741
 Alpha virt. eigenvalues --    3.47244   3.47338   3.48394   3.49441   3.50280
 Alpha virt. eigenvalues --    3.51289   3.52217   3.57353   3.57910   3.71846
 Alpha virt. eigenvalues --    3.77263   3.83551   4.08308   4.10742   4.15222
 Alpha virt. eigenvalues --    4.15624   4.16271   4.18275   4.20720   4.26452
 Alpha virt. eigenvalues --    4.30793   4.31192   4.32202   4.36364   4.38783
 Alpha virt. eigenvalues --    4.43204   4.44456   4.48069   4.49808   4.53442
 Alpha virt. eigenvalues --    4.54747   4.56011   4.60862   4.65550   4.67914
 Alpha virt. eigenvalues --    4.78291   4.84139   4.85848
          Condensed to atoms (all electrons):
 Mulliken charges:
               1
     1  O   -0.482727
     2  C    0.553884
     3  N   -0.600332
     4  C    0.512001
     5  N   -0.469632
     6  C    0.098241
     7  C   -0.157693
     8  C    0.212419
     9  C   -0.156383
    10  C   -0.215958
    11  C   -0.215942
    12  C   -0.203267
    13  C    0.021008
    14  C   -0.125681
    15  C   -0.137585
    16  C    0.025976
    17  B    0.480748
    18  O   -0.474030
    19  C    0.246731
    20  C   -0.325825
    21  C   -0.319446
    22  C    0.246884
    23  C   -0.319031
    24  C   -0.325917
    25  O   -0.471884
    26  C   -0.137351
    27  C   -0.090585
    28  H    0.264557
    29  H    0.105887
    30  H    0.084641
    31  H    0.100508
    32  H    0.114389
    33  H    0.118719
    34  H    0.118883
    35  H    0.117548
    36  H    0.076483
    37  H    0.083748
    38  H    0.099042
    39  H    0.114582
    40  H    0.102244
    41  H    0.113391
    42  H    0.102258
    43  H    0.115277
    44  H    0.117229
    45  H    0.101906
    46  H    0.112700
    47  H    0.118199
    48  H    0.101578
    49  H    0.114483
    50  H    0.116230
    51  H    0.103265
    52  H    0.113631
 Sum of Mulliken charges =  -0.00000
 Mulliken charges with hydrogens summed into heavy atoms:
               1
     1  O   -0.482727
     2  C    0.553884
     3  N   -0.335776
     4  C    0.512001
     5  N   -0.469632
     6  C    0.204127
     7  C   -0.073052
     8  C    0.212419
     9  C   -0.055875
    10  C    0.017150
    11  C    0.020489
    12  C   -0.126784
    13  C    0.021008
    14  C   -0.041933
    15  C   -0.038543
    16  C    0.025976
    17  B    0.480748
    18  O   -0.474030
    19  C    0.246731
    20  C    0.004391
    21  C    0.015318
    22  C    0.246884
    23  C    0.013774
    24  C    0.006375
    25  O   -0.471884
    26  C   -0.034086
    27  C    0.023047
 Electronic spatial extent (au):  <R**2>=          19861.6753
 Charge=              0.0000 electrons
 Dipole moment (field-independent basis, Debye):
    X=             -1.4318    Y=              5.7791    Z=              0.2190  Tot=              5.9579
 Quadrupole moment (field-independent basis, Debye-Ang):
   XX=           -112.3937   YY=           -166.1008   ZZ=           -156.5692
   XY=             14.4511   XZ=              0.4884   YZ=             -0.5521
 Traceless Quadrupole moment (field-independent basis, Debye-Ang):
   XX=             32.6276   YY=            -21.0795   ZZ=            -11.5480
   XY=             14.4511   XZ=              0.4884   YZ=             -0.5521
 Octapole moment (field-independent basis, Debye-Ang**2):
  XXX=             31.8577  YYY=             33.6658  ZZZ=              3.8366  XYY=            -19.3604
  XXY=             83.7230  XXZ=              2.5776  XZZ=            -26.4258  YZZ=              0.6778
  YYZ=              2.7337  XYZ=              5.3607
 Hexadecapole moment (field-independent basis, Debye-Ang**3):
 XXXX=         -20325.6373 YYYY=          -2498.6757 ZZZZ=           -859.0204 XXXY=            109.5470
 XXXZ=             17.7858 YYYX=             82.8972 YYYZ=            -25.7110 ZZZX=             14.0186
 ZZZY=            -14.4497 XXYY=          -4190.8885 XXZZ=          -4098.0669 YYZZ=           -523.8969
 XXYZ=             69.0493 YYXZ=            -14.5202 ZZXY=              2.7104
 N-N= 2.229223120942D+03 E-N=-7.190531118489D+03  KE= 1.164433688655D+03
 Calling FoFJK, ICntrl=      2127 FMM=F ISym2X=0 I1Cent= 0 IOpClX= 0 NMat=1 NMatS=1 NMatT=0.
 ***** Axes restored to original set *****
 -------------------------------------------------------------------
 Center     Atomic                   Forces (Hartrees/Bohr)
 Number     Number              X              Y              Z
 -------------------------------------------------------------------
      1        8           0.002224221   -0.002752395   -0.013072874
      2        6          -0.036413017    0.009538592    0.033291781
      3        7           0.019129277   -0.004386544   -0.002780010
      4        6           0.020608359   -0.001420203    0.020399731
      5        7          -0.001903342    0.000893964   -0.010016069
      6        6          -0.018277916    0.000885795   -0.024353764
      7        6          -0.005378646   -0.000893171    0.003203835
      8        6           0.011226645    0.003221078   -0.018331476
      9        6          -0.006586253   -0.002944470    0.015340216
     10        6          -0.001092475    0.001578659   -0.003545802
     11        6          -0.000714688   -0.000723667   -0.003765385
     12        6           0.010031484    0.001292486    0.006231959
     13        6           0.005198217   -0.003578320   -0.004577434
     14        6          -0.004699686    0.003075777   -0.001172360
     15        6           0.004670283    0.000695747    0.003838330
     16        6          -0.022987183   -0.004787802   -0.016284321
     17        5           0.008590740    0.001730106    0.005739841
     18        8           0.026483902    0.004986521    0.011682006
     19        6          -0.007592184   -0.010354383   -0.020363119
     20        6          -0.004316650    0.002776973    0.004021918
     21        6          -0.008944407    0.007405272   -0.001328014
     22        6          -0.023696315    0.004335188   -0.000653129
     23        6          -0.002482405   -0.009511479   -0.006105679
     24        6           0.002820845   -0.003045365   -0.004941717
     25        8           0.021166281    0.003817612    0.020351225
     26        6           0.008059219    0.000336359    0.004040938
     27        6          -0.001976496    0.000999390    0.002106249
     28        1           0.003307417    0.000566256   -0.007149022
     29        1          -0.000210008   -0.000881511    0.004057327
     30        1           0.003980487    0.000571031    0.000445497
     31        1          -0.003590030   -0.000539772   -0.000791282
     32        1          -0.000654107    0.004410523    0.002717682
     33        1          -0.001696645    0.003534981    0.002541790
     34        1          -0.000380348   -0.004478059    0.001530045
     35        1           0.000915934   -0.004998422    0.001538289
     36        1          -0.002131954    0.000820691   -0.005398673
     37        1           0.004525367   -0.001497290    0.001344905
     38        1          -0.000374230   -0.002064325   -0.002298528
     39        1           0.000552425    0.002999979    0.002408892
     40        1          -0.003733652   -0.000590073   -0.000398610
     41        1           0.000694218   -0.002714346    0.003261375
     42        1          -0.003357486   -0.000331565   -0.000893783
     43        1           0.000376746    0.003183079    0.001788138
     44        1           0.003742127    0.002708050   -0.003837502
     45        1          -0.002049543   -0.000720334   -0.002843217
     46        1           0.002684699   -0.002598577    0.000126134
     47        1          -0.001448797   -0.002308375    0.005314454
     48        1          -0.001754958   -0.000475001   -0.003338569
     49        1           0.002504768    0.003303025   -0.001161285
     50        1           0.003173649   -0.002269255    0.000054400
     51        1          -0.002691727    0.001437139   -0.000102222
     52        1           0.004467838   -0.000239568    0.002126888
 -------------------------------------------------------------------
 Cartesian Forces:  Max     0.036413017 RMS     0.008352885

 GradGradGradGradGradGradGradGradGradGradGradGradGradGradGradGradGradGrad
 Berny optimization.
 FormGI is forming the generalized inverse of G from B-inverse, IUseBI=4.
 Internal  Forces:  Max     0.032191497 RMS     0.004959003
 Search for a local minimum.
 Step number   1 out of a maximum of  294
 All quantities printed in internal units (Hartrees-Bohrs-Radians)
 Mixed Optimization -- RFO/linear search
 Second derivative matrix not updated -- first step.
 ITU=  0
     Eigenvalues ---    0.00230   0.00230   0.00230   0.00230   0.00230
     Eigenvalues ---    0.00437   0.00591   0.00823   0.01310   0.01422
     Eigenvalues ---    0.01520   0.01541   0.01632   0.01692   0.01861
     Eigenvalues ---    0.01986   0.02062   0.02063   0.02094   0.02101
     Eigenvalues ---    0.02102   0.02129   0.02135   0.02140   0.02151
     Eigenvalues ---    0.02154   0.02167   0.02171   0.02191   0.02223
     Eigenvalues ---    0.02252   0.02342   0.02388   0.02988   0.02989
     Eigenvalues ---    0.03433   0.03483   0.03723   0.03808   0.05300
     Eigenvalues ---    0.05301   0.05310   0.05310   0.05360   0.05365
     Eigenvalues ---    0.05381   0.05384   0.05758   0.06308   0.07709
     Eigenvalues ---    0.09997   0.10271   0.10895   0.11660   0.12781
     Eigenvalues ---    0.14683   0.15629   0.15950   0.15996   0.15999
     Eigenvalues ---    0.15999   0.16000   0.16000   0.16000   0.16000
     Eigenvalues ---    0.16000   0.16000   0.16000   0.16000   0.16000
     Eigenvalues ---    0.16000   0.16000   0.16000   0.16000   0.16000
     Eigenvalues ---    0.16000   0.16000   0.16000   0.17376   0.17862
     Eigenvalues ---    0.21364   0.21999   0.22021   0.22315   0.22969
     Eigenvalues ---    0.23489   0.23999   0.24546   0.24982   0.24987
     Eigenvalues ---    0.24996   0.24999   0.25000   0.25000   0.25000
     Eigenvalues ---    0.25014   0.25047   0.26302   0.27194   0.27714
     Eigenvalues ---    0.27720   0.28335   0.28340   0.29902   0.30905
     Eigenvalues ---    0.31026   0.34580   0.34685   0.34693   0.34710
     Eigenvalues ---    0.34715   0.34719   0.34733   0.34738   0.34741
     Eigenvalues ---    0.34751   0.34755   0.34805   0.34805   0.34841
     Eigenvalues ---    0.34844   0.34846   0.34857   0.35666   0.35854
     Eigenvalues ---    0.35870   0.35887   0.35917   0.36041   0.36192
     Eigenvalues ---    0.39798   0.40961   0.41776   0.42066   0.42143
     Eigenvalues ---    0.43567   0.45034   0.45410   0.45621   0.45810
     Eigenvalues ---    0.45867   0.46223   0.46467   0.46895   0.47428
     Eigenvalues ---    0.48790   0.51382   0.52978   0.55585   0.90827
 RFO step:  Lambda=-2.24637449D-02 EMin= 2.30000000D-03
 Linear search not attempted -- first point.
 Iteration  1 RMS(Cart)=  0.05855135 RMS(Int)=  0.00069358
 Iteration  2 RMS(Cart)=  0.00149736 RMS(Int)=  0.00025828
 Iteration  3 RMS(Cart)=  0.00000082 RMS(Int)=  0.00025828
 Variable       Old X    -DE/DX   Delta X   Delta X   Delta X     New X
                                 (Linear)    (Quad)   (Total)
    R1        2.32554  -0.01350   0.00000  -0.01451  -0.01451   2.31103
    R2        2.54616   0.03219   0.00000   0.05566   0.05566   2.60182
    R3        2.85963  -0.00440   0.00000  -0.01322  -0.01322   2.84641
    R4        2.64561   0.00095   0.00000   0.00198   0.00198   2.64759
    R5        1.89254   0.00677   0.00000   0.01363   0.01363   1.90617
    R6        2.57201  -0.02719   0.00000  -0.05091  -0.05092   2.52109
    R7        2.64210   0.00390   0.00000   0.00827   0.00829   2.65039
    R8        2.56025  -0.01914   0.00000  -0.03564  -0.03566   2.52459
    R9        2.63651  -0.00172   0.00000  -0.00383  -0.00384   2.63267
   R10        2.04211   0.00404   0.00000   0.01058   0.01058   2.05269
   R11        2.64149  -0.00322   0.00000  -0.00501  -0.00501   2.63648
   R12        2.04018   0.00392   0.00000   0.01025   0.01025   2.05043
   R13        2.88159  -0.02103   0.00000  -0.06542  -0.06542   2.81617
   R14        2.64735  -0.00819   0.00000  -0.01525  -0.01523   2.63212
   R15        2.86170  -0.00171   0.00000  -0.00221  -0.00214   2.85957
   R16        2.86159  -0.00166   0.00000  -0.00201  -0.00194   2.85966
   R17        2.06363  -0.00359   0.00000  -0.00974  -0.00974   2.05389
   R18        2.86255  -0.00749   0.00000  -0.02856  -0.02871   2.83385
   R19        2.06140  -0.00295   0.00000  -0.00799  -0.00799   2.05342
   R20        2.06176  -0.00348   0.00000  -0.00942  -0.00942   2.05234
   R21        2.06190  -0.00353   0.00000  -0.00955  -0.00955   2.05235
   R22        2.06149  -0.00301   0.00000  -0.00815  -0.00815   2.05334
   R23        2.03782   0.00578   0.00000   0.01504   0.01504   2.05286
   R24        2.65540  -0.00145   0.00000  -0.00372  -0.00372   2.65168
   R25        2.64783  -0.00364   0.00000  -0.00834  -0.00835   2.63948
   R26        2.63191   0.00100   0.00000   0.00210   0.00211   2.63402
   R27        2.04258   0.00420   0.00000   0.01102   0.01102   2.05360
   R28        2.63763   0.00531   0.00000   0.01161   0.01162   2.64925
   R29        2.04310   0.00307   0.00000   0.00807   0.00807   2.05116
   R30        2.99173  -0.01625   0.00000  -0.05963  -0.05963   2.93211
   R31        2.63753   0.00712   0.00000   0.01529   0.01529   2.65282
   R32        2.60198  -0.00100   0.00000  -0.00379  -0.00338   2.59859
   R33        2.60144  -0.00137   0.00000  -0.00450  -0.00409   2.59736
   R34        2.67559   0.02570   0.00000   0.05853   0.05847   2.73407
   R35        2.91402  -0.00925   0.00000  -0.03026  -0.03026   2.88376
   R36        2.92769  -0.01035   0.00000  -0.03454  -0.03454   2.89315
   R37        2.97171  -0.00566   0.00000  -0.01940  -0.02002   2.95170
   R38        2.05993   0.00130   0.00000   0.00352   0.00352   2.06345
   R39        2.05926   0.00368   0.00000   0.00993   0.00993   2.06919
   R40        2.06075   0.00170   0.00000   0.00459   0.00459   2.06534
   R41        2.05928   0.00346   0.00000   0.00933   0.00933   2.06861
   R42        2.06134   0.00207   0.00000   0.00560   0.00560   2.06694
   R43        2.06097   0.00097   0.00000   0.00263   0.00263   2.06360
   R44        2.92755  -0.01027   0.00000  -0.03428  -0.03428   2.89327
   R45        2.91412  -0.00929   0.00000  -0.03037  -0.03037   2.88374
   R46        2.67527   0.02572   0.00000   0.05848   0.05843   2.73369
   R47        2.05908   0.00355   0.00000   0.00957   0.00957   2.06865
   R48        2.06103   0.00220   0.00000   0.00595   0.00595   2.06698
   R49        2.06110   0.00091   0.00000   0.00247   0.00247   2.06357
   R50        2.05933   0.00368   0.00000   0.00991   0.00991   2.06925
   R51        2.06081   0.00165   0.00000   0.00447   0.00447   2.06527
   R52        2.05993   0.00127   0.00000   0.00343   0.00343   2.06336
   R53        2.63083   0.00032   0.00000   0.00059   0.00058   2.63141
   R54        2.04286   0.00295   0.00000   0.00773   0.00773   2.05058
   R55        2.04608   0.00127   0.00000   0.00335   0.00335   2.04943
    A1        2.17894   0.00130   0.00000   0.00498   0.00493   2.18387
    A2        2.09845   0.00331   0.00000   0.01236   0.01230   2.11075
    A3        2.00495  -0.00458   0.00000  -0.01660  -0.01666   1.98829
    A4        2.24802   0.00090   0.00000   0.00362   0.00362   2.25164
    A5        2.00454   0.00315   0.00000   0.01778   0.01778   2.02232
    A6        2.02443  -0.00406   0.00000  -0.02185  -0.02185   2.00258
    A7        2.11966  -0.01466   0.00000  -0.05245  -0.05247   2.06719
    A8        2.03672   0.00506   0.00000   0.01995   0.01993   2.05665
    A9        2.12616   0.00961   0.00000   0.03277   0.03278   2.15894
   A10        2.06822  -0.00770   0.00000  -0.03785  -0.03788   2.03035
   A11        2.14181   0.00943   0.00000   0.03468   0.03463   2.17644
   A12        2.02469  -0.00566   0.00000  -0.02250  -0.02250   2.00219
   A13        2.11669  -0.00377   0.00000  -0.01217  -0.01216   2.10453
   A14        2.07450  -0.00197   0.00000  -0.00515  -0.00516   2.06934
   A15        2.09723   0.00199   0.00000   0.00810   0.00810   2.10533
   A16        2.11146  -0.00002   0.00000  -0.00295  -0.00294   2.10852
   A17        2.08905   0.00418   0.00000   0.01207   0.01206   2.10111
   A18        2.07236  -0.00753   0.00000  -0.02113  -0.02111   2.05124
   A19        2.12178   0.00336   0.00000   0.00905   0.00904   2.13082
   A20        2.13994  -0.00159   0.00000  -0.01403  -0.01419   2.12575
   A21        2.13887  -0.00157   0.00000  -0.01388  -0.01404   2.12483
   A22        1.96394   0.00020   0.00000   0.00759   0.00768   1.97163
   A23        2.00466   0.00223   0.00000   0.01146   0.01147   2.01613
   A24        2.00413   0.00224   0.00000   0.01173   0.01175   2.01588
   A25        2.07317  -0.00178   0.00000  -0.01080  -0.01083   2.06234
   A26        2.06340  -0.00107   0.00000  -0.00635  -0.00635   2.05705
   A27        2.09021  -0.00295   0.00000  -0.01844  -0.01842   2.07179
   A28        2.08319  -0.00022   0.00000  -0.00491  -0.00497   2.07822
   A29        1.95152   0.00322   0.00000   0.02276   0.02277   1.97429
   A30        2.06311  -0.00106   0.00000  -0.00609  -0.00608   2.05703
   A31        2.07206  -0.00178   0.00000  -0.01056  -0.01059   2.06147
   A32        2.08374  -0.00025   0.00000  -0.00540  -0.00547   2.07828
   A33        2.09127  -0.00298   0.00000  -0.01892  -0.01889   2.07238
   A34        1.95127   0.00326   0.00000   0.02314   0.02315   1.97442
   A35        2.08319  -0.00185   0.00000  -0.00330  -0.00326   2.07993
   A36        2.10699   0.00008   0.00000  -0.00296  -0.00298   2.10402
   A37        2.09297   0.00176   0.00000   0.00625   0.00623   2.09920
   A38        2.12331   0.00469   0.00000   0.01845   0.01844   2.14175
   A39        2.08494  -0.00756   0.00000  -0.02656  -0.02656   2.05838
   A40        2.07480   0.00286   0.00000   0.00797   0.00795   2.08274
   A41        2.10024   0.00021   0.00000  -0.00045  -0.00047   2.09977
   A42        2.11958  -0.00271   0.00000  -0.01415  -0.01417   2.10540
   A43        2.06314   0.00249   0.00000   0.01433   0.01430   2.07744
   A44        2.10196   0.00043   0.00000   0.00318   0.00319   2.10515
   A45        2.09245   0.00022   0.00000   0.00076   0.00076   2.09321
   A46        2.08874  -0.00064   0.00000  -0.00394  -0.00395   2.08479
   A47        2.09890   0.00196   0.00000   0.00607   0.00606   2.10496
   A48        2.08485  -0.00452   0.00000  -0.01433  -0.01432   2.07054
   A49        2.09941   0.00256   0.00000   0.00825   0.00824   2.10765
   A50        2.16824  -0.00204   0.00000  -0.00580  -0.00579   2.16245
   A51        2.16899  -0.00224   0.00000  -0.00655  -0.00654   2.16245
   A52        1.94596   0.00428   0.00000   0.01235   0.01233   1.95829
   A53        1.87192  -0.00116   0.00000   0.00095   0.00042   1.87233
   A54        1.86798   0.00250   0.00000   0.03356   0.03347   1.90146
   A55        1.84332   0.00170   0.00000   0.03098   0.03132   1.87464
   A56        1.77285  -0.00032   0.00000   0.00757   0.00758   1.78043
   A57        1.92781   0.00096   0.00000  -0.00186  -0.00369   1.92411
   A58        2.01227   0.00023   0.00000  -0.00846  -0.00915   2.00312
   A59        2.01784  -0.00434   0.00000  -0.04798  -0.04832   1.96952
   A60        1.95667  -0.00383   0.00000  -0.02022  -0.02034   1.93633
   A61        1.93785   0.00052   0.00000   0.00291   0.00291   1.94076
   A62        1.94280  -0.00448   0.00000  -0.02537  -0.02552   1.91728
   A63        1.88151   0.00202   0.00000   0.01254   0.01256   1.89407
   A64        1.86020   0.00443   0.00000   0.02423   0.02397   1.88417
   A65        1.88097   0.00186   0.00000   0.00872   0.00870   1.88967
   A66        1.94255   0.00157   0.00000   0.01081   0.01087   1.95342
   A67        1.95176  -0.00268   0.00000  -0.01463  -0.01487   1.93689
   A68        1.94507  -0.00780   0.00000  -0.04496  -0.04520   1.89987
   A69        1.87898   0.00127   0.00000   0.01102   0.01108   1.89006
   A70        1.87490   0.00330   0.00000   0.01803   0.01811   1.89301
   A71        1.86657   0.00494   0.00000   0.02305   0.02250   1.88906
   A72        2.01800  -0.00430   0.00000  -0.04782  -0.04817   1.96983
   A73        2.01239   0.00021   0.00000  -0.00862  -0.00931   2.00308
   A74        1.77330  -0.00036   0.00000   0.00724   0.00725   1.78055
   A75        1.92796   0.00093   0.00000  -0.00197  -0.00382   1.92414
   A76        1.84287   0.00172   0.00000   0.03129   0.03164   1.87451
   A77        1.86743   0.00253   0.00000   0.03379   0.03370   1.90113
   A78        1.94258   0.00160   0.00000   0.01093   0.01100   1.95358
   A79        1.95170  -0.00267   0.00000  -0.01468  -0.01491   1.93679
   A80        1.94442  -0.00777   0.00000  -0.04471  -0.04494   1.89947
   A81        1.87968   0.00123   0.00000   0.01065   0.01070   1.89038
   A82        1.87472   0.00329   0.00000   0.01811   0.01819   1.89291
   A83        1.86677   0.00493   0.00000   0.02296   0.02241   1.88918
   A84        1.93843   0.00048   0.00000   0.00264   0.00264   1.94107
   A85        1.94277  -0.00450   0.00000  -0.02547  -0.02562   1.91716
   A86        1.95656  -0.00385   0.00000  -0.02030  -0.02042   1.93614
   A87        1.88114   0.00188   0.00000   0.00881   0.00878   1.88992
   A88        1.88159   0.00205   0.00000   0.01271   0.01273   1.89432
   A89        1.85947   0.00446   0.00000   0.02446   0.02420   1.88366
   A90        1.87311  -0.00108   0.00000   0.00099   0.00046   1.87358
   A91        2.10044   0.00210   0.00000   0.00969   0.00968   2.11013
   A92        2.09363  -0.00172   0.00000  -0.00853  -0.00853   2.08510
   A93        2.08911  -0.00038   0.00000  -0.00116  -0.00115   2.08795
   A94        2.10392  -0.00108   0.00000  -0.00611  -0.00612   2.09780
   A95        2.10012  -0.00435   0.00000  -0.02374  -0.02374   2.07639
   A96        2.07914   0.00543   0.00000   0.02985   0.02986   2.10900
    D1        0.03923   0.00031   0.00000   0.00661   0.00661   0.04584
    D2       -2.97690   0.00073   0.00000   0.01250   0.01254  -2.96436
    D3        3.13653   0.00107   0.00000   0.02615   0.02611  -3.12054
    D4        0.12041   0.00149   0.00000   0.03204   0.03204   0.15245
    D5       -2.63222   0.00010   0.00000  -0.00037  -0.00038  -2.63260
    D6        0.49174  -0.00024   0.00000  -0.00974  -0.00970   0.48205
    D7        0.55143  -0.00057   0.00000  -0.01877  -0.01881   0.53263
    D8       -2.60778  -0.00091   0.00000  -0.02813  -0.02813  -2.63591
    D9        0.38122  -0.00022   0.00000  -0.00062  -0.00055   0.38067
   D10       -2.79834   0.00036   0.00000   0.00819   0.00808  -2.79026
   D11       -2.88704  -0.00020   0.00000  -0.00416  -0.00405  -2.89109
   D12        0.21659   0.00038   0.00000   0.00465   0.00458   0.22117
   D13        3.12005   0.00049   0.00000   0.00873   0.00858   3.12863
   D14        0.01837   0.00002   0.00000  -0.00013  -0.00016   0.01822
   D15       -3.11994   0.00013   0.00000  -0.00105  -0.00124  -3.12117
   D16        0.02988   0.00015   0.00000   0.00018   0.00004   0.02992
   D17       -0.01646   0.00014   0.00000   0.00580   0.00587  -0.01059
   D18        3.13335   0.00017   0.00000   0.00703   0.00715   3.14050
   D19       -0.01021  -0.00016   0.00000  -0.00445  -0.00449  -0.01470
   D20        3.13084   0.00020   0.00000   0.00414   0.00413   3.13497
   D21        0.00022   0.00013   0.00000   0.00315   0.00321   0.00343
   D22        3.14127   0.00018   0.00000   0.00473   0.00481  -3.13711
   D23       -3.14081  -0.00025   0.00000  -0.00587  -0.00588   3.13649
   D24        0.00024  -0.00019   0.00000  -0.00430  -0.00429  -0.00405
   D25       -3.14082  -0.00006   0.00000  -0.00116  -0.00109   3.14127
   D26        0.00186   0.00008   0.00000   0.00297   0.00303   0.00488
   D27        0.00132  -0.00011   0.00000  -0.00274  -0.00269  -0.00138
   D28       -3.13919   0.00003   0.00000   0.00139   0.00143  -3.13777
   D29        2.50993   0.00232   0.00000   0.01568   0.01559   2.52551
   D30       -2.50233  -0.00216   0.00000  -0.01110  -0.01095  -2.51328
   D31        0.00244   0.00010   0.00000   0.00266   0.00269   0.00513
   D32       -0.63279   0.00217   0.00000   0.01141   0.01126  -0.62153
   D33        0.63815  -0.00231   0.00000  -0.01537  -0.01528   0.62287
   D34       -3.14027  -0.00006   0.00000  -0.00161  -0.00164   3.14128
   D35        0.00594  -0.00033   0.00000  -0.00757  -0.00752  -0.00158
   D36        3.13938  -0.00036   0.00000  -0.00884  -0.00884   3.13054
   D37       -3.13455  -0.00018   0.00000  -0.00336  -0.00332  -3.13787
   D38       -0.00111  -0.00022   0.00000  -0.00463  -0.00464  -0.00575
   D39        0.03376  -0.00006   0.00000  -0.00113  -0.00108   0.03268
   D40       -2.42544  -0.00183   0.00000  -0.01828  -0.01820  -2.44364
   D41        2.52792   0.00151   0.00000   0.01062   0.01057   2.53849
   D42        0.06872  -0.00027   0.00000  -0.00653  -0.00654   0.06217
   D43        2.42290   0.00190   0.00000   0.01925   0.01917   2.44207
   D44       -0.03371   0.00002   0.00000   0.00062   0.00057  -0.03313
   D45       -0.06866   0.00030   0.00000   0.00684   0.00686  -0.06180
   D46       -2.52526  -0.00158   0.00000  -0.01179  -0.01174  -2.53700
   D47       -2.52021  -0.00118   0.00000  -0.00625  -0.00622  -2.52642
   D48        0.00178  -0.00001   0.00000  -0.00045  -0.00045   0.00132
   D49       -0.00057   0.00001   0.00000   0.00049   0.00049  -0.00008
   D50        2.52142   0.00118   0.00000   0.00628   0.00625   2.52767
   D51       -3.14156  -0.00049   0.00000  -0.01083  -0.01092   3.13071
   D52        0.02367   0.00007   0.00000   0.00220   0.00203   0.02570
   D53        0.01756  -0.00005   0.00000  -0.00118  -0.00114   0.01642
   D54       -3.10039   0.00051   0.00000   0.01185   0.01181  -3.08858
   D55        3.14011   0.00007   0.00000   0.00333   0.00321  -3.13986
   D56       -0.00222   0.00013   0.00000   0.00458   0.00448   0.00225
   D57       -0.01861  -0.00024   0.00000  -0.00565  -0.00566  -0.02427
   D58        3.12224  -0.00018   0.00000  -0.00440  -0.00439   3.11784
   D59       -0.00513   0.00031   0.00000   0.00675   0.00675   0.00162
   D60       -3.13743   0.00034   0.00000   0.00709   0.00712  -3.13030
   D61        3.11358  -0.00029   0.00000  -0.00625  -0.00637   3.10721
   D62       -0.01872  -0.00027   0.00000  -0.00590  -0.00600  -0.02472
   D63       -3.14142  -0.00015   0.00000  -0.00324  -0.00324   3.13853
   D64       -0.00652  -0.00020   0.00000  -0.00517  -0.00518  -0.01169
   D65       -0.00910  -0.00017   0.00000  -0.00355  -0.00359  -0.01269
   D66        3.12580  -0.00022   0.00000  -0.00549  -0.00552   3.12028
   D67       -0.00495  -0.00027   0.00000  -0.01058  -0.01059  -0.01554
   D68        3.13670  -0.00031   0.00000  -0.01158  -0.01160   3.12510
   D69       -3.13979  -0.00019   0.00000  -0.00853  -0.00852   3.13487
   D70        0.00185  -0.00022   0.00000  -0.00954  -0.00953  -0.00768
   D71        0.00550  -0.00009   0.00000  -0.00171  -0.00171   0.00379
   D72       -3.13131  -0.00011   0.00000  -0.00177  -0.00178  -3.13310
   D73        3.14040  -0.00015   0.00000  -0.00366  -0.00366   3.13674
   D74        0.00359  -0.00017   0.00000  -0.00371  -0.00373  -0.00014
   D75        2.93778   0.00195   0.00000   0.01845   0.01832   2.95610
   D76       -0.20386   0.00198   0.00000   0.01935   0.01922  -0.18464
   D77        2.94878   0.00190   0.00000   0.01764   0.01751   2.96629
   D78       -0.19277   0.00188   0.00000   0.01674   0.01661  -0.17616
   D79        2.58122   0.00054   0.00000  -0.02443  -0.02500   2.55622
   D80       -1.64743   0.00367   0.00000   0.00469   0.00452  -1.64290
   D81        0.46489  -0.00062   0.00000  -0.03281  -0.03326   0.43162
   D82       -0.94691   0.00086   0.00000   0.00663   0.00682  -0.94008
   D83       -3.05260   0.00054   0.00000   0.00245   0.00274  -3.04986
   D84        1.13500   0.00085   0.00000   0.00645   0.00679   1.14179
   D85       -2.94529  -0.00301   0.00000  -0.04747  -0.04781  -2.99310
   D86        1.23220  -0.00333   0.00000  -0.05164  -0.05190   1.18030
   D87       -0.86339  -0.00302   0.00000  -0.04764  -0.04784  -0.91123
   D88        1.01031   0.00217   0.00000   0.03277   0.03269   1.04300
   D89       -1.09539   0.00185   0.00000   0.02860   0.02861  -1.06678
   D90        3.09221   0.00216   0.00000   0.03260   0.03266   3.12487
   D91       -3.10071  -0.00148   0.00000  -0.00664  -0.00709  -3.10780
   D92        1.08013  -0.00235   0.00000  -0.01817  -0.01846   1.06166
   D93       -1.00811  -0.00149   0.00000  -0.00681  -0.00744  -1.01555
   D94       -1.08679   0.00285   0.00000   0.04871   0.04850  -1.03829
   D95        3.09404   0.00198   0.00000   0.03719   0.03713   3.13117
   D96        1.00580   0.00284   0.00000   0.04854   0.04815   1.05395
   D97        1.23798  -0.00003   0.00000  -0.01174  -0.01106   1.22692
   D98       -0.86437  -0.00090   0.00000  -0.02327  -0.02243  -0.88680
   D99       -2.95261  -0.00004   0.00000  -0.01191  -0.01140  -2.96402
   D100       1.42201   0.00367   0.00000   0.06688   0.06646   1.48847
   D101      -2.57539   0.00082   0.00000   0.00501   0.00517  -2.57021
   D102      -0.56328   0.00371   0.00000   0.04597   0.04575  -0.51753
   D103      -0.59042   0.00078   0.00000   0.02592   0.02588  -0.56454
   D104       1.69537  -0.00207   0.00000  -0.03595  -0.03541   1.65996
   D105      -2.57571   0.00082   0.00000   0.00501   0.00517  -2.57054
   D106      -2.87569   0.00361   0.00000   0.08756   0.08694  -2.78875
   D107      -0.58990   0.00075   0.00000   0.02569   0.02565  -0.56425
   D108       1.42220   0.00365   0.00000   0.06665   0.06623   1.48843
   D109       1.23849  -0.00005   0.00000  -0.01195  -0.01126   1.22723
   D110      -0.86474  -0.00089   0.00000  -0.02305  -0.02220  -0.88694
   D111      -2.95276  -0.00003   0.00000  -0.01175  -0.01124  -2.96400
   D112      -1.08676   0.00285   0.00000   0.04875   0.04854  -1.03822
   D113       3.09319   0.00201   0.00000   0.03766   0.03760   3.13079
   D114       1.00517   0.00287   0.00000   0.04895   0.04856   1.05374
   D115      -3.09986  -0.00151   0.00000  -0.00697  -0.00742  -3.10728
   D116       1.08010  -0.00235   0.00000  -0.01806  -0.01836   1.06174
   D117      -1.00792  -0.00149   0.00000  -0.00677  -0.00740  -1.01532
   D118      -1.09530   0.00183   0.00000   0.02845   0.02846  -1.06684
   D119       3.09171   0.00215   0.00000   0.03261   0.03267   3.12438
   D120       1.01083   0.00215   0.00000   0.03259   0.03251   1.04334
   D121       1.23279  -0.00334   0.00000  -0.05186  -0.05212   1.18067
   D122      -0.86339  -0.00302   0.00000  -0.04770  -0.04790  -0.91129
   D123      -2.94427  -0.00302   0.00000  -0.04772  -0.04806  -2.99234
   D124      -3.05277   0.00056   0.00000   0.00265   0.00293  -3.04984
   D125       1.13424   0.00088   0.00000   0.00681   0.00714   1.14138
   D126      -0.94665   0.00087   0.00000   0.00679   0.00698  -0.93966
[...]
 Alpha virt. eigenvalues --    0.25201   0.25725   0.26434   0.26509   0.27372
 Alpha virt. eigenvalues --    0.27503   0.27996   0.28309   0.28563   0.29356
 Alpha virt. eigenvalues --    0.29633   0.30192   0.30357   0.30602   0.31296
 Alpha virt. eigenvalues --    0.31673   0.32099   0.33238   0.33526   0.33640
 Alpha virt. eigenvalues --    0.34021   0.34325   0.34434   0.34694   0.34899
 Alpha virt. eigenvalues --    0.35455   0.35612   0.35894   0.36642   0.37020
 Alpha virt. eigenvalues --    0.37395   0.37628   0.38089   0.38508   0.38747
 Alpha virt. eigenvalues --    0.39120   0.39183   0.39831   0.40110   0.40325
 Alpha virt. eigenvalues --    0.40742   0.40839   0.41479   0.41765   0.42071
 Alpha virt. eigenvalues --    0.42831   0.43067   0.43370   0.43519   0.43759
 Alpha virt. eigenvalues --    0.43944   0.44058   0.44652   0.44808   0.44997
 Alpha virt. eigenvalues --    0.45211   0.45436   0.45757   0.45852   0.46132
 Alpha virt. eigenvalues --    0.46332   0.47325   0.47356   0.47806   0.47919
 Alpha virt. eigenvalues --    0.48729   0.48805   0.49230   0.49484   0.49633
 Alpha virt. eigenvalues --    0.49959   0.50144   0.50361   0.50842   0.51014
 Alpha virt. eigenvalues --    0.51081   0.51319   0.51973   0.52283   0.52500
 Alpha virt. eigenvalues --    0.53133   0.53291   0.53508   0.53649   0.53855
 Alpha virt. eigenvalues --    0.54249   0.54488   0.55158   0.55800   0.56604
 Alpha virt. eigenvalues --    0.57094   0.57331   0.57749   0.58050   0.58166
 Alpha virt. eigenvalues --    0.58618   0.58987   0.60005   0.60705   0.61066
 Alpha virt. eigenvalues --    0.61679   0.62085   0.62261   0.62960   0.63536
 Alpha virt. eigenvalues --    0.63823   0.64624   0.65720   0.66154   0.67135
 Alpha virt. eigenvalues --    0.67598   0.68021   0.68408   0.68917   0.69194
 Alpha virt. eigenvalues --    0.69372   0.69637   0.70307   0.71208   0.71510
 Alpha virt. eigenvalues --    0.72192   0.72500   0.72779   0.73060   0.73514
 Alpha virt. eigenvalues --    0.73971   0.74928   0.75288   0.76019   0.76574
 Alpha virt. eigenvalues --    0.77124   0.77978   0.78626   0.78916   0.79916
 Alpha virt. eigenvalues --    0.80037   0.80871   0.81166   0.81534   0.82275
 Alpha virt. eigenvalues --    0.83566   0.83932   0.84669   0.85093   0.85857
 Alpha virt. eigenvalues --    0.86696   0.86978   0.87808   0.88101   0.88585
 Alpha virt. eigenvalues --    0.89640   0.89970   0.90110   0.90494   0.90759
 Alpha virt. eigenvalues --    0.91114   0.91915   0.92262   0.93086   0.93754
 Alpha virt. eigenvalues --    0.93974   0.94390   0.94795   0.95074   0.95506
 Alpha virt. eigenvalues --    0.96019   0.96852   0.97369   0.97958   0.98793
 Alpha virt. eigenvalues --    0.99482   1.00249   1.00803   1.01152   1.01208
 Alpha virt. eigenvalues --    1.01683   1.02516   1.02822   1.03379   1.04151
 Alpha virt. eigenvalues --    1.05047   1.05568   1.05764   1.06805   1.07438
 Alpha virt. eigenvalues --    1.07989   1.08373   1.09002   1.09476   1.10445
 Alpha virt. eigenvalues --    1.10749   1.11546   1.12193   1.12602   1.13236
 Alpha virt. eigenvalues --    1.14540   1.14668   1.16496   1.16560   1.16923
 Alpha virt. eigenvalues --    1.17124   1.17487   1.17762   1.18662   1.19665
 Alpha virt. eigenvalues --    1.19952   1.20429   1.20958   1.21675   1.22473
 Alpha virt. eigenvalues --    1.23706   1.24332   1.24607   1.25313   1.25836
 Alpha virt. eigenvalues --    1.26682   1.27104   1.27343   1.27522   1.28266
 Alpha virt. eigenvalues --    1.28986   1.29891   1.30663   1.31085   1.32068
 Alpha virt. eigenvalues --    1.32320   1.33248   1.34003   1.34248   1.35163
 Alpha virt. eigenvalues --    1.35486   1.35916   1.37143   1.38422   1.38742
 Alpha virt. eigenvalues --    1.39420   1.40815   1.42123   1.42379   1.43289
 Alpha virt. eigenvalues --    1.43937   1.45073   1.45545   1.45977   1.47631
 Alpha virt. eigenvalues --    1.49547   1.49778   1.50346   1.51213   1.52161
 Alpha virt. eigenvalues --    1.52425   1.52510   1.52992   1.53589   1.53777
 Alpha virt. eigenvalues --    1.54004   1.54287   1.54516   1.55842   1.56074
 Alpha virt. eigenvalues --    1.56654   1.57727   1.58009   1.58386   1.58520
 Alpha virt. eigenvalues --    1.59175   1.59259   1.59963   1.60562   1.61122
 Alpha virt. eigenvalues --    1.61280   1.61497   1.61987   1.62498   1.63452
 Alpha virt. eigenvalues --    1.63773   1.64060   1.64346   1.64487   1.65115
 Alpha virt. eigenvalues --    1.65745   1.65857   1.66507   1.66543   1.67090
 Alpha virt. eigenvalues --    1.67609   1.68701   1.68849   1.70445   1.70785
 Alpha virt. eigenvalues --    1.71045   1.72052   1.72223   1.72523   1.73185
 Alpha virt. eigenvalues --    1.73397   1.74042   1.74618   1.75004   1.77167
 Alpha virt. eigenvalues --    1.77361   1.78431   1.78770   1.79669   1.79801
 Alpha virt. eigenvalues --    1.80252   1.80308   1.81052   1.82346   1.82661
 Alpha virt. eigenvalues --    1.83248   1.83609   1.84561   1.85536   1.85992
 Alpha virt. eigenvalues --    1.86305   1.87362   1.87958   1.88414   1.89382
 Alpha virt. eigenvalues --    1.90623   1.91154   1.91932   1.92187   1.92549
 Alpha virt. eigenvalues --    1.93669   1.93852   1.94025   1.94959   1.95551
 Alpha virt. eigenvalues --    1.95999   1.96251   1.96809   1.97048   1.97535
 Alpha virt. eigenvalues --    1.98533   1.99070   2.01010   2.01419   2.03870
 Alpha virt. eigenvalues --    2.04099   2.05038   2.05086   2.06016   2.06770
 Alpha virt. eigenvalues --    2.07720   2.08608   2.08856   2.09536   2.09693
 Alpha virt. eigenvalues --    2.10023   2.11410   2.11756   2.12461   2.12593
 Alpha virt. eigenvalues --    2.14069   2.15136   2.15281   2.16160   2.16590
 Alpha virt. eigenvalues --    2.17436   2.17697   2.18182   2.18797   2.19077
 Alpha virt. eigenvalues --    2.19324   2.20094   2.21979   2.22071   2.23249
 Alpha virt. eigenvalues --    2.23539   2.24091   2.25470   2.26230   2.28141
 Alpha virt. eigenvalues --    2.29383   2.29533   2.29944   2.30841   2.31431
 Alpha virt. eigenvalues --    2.31761   2.32662   2.33963   2.34490   2.34882
 Alpha virt. eigenvalues --    2.35626   2.35684   2.36013   2.36713   2.37469
 Alpha virt. eigenvalues --    2.37829   2.38195   2.38625   2.39014   2.39149
 Alpha virt. eigenvalues --    2.39892   2.40522   2.40710   2.41605   2.42154
 Alpha virt. eigenvalues --    2.42357   2.43641   2.44732   2.45561   2.46013
 Alpha virt. eigenvalues --    2.46448   2.47297   2.48085   2.48237   2.49156
 Alpha virt. eigenvalues --    2.49785   2.50715   2.51618   2.52041   2.52498
 Alpha virt. eigenvalues --    2.53008   2.53466   2.53864   2.55025   2.55441
 Alpha virt. eigenvalues --    2.55930   2.56697   2.57641   2.58010   2.58529
 Alpha virt. eigenvalues --    2.58966   2.59182   2.59444   2.59996   2.61060
 Alpha virt. eigenvalues --    2.61325   2.61884   2.62490   2.63073   2.63496
 Alpha virt. eigenvalues --    2.63961   2.64452   2.65176   2.65702   2.66485
 Alpha virt. eigenvalues --    2.66818   2.67403   2.68132   2.68635   2.69190
 Alpha virt. eigenvalues --    2.69472   2.69828   2.70241   2.70648   2.71404
 Alpha virt. eigenvalues --    2.71574   2.71983   2.72263   2.73088   2.73352
 Alpha virt. eigenvalues --    2.73541   2.74375   2.75010   2.76881   2.77521
 Alpha virt. eigenvalues --    2.77696   2.77955   2.78208   2.78791   2.79320
 Alpha virt. eigenvalues --    2.79856   2.80274   2.80463   2.80854   2.81212
 Alpha virt. eigenvalues --    2.81477   2.82183   2.83176   2.83988   2.84636
 Alpha virt. eigenvalues --    2.85178   2.85508   2.86422   2.86733   2.88141
 Alpha virt. eigenvalues --    2.88779   2.88962   2.89912   2.90175   2.90486
 Alpha virt. eigenvalues --    2.91501   2.92300   2.92606   2.93755   2.94456
 Alpha virt. eigenvalues --    2.95148   2.96563   2.96887   2.97247   2.98375
 Alpha virt. eigenvalues --    2.98629   2.99113   3.00402   3.00835   3.00937
 Alpha virt. eigenvalues --    3.01557   3.02640   3.03255   3.03794   3.04681
 Alpha virt. eigenvalues --    3.05653   3.05800   3.06518   3.06966   3.07459
 Alpha virt. eigenvalues --    3.07565   3.08327   3.08620   3.09193   3.09670
 Alpha virt. eigenvalues --    3.10336   3.10638   3.11401   3.12164   3.12791
 Alpha virt. eigenvalues --    3.12973   3.13655   3.14534   3.14968   3.15308
 Alpha virt. eigenvalues --    3.15845   3.16135   3.16482   3.16670   3.17169
 Alpha virt. eigenvalues --    3.17851   3.18203   3.18926   3.19605   3.20284
 Alpha virt. eigenvalues --    3.20406   3.21466   3.21630   3.21858   3.22405
 Alpha virt. eigenvalues --    3.23002   3.23267   3.24382   3.24739   3.25692
 Alpha virt. eigenvalues --    3.25815   3.26640   3.27405   3.27831   3.28133
 Alpha virt. eigenvalues --    3.28398   3.28737   3.29064   3.29941   3.30258
 Alpha virt. eigenvalues --    3.30681   3.31233   3.31857   3.32433   3.33001
 Alpha virt. eigenvalues --    3.33206   3.34403   3.35248   3.36005   3.36654
 Alpha virt. eigenvalues --    3.36867   3.37252   3.37773   3.38131   3.38300
 Alpha virt. eigenvalues --    3.38705   3.39508   3.39668   3.40182   3.40908
 Alpha virt. eigenvalues --    3.41658   3.42938   3.43066   3.43556   3.44031
 Alpha virt. eigenvalues --    3.44358   3.45117   3.45307   3.46268   3.46683
 Alpha virt. eigenvalues --    3.46924   3.46960   3.47692   3.48198   3.48784
 Alpha virt. eigenvalues --    3.49602   3.50887   3.51293   3.51796   3.51965
 Alpha virt. eigenvalues --    3.52961   3.53784   3.54263   3.54641   3.55051
 Alpha virt. eigenvalues --    3.55733   3.56039   3.56351   3.57869   3.58635
 Alpha virt. eigenvalues --    3.58840   3.59711   3.60778   3.61513   3.62240
 Alpha virt. eigenvalues --    3.63172   3.63745   3.65182   3.66328   3.67055
 Alpha virt. eigenvalues --    3.67922   3.68660   3.69259   3.70152   3.71747
 Alpha virt. eigenvalues --    3.72507   3.73327   3.74140   3.74192   3.76411
 Alpha virt. eigenvalues --    3.77967   3.78586   3.80437   3.80820   3.81145
 Alpha virt. eigenvalues --    3.81348   3.83277   3.83837   3.84776   3.85421
 Alpha virt. eigenvalues --    3.86394   3.86686   3.89795   3.90615   3.90986
 Alpha virt. eigenvalues --    3.93130   3.93955   3.95245   3.95966   3.96770
 Alpha virt. eigenvalues --    3.97714   3.98693   3.99382   3.99978   4.00602
 Alpha virt. eigenvalues --    4.00895   4.01753   4.01986   4.03423   4.04240
 Alpha virt. eigenvalues --    4.05332   4.05818   4.06460   4.06896   4.07317
 Alpha virt. eigenvalues --    4.08011   4.08704   4.09432   4.09765   4.10631
 Alpha virt. eigenvalues --    4.11439   4.11685   4.12561   4.14869   4.15388
 Alpha virt. eigenvalues --    4.15921   4.16098   4.16662   4.16875   4.17347
 Alpha virt. eigenvalues --    4.17748   4.20141   4.21258   4.21581   4.22750
 Alpha virt. eigenvalues --    4.23213   4.24410   4.25101   4.26138   4.26445
 Alpha virt. eigenvalues --    4.28112   4.29015   4.30404   4.31284   4.32160
 Alpha virt. eigenvalues --    4.34261   4.35517   4.37129   4.38203   4.39113
 Alpha virt. eigenvalues --    4.40057   4.40413   4.41586   4.42292   4.42752
 Alpha virt. eigenvalues --    4.43342   4.44189   4.46050   4.46938   4.47386
 Alpha virt. eigenvalues --    4.47999   4.49488   4.50818   4.51007   4.51647
 Alpha virt. eigenvalues --    4.53527   4.55096   4.55579   4.56725   4.58133
 Alpha virt. eigenvalues --    4.58468   4.58716   4.60946   4.61713   4.64604
 Alpha virt. eigenvalues --    4.67874   4.70622   4.74164   4.75724   4.77840
 Alpha virt. eigenvalues --    4.80221   4.80740   4.81110   4.82018   4.84285
 Alpha virt. eigenvalues --    4.85410   4.86405   4.86817   4.88023   4.88244
 Alpha virt. eigenvalues --    4.88902   4.89394   4.91829   4.94955   4.95029
 Alpha virt. eigenvalues --    4.95779   4.99568   5.01355   5.01582   5.02702
 Alpha virt. eigenvalues --    5.03864   5.05970   5.07617   5.08591   5.11862
 Alpha virt. eigenvalues --    5.12900   5.16066   5.18830   5.22948   5.23719
 Alpha virt. eigenvalues --    5.25194   5.26409   5.28089   5.29517   5.30585
 Alpha virt. eigenvalues --    5.31643   5.33155   5.40476   5.41855   5.42538
 Alpha virt. eigenvalues --    5.45857   5.46522   5.47319   5.50523   5.55292
 Alpha virt. eigenvalues --    5.57569   5.59358   5.59781   5.64153   5.67111
 Alpha virt. eigenvalues --    5.67998   5.70554   5.73934   5.74939   5.79705
 Alpha virt. eigenvalues --    5.81427   5.85423   5.86902   5.90326   5.93900
 Alpha virt. eigenvalues --    5.95780   6.14285   6.15484   6.20035   6.21697
 Alpha virt. eigenvalues --    6.38899   6.43962   6.52825   6.60944   6.75714
 Alpha virt. eigenvalues --    6.77950   6.78027   6.80896   6.85090   6.88442
 Alpha virt. eigenvalues --    6.95000   6.96248   7.10040   7.13968   7.19377
 Alpha virt. eigenvalues --    7.23674   7.37056   7.46166  16.36733  22.34705
 Alpha virt. eigenvalues --   22.48421  22.49845  22.52733  22.52998  22.53464
 Alpha virt. eigenvalues --   22.57212  22.57754  22.76843  22.77798  22.81619
 Alpha virt. eigenvalues --   22.82056  22.83212  22.84220  22.84974  22.90280
 Alpha virt. eigenvalues --   23.03916  23.16498  23.30978  23.36413  23.50680
 Alpha virt. eigenvalues --   32.60205  32.81843  44.11508  44.39661  44.43494
          Condensed to atoms (all electrons):
 Mulliken charges:
               1
     1  O   -0.329237
     2  C    0.315942
     3  N   -0.380518
     4  C    0.292254
     5  N   -0.233480
     6  C   -0.075622
     7  C   -0.199857
     8  C    0.194761
     9  C   -0.223830
    10  C   -0.239629
    11  C   -0.241261
    12  C   -0.304519
    13  C    0.064894
    14  C   -0.209143
    15  C   -0.197242
    16  C   -0.046171
    17  B    0.428851
    18  O   -0.337464
    19  C    0.130749
    20  C   -0.432988
    21  C   -0.499506
    22  C    0.130392
    23  C   -0.499536
    24  C   -0.432654
    25  O   -0.334095
    26  C   -0.167869
    27  C   -0.168593
    28  H    0.242247
    29  H    0.141875
    30  H    0.139677
    31  H    0.123355
    32  H    0.145168
    33  H    0.141877
    34  H    0.141908
    35  H    0.149073
    36  H    0.170788
    37  H    0.168564
    38  H    0.157222
    39  H    0.158036
    40  H    0.156007
    41  H    0.158589
    42  H    0.164029
    43  H    0.167743
    44  H    0.164714
    45  H    0.163921
    46  H    0.165335
    47  H    0.166060
    48  H    0.155385
    49  H    0.159503
    50  H    0.159300
    51  H    0.158744
    52  H    0.176252
 Sum of Mulliken charges =  -0.00000
 Mulliken charges with hydrogens summed into heavy atoms:
               1
     1  O   -0.329237
     2  C    0.315942
     3  N   -0.138270
     4  C    0.292254
     5  N   -0.233480
     6  C    0.066253
     7  C   -0.060180
     8  C    0.194761
     9  C   -0.100474
    10  C    0.047416
    11  C    0.049720
    12  C   -0.133731
    13  C    0.064894
    14  C   -0.040579
    15  C   -0.040020
    16  C   -0.046171
    17  B    0.428851
    18  O   -0.337464
    19  C    0.130749
    20  C    0.039644
    21  C   -0.003021
    22  C    0.130392
    23  C   -0.004220
    24  C    0.041535
    25  O   -0.334095
    26  C   -0.009125
    27  C    0.007659
 Electronic spatial extent (au):  <R**2>=          20036.4267
 Charge=              0.0000 electrons
 Dipole moment (field-independent basis, Debye):
    X=             -1.8174    Y=              5.6676    Z=              0.0332  Tot=              5.9520
 Quadrupole moment (field-independent basis, Debye-Ang):
   XX=           -106.7239   YY=           -167.2277   ZZ=           -160.5503
   XY=             13.8240   XZ=              0.4968   YZ=              0.6205
 Traceless Quadrupole moment (field-independent basis, Debye-Ang):
   XX=             38.1101   YY=            -22.3937   ZZ=            -15.7163
   XY=             13.8240   XZ=              0.4968   YZ=              0.6205
 Octapole moment (field-independent basis, Debye-Ang**2):
  XXX=             12.2712  YYY=             27.9885  ZZZ=              5.8684  XYY=            -12.2593
  XXY=             95.1182  XXZ=              0.8315  XZZ=            -29.3034  YZZ=              1.2913
  YYZ=             -1.5028  XYZ=             13.5744
 Hexadecapole moment (field-independent basis, Debye-Ang**3):
 XXXX=         -20469.7545 YYYY=          -2304.8871 ZZZZ=           -931.3021 XXXY=            148.3092
 XXXZ=             16.1890 YYYX=             60.4590 YYYZ=            -16.8478 ZZZX=             27.8408
 ZZZY=            -21.2947 XXYY=          -4276.8350 XXZZ=          -4258.1692 YYZZ=           -509.9218
 XXYZ=            107.1824 YYXZ=            -29.9139 ZZXY=              2.1810
 N-N= 2.232693924673D+03 E-N=-7.200987369537D+03  KE= 1.169121756806D+03
 Unable to Open any file for archive entry.
 1\1\GINC-COMPUTE-0-27\SP\RM062X\def2TZVP\C21H25B1N2O3\ZTAN64\14-Aug-20
 24\0\\# M062X/def2tzvp int=(grid=ultrafine) nmr=giao guess=read geom=c
 heck\\pyrd4.xyz\\0,1\O,0,1.0945510216,1.8152717275,5.6769517379\C,0,1.
 1841124981,1.319147536,4.5689735839\N,0,2.3906458676,1.0278285588,3.93
 81115355\C,0,3.6802686405,1.1664021834,4.4779721092\N,0,3.842637872,0.
 9173982098,5.7788874553\C,0,5.0842662971,1.0328577705,6.2597883832\C,0
 ,6.1961656884,1.3622428142,5.4910555029\C,0,6.0274304399,1.6057190542,
 4.121285784\C,0,7.1941940035,1.9598825952,3.2740869279\C,0,7.280215094
 5,1.4981278184,1.8305491354\C,0,7.0575717068,2.9486654835,2.1302141814
 \C,0,4.729315849,1.5111321857,3.6150274513\C,0,-0.0262220351,0.9986363
 72,3.7375102071\C,0,-0.0282762146,0.0304312775,2.7236451089\C,0,-1.189
 992727,-0.2185564155,1.9980790119\C,0,-2.3727071753,0.4901956963,2.261
 6093818\B,0,-3.6625809078,0.2115924161,1.4459971064\O,0,-3.7118274288,
 -0.6657682029,0.3909817362\C,0,-5.1154051081,-0.8354324091,0.043868167
 \C,0,-5.2259753475,-1.0113685066,-1.465089104\C,0,-5.5950408901,-2.097
 7584636,0.7654005926\C,0,-5.7599611532,0.482922404,0.6086668304\C,0,-5
 .6986614697,1.653679259,-0.3760680025\C,0,-7.1712595412,0.325117803,1.
 1594535765\O,0,-4.8660989645,0.8167169767,1.7078882845\C,0,-2.35992377
 87,1.4482686272,3.2901688383\C,0,-1.2066560333,1.6952108008,4.02530090
 02\H,0,2.3460410369,0.9200041304,2.9361297727\H,0,5.1968013045,0.83638
 59737,7.3241415465\H,0,7.1788457696,1.4269685407,5.9466417225\H,0,8.13
 40405704,1.9927655131,3.8171858004\H,0,6.4477856903,0.9144466176,1.449
 8728724\H,0,8.2514252551,1.1858956484,1.4606680661\H,0,7.874476252,3.6
 445675854,1.9693450509\H,0,6.0716299736,3.3685277612,1.9570444861\H,0,
 4.5204962232,1.7127401961,2.5683360765\H,0,0.8627234977,-0.5589581414,
 2.5278840947\H,0,-1.1904325888,-0.9775313323,1.2216535202\H,0,-4.74917
 86144,-0.1893188468,-2.0004051742\H,0,-6.2754443875,-1.0680644372,-1.7
 708358721\H,0,-4.7346792414,-1.9412543214,-1.7633215904\H,0,-6.6288746
 779,-2.3412085686,0.5055461144\H,0,-5.5260325016,-1.9816851476,1.85013
 42812\H,0,-4.9576299029,-2.9355755252,0.4723296492\H,0,-6.3971274903,1
 .5178131347,-1.2063334812\H,0,-4.6913162606,1.7732090637,-0.7834690824
 \H,0,-5.9627453403,2.5731181427,0.1520755577\H,0,-7.8585689709,0.00087
 12187,0.3716762143\H,0,-7.5244772552,1.2852008597,1.5446616321\H,0,-7.
 2047906356,-0.3994384727,1.9739621853\H,0,-3.2698630275,1.998622013,3.
 5092689482\H,0,-1.1895908825,2.4220348219,4.8297911854\\Version=ES64L-
 G16RevC.01\State=1-A\HF=-1175.3897091\RMSD=2.852e-09\Dipole=0.0399837,
 -0.2914827,-2.3231401\Quadrupole=29.2819415,-11.0758583,-18.2060832,5.
 8794802,4.8470455,-0.6358949\PG=C01 [X(C21H25B1N2O3)]\\@
 The archive entry for this job was punched.


 SOME PEOPLE TRY TO PULL THE WOOL OVER YOUR EYES
 USING THE WRONG YARN.
 Job cpu time:       0 days  3 hours 54 minutes 50.1 seconds.
 Elapsed time:       0 days  0 hours 15 minutes 55.1 seconds.
 File lengths (MBytes):  RWF=    543 Int=      0 D2E=      0 Chk=     88 Scr=      1
 Normal termination of Gaussian 16 at Wed Aug 14 20:09:32 2024.
 
 
-----Kestrel cluster job statistics-----
Time info:

real	71m52.909s
user	1127m32.795s
sys	0m42.980s
 
Disk space usage:
88M	/scratch/362968.kestrel.chem.wisc.edu
