 Entering Gaussian System, Link 0=/share/apps/gaussian/g16/g16
 Initial command:
 /share/apps/gaussian/g16/l1.exe "/scratch/362946.kestrel.chem.wisc.edu/Gau-83732.inp" -scrdir="/scratch/362946.kestrel.chem.wisc.edu/"
 Entering Link 1 = /share/apps/gaussian/g16/l1.exe PID=     83733.
  
 Copyright (c) 1988-2019, Gaussian, Inc.  All Rights Reserved.
  
 This is part of the Gaussian(R) 16 program.  It is based on
 the Gaussian(R) 09 system (copyright 2009, Gaussian, Inc.),
 the Gaussian(R) 03 system (copyright 2003, Gaussian, Inc.),
 the Gaussian(R) 98 system (copyright 1998, Gaussian, Inc.),
 the Gaussian(R) 94 system (copyright 1995, Gaussian, Inc.),
 the Gaussian 92(TM) system (copyright 1992, Gaussian, Inc.),
 the Gaussian 90(TM) system (copyright 1990, Gaussian, Inc.),
 the Gaussian 88(TM) system (copyright 1988, Gaussian, Inc.),
 the Gaussian 86(TM) system (copyright 1986, Carnegie Mellon
 University), and the Gaussian 82(TM) system (copyright 1983,
 Carnegie Mellon University). Gaussian is a federally registered
 trademark of Gaussian, Inc.
  
 This software contains proprietary and confidential information,
 including trade secrets, belonging to Gaussian, Inc.
  
 This software is provided under written license and may be
 used, copied, transmitted, or stored only in accord with that
 written license.
  
 The following legend is applicable only to US Government
 contracts under FAR:
  
                    RESTRICTED RIGHTS LEGEND
  
 Use, reproduction and disclosure by the US Government is
 subject to restrictions as set forth in subparagraphs (a)
 and (c) of the Commercial Computer Software - Restricted
 Rights clause in FAR 52.227-19.
  
 Gaussian, Inc.
 340 Quinnipiac St., Bldg. 40, Wallingford CT 06492
  
  
 ---------------------------------------------------------------
 Warning -- This program may not be used in any manner that
 competes with the business of Gaussian, Inc. or will provide
 assistance to any competitor of Gaussian, Inc.  The licensee
 of this program is prohibited from giving any competitor of
 Gaussian, Inc. access to this program.  By using this program,
 the user acknowledges that Gaussian, Inc. is engaged in the
 business of creating and licensing software in the field of
 computational chemistry and represents and warrants to the
 licensee that it is not a competitor of Gaussian, Inc. and that
 it will not use this program in any manner prohibited above.
 ---------------------------------------------------------------
  

 Cite this work as:
 Gaussian 16, Revision C.01,
 M. J. Frisch, G. W. Trucks, H. B. Schlegel, G. E. Scuseria, 
 M. A. Robb, J. R. Cheeseman, G. Scalmani, V. Barone, 
 G. A. Petersson, H. Nakatsuji, X. Li, M. Caricato, A. V. Marenich, 
 J. Bloino, B. G. Janesko, R. Gomperts, B. Mennucci, H. P. Hratchian, 
 J. V. Ortiz, A. F. Izmaylov, J. L. Sonnenberg, D. Williams-Young, 
 F. Ding, F. Lipparini, F. Egidi, J. Goings, B. Peng, A. Petrone, 
 T. Henderson, D. Ranasinghe, V. G. Zakrzewski, J. Gao, N. Rega, 
 G. Zheng, W. Liang, M. Hada, M. Ehara, K. Toyota, R. Fukuda, 
 J. Hasegawa, M. Ishida, T. Nakajima, Y. Honda, O. Kitao, H. Nakai, 
 T. Vreven, K. Throssell, J. A. Montgomery, Jr., J. E. Peralta, 
 F. Ogliaro, M. J. Bearpark, J. J. Heyd, E. N. Brothers, K. N. Kudin, 
 V. N. Staroverov, T. A. Keith, R. Kobayashi, J. Normand, 
 K. Raghavachari, A. P. Rendell, J. C. Burant, S. S. Iyengar, 
 J. Tomasi, M. Cossi, J. M. Millam, M. Klene, C. Adamo, R. Cammi, 
 J. W. Ochterski, R. L. Martin, K. Morokuma, O. Farkas, 
 J. B. Foresman, and D. J. Fox, Gaussian, Inc., Wallingford CT, 2019.
 
 ******************************************
 Gaussian 16:  ES64L-G16RevC.01  3-Jul-2019
                14-Aug-2024 
 ******************************************
 %nprocs=16
 Will use up to   16 processors via shared memory.
 %mem=16GB
 %chk=pyrd10_conf-12.chk
 ----------------------------------------------------------------------
 # B3LYP/6-31G(d,p) symmetry=loose empiricaldispersion=GD3BJ int=(grid=
 ultrafine) opt freq=noraman
 ----------------------------------------------------------------------
 1/18=20,19=15,26=4,38=1/1,3;
 2/9=110,12=2,17=4,18=3,40=1/2;
 3/5=1,6=6,7=101,11=2,25=1,30=1,71=1,74=-5,75=-5,124=41/1,2,3;
 4//1;
 5/5=2,38=5/2;
 6/7=2,8=2,9=2,10=2,28=1/1;
 7//1,2,3,16;
 1/18=20,19=15,26=4/3(2);
 2/9=110/2;
 99//99;
 2/9=110/2;
 3/5=1,6=6,7=101,11=2,25=1,30=1,71=1,74=-5,75=-5,124=41/1,2,3;
 4/5=5,16=3,69=1/1;
 5/5=2,38=5/2;
 7//1,2,3,16;
 1/18=20,19=15,26=4/3(-5);
 2/9=110/2;
 6/7=2,8=2,9=2,10=2,19=2,28=1/1;
 99/9=1/99;
 ----------
 pyrd10.xyz
 ----------
 Symbolic Z-matrix:
 Charge =  0 Multiplicity = 1
 Br                    3.1888   -0.4209    2.207 
 C                     3.9688   -1.4462    0.6879 
 C                     2.979    -1.5431   -0.4905 
 C                     1.8766   -2.6177   -0.3499 
 C                     0.8298   -2.3224    0.7139 
 C                     0.7575   -3.0824    1.8872 
 N                    -0.1638   -2.8591    2.8587 
 C                    -1.0481   -1.8469    2.6729 
 C                    -1.0481   -1.0407    1.5329 
 C                    -0.0956   -1.2868    0.5418 
 H                     4.8757   -0.9183    0.3899 
 H                     4.2673   -2.4281    1.0571 
 H                     2.5409   -0.5631   -0.6867 
 H                     3.5536   -1.787    -1.3851 
 H                     2.3264   -3.5953   -0.168 
 H                     1.3508   -2.723    -1.3005 
 H                     1.4517   -3.8882    2.0738 
 H                    -1.7649   -1.6877    3.4657 
 H                    -1.7655   -0.2413    1.4212 
 H                    -0.0737   -0.6736   -0.3471 
 

 GradGradGradGradGradGradGradGradGradGradGradGradGradGradGradGradGradGrad
 Berny optimization.
 Initialization pass.
                           ----------------------------
                           !    Initial Parameters    !
                           ! (Angstroms and Degrees)  !
 --------------------------                            --------------------------
 ! Name  Definition              Value          Derivative Info.                !
 --------------------------------------------------------------------------------
 ! R1    R(1,2)                  1.9918         estimate D2E/DX2                !
 ! R2    R(2,3)                  1.542          estimate D2E/DX2                !
 ! R3    R(2,11)                 1.0908         estimate D2E/DX2                !
 ! R4    R(2,12)                 1.0907         estimate D2E/DX2                !
 ! R5    R(3,4)                  1.5459         estimate D2E/DX2                !
 ! R6    R(3,13)                 1.0912         estimate D2E/DX2                !
 ! R7    R(3,14)                 1.0909         estimate D2E/DX2                !
 ! R8    R(4,5)                  1.5214         estimate D2E/DX2                !
 ! R9    R(4,15)                 1.0914         estimate D2E/DX2                !
 ! R10   R(4,16)                 1.0914         estimate D2E/DX2                !
 ! R11   R(5,6)                  1.3998         estimate D2E/DX2                !
 ! R12   R(5,10)                 1.3994         estimate D2E/DX2                !
 ! R13   R(6,7)                  1.3574         estimate D2E/DX2                !
 ! R14   R(6,17)                 1.0798         estimate D2E/DX2                !
 ! R15   R(7,8)                  1.3569         estimate D2E/DX2                !
 ! R16   R(8,9)                  1.3963         estimate D2E/DX2                !
 ! R17   R(8,18)                 1.0806         estimate D2E/DX2                !
 ! R18   R(9,10)                 1.3965         estimate D2E/DX2                !
 ! R19   R(9,19)                 1.0799         estimate D2E/DX2                !
 ! R20   R(10,20)                1.0801         estimate D2E/DX2                !
 ! A1    A(1,2,3)              111.335          estimate D2E/DX2                !
 ! A2    A(1,2,11)             106.5473         estimate D2E/DX2                !
 ! A3    A(1,2,12)             108.2058         estimate D2E/DX2                !
 ! A4    A(3,2,11)             110.8118         estimate D2E/DX2                !
 ! A5    A(3,2,12)             112.1974         estimate D2E/DX2                !
 ! A6    A(11,2,12)            107.4946         estimate D2E/DX2                !
 ! A7    A(2,3,4)              115.5896         estimate D2E/DX2                !
 ! A8    A(2,3,13)             109.7957         estimate D2E/DX2                !
 ! A9    A(2,3,14)             107.6172         estimate D2E/DX2                !
 ! A10   A(4,3,13)             110.752          estimate D2E/DX2                !
 ! A11   A(4,3,14)             107.1451         estimate D2E/DX2                !
 ! A12   A(13,3,14)            105.3559         estimate D2E/DX2                !
 ! A13   A(3,4,5)              114.7921         estimate D2E/DX2                !
 ! A14   A(3,4,15)             110.1157         estimate D2E/DX2                !
 ! A15   A(3,4,16)             109.3536         estimate D2E/DX2                !
 ! A16   A(5,4,15)             109.9314         estimate D2E/DX2                !
 ! A17   A(5,4,16)             107.2331         estimate D2E/DX2                !
 ! A18   A(15,4,16)            104.9096         estimate D2E/DX2                !
 ! A19   A(4,5,6)              121.0801         estimate D2E/DX2                !
 ! A20   A(4,5,10)             120.8389         estimate D2E/DX2                !
 ! A21   A(6,5,10)             118.0796         estimate D2E/DX2                !
 ! A22   A(5,6,7)              123.0688         estimate D2E/DX2                !
 ! A23   A(5,6,17)             121.1169         estimate D2E/DX2                !
 ! A24   A(7,6,17)             115.8123         estimate D2E/DX2                !
 ! A25   A(6,7,8)              117.844          estimate D2E/DX2                !
 ! A26   A(7,8,9)              122.8563         estimate D2E/DX2                !
 ! A27   A(7,8,18)             116.216          estimate D2E/DX2                !
 ! A28   A(9,8,18)             120.9273         estimate D2E/DX2                !
 ! A29   A(8,9,10)             118.5358         estimate D2E/DX2                !
 ! A30   A(8,9,19)             120.7886         estimate D2E/DX2                !
 ! A31   A(10,9,19)            120.675          estimate D2E/DX2                !
 ! A32   A(5,10,9)             119.6148         estimate D2E/DX2                !
 ! A33   A(5,10,20)            120.5251         estimate D2E/DX2                !
 ! A34   A(9,10,20)            119.8586         estimate D2E/DX2                !
 ! D1    D(1,2,3,4)            -79.8574         estimate D2E/DX2                !
 ! D2    D(1,2,3,13)            46.2929         estimate D2E/DX2                !
 ! D3    D(1,2,3,14)           160.4722         estimate D2E/DX2                !
 ! D4    D(11,2,3,4)           161.7464         estimate D2E/DX2                !
 ! D5    D(11,2,3,13)          -72.1033         estimate D2E/DX2                !
 ! D6    D(11,2,3,14)           42.076          estimate D2E/DX2                !
 ! D7    D(12,2,3,4)            41.585          estimate D2E/DX2                !
 ! D8    D(12,2,3,13)          167.7353         estimate D2E/DX2                !
 ! D9    D(12,2,3,14)          -78.0855         estimate D2E/DX2                !
 ! D10   D(2,3,4,5)             69.555          estimate D2E/DX2                !
 ! D11   D(2,3,4,15)           -55.1304         estimate D2E/DX2                !
 ! D12   D(2,3,4,16)          -169.9062         estimate D2E/DX2                !
 ! D13   D(13,3,4,5)           -56.1074         estimate D2E/DX2                !
 ! D14   D(13,3,4,15)          179.2072         estimate D2E/DX2                !
 ! D15   D(13,3,4,16)           64.4315         estimate D2E/DX2                !
 ! D16   D(14,3,4,5)          -170.5165         estimate D2E/DX2                !
 ! D17   D(14,3,4,15)           64.798          estimate D2E/DX2                !
 ! D18   D(14,3,4,16)          -49.9777         estimate D2E/DX2                !
 ! D19   D(3,4,5,6)           -110.6346         estimate D2E/DX2                !
 ! D20   D(3,4,5,10)            69.8128         estimate D2E/DX2                !
 ! D21   D(15,4,5,6)            14.1477         estimate D2E/DX2                !
 ! D22   D(15,4,5,10)         -165.4049         estimate D2E/DX2                !
 ! D23   D(16,4,5,6)           127.6653         estimate D2E/DX2                !
 ! D24   D(16,4,5,10)          -51.8873         estimate D2E/DX2                !
 ! D25   D(4,5,6,7)           -179.6314         estimate D2E/DX2                !
 ! D26   D(4,5,6,17)             0.9004         estimate D2E/DX2                !
 ! D27   D(10,5,6,7)            -0.0667         estimate D2E/DX2                !
 ! D28   D(10,5,6,17)         -179.5349         estimate D2E/DX2                !
 ! D29   D(4,5,10,9)           179.8048         estimate D2E/DX2                !
 ! D30   D(4,5,10,20)           -0.6284         estimate D2E/DX2                !
 ! D31   D(6,5,10,9)             0.239          estimate D2E/DX2                !
 ! D32   D(6,5,10,20)          179.8059         estimate D2E/DX2                !
 ! D33   D(5,6,7,8)             -0.1607         estimate D2E/DX2                !
 ! D34   D(17,6,7,8)           179.3335         estimate D2E/DX2                !
 ! D35   D(6,7,8,9)              0.2213         estimate D2E/DX2                !
 ! D36   D(6,7,8,18)          -179.5579         estimate D2E/DX2                !
 ! D37   D(7,8,9,10)            -0.0513         estimate D2E/DX2                !
 ! D38   D(7,8,9,19)          -179.7714         estimate D2E/DX2                !
 ! D39   D(18,8,9,10)          179.7178         estimate D2E/DX2                !
 ! D40   D(18,8,9,19)           -0.0023         estimate D2E/DX2                !
 ! D41   D(8,9,10,5)            -0.184          estimate D2E/DX2                !
 ! D42   D(8,9,10,20)         -179.7538         estimate D2E/DX2                !
 ! D43   D(19,9,10,5)          179.5364         estimate D2E/DX2                !
 ! D44   D(19,9,10,20)          -0.0334         estimate D2E/DX2                !
 --------------------------------------------------------------------------------
 Trust Radius=3.00D-01 FncErr=1.00D-07 GrdErr=1.00D-06 EigMax=2.50D+02 EigMin=1.00D-04
 Number of steps in this run=    108 maximum allowed number of steps=    120.
 GradGradGradGradGradGradGradGradGradGradGradGradGradGradGradGradGradGrad

                          Input orientation:                          
 ---------------------------------------------------------------------
 Center     Atomic      Atomic             Coordinates (Angstroms)
 Number     Number       Type             X           Y           Z
 ---------------------------------------------------------------------
      1         35           0        3.188800   -0.420900    2.207000
      2          6           0        3.968800   -1.446200    0.687900
      3          6           0        2.979000   -1.543100   -0.490500
      4          6           0        1.876600   -2.617700   -0.349900
      5          6           0        0.829800   -2.322400    0.713900
      6          6           0        0.757500   -3.082400    1.887200
      7          7           0       -0.163800   -2.859100    2.858700
      8          6           0       -1.048100   -1.846900    2.672900
      9          6           0       -1.048100   -1.040700    1.532900
     10          6           0       -0.095600   -1.286800    0.541800
     11          1           0        4.875700   -0.918300    0.389900
     12          1           0        4.267300   -2.428100    1.057100
     13          1           0        2.540900   -0.563100   -0.686700
     14          1           0        3.553600   -1.787000   -1.385100
     15          1           0        2.326400   -3.595300   -0.168000
     16          1           0        1.350800   -2.723000   -1.300500
     17          1           0        1.451700   -3.888200    2.073800
     18          1           0       -1.764900   -1.687700    3.465700
     19          1           0       -1.765500   -0.241300    1.421200
     20          1           0       -0.073700   -0.673600   -0.347100
 ---------------------------------------------------------------------
                    Distance matrix (angstroms):
                    1          2          3          4          5
     1  Br   0.000000
     2  C    1.991809   0.000000
     3  C    2.929139   1.541986   0.000000
     4  C    3.617394   2.612803   1.545904   0.000000
     5  C    3.377859   3.259099   2.583979   1.521402   0.000000
     6  C    3.618988   3.798410   3.599717   2.544199   1.399807
     7  N    4.196363   4.877196   4.777676   3.810068   2.423934
     8  C    4.494648   5.410182   5.130003   4.276134   2.755048
     9  C    4.334730   5.103699   4.534764   3.819128   2.416614
    10  C    3.782850   4.070148   3.253383   2.540865   1.399447
    11  H    2.528812   1.090848   2.182418   3.525601   4.294855
    12  H    2.552310   1.090660   2.199547   2.780475   3.456207
    13  H    2.968753   2.169859   1.091250   2.185431   2.825718
    14  H    3.860374   2.141463   1.090854   2.138698   3.480164
    15  H    4.057237   2.837018   2.177480   1.091380   2.153563
    16  H    4.580444   3.526737   2.167787   1.091418   2.118898
    17  H    3.880390   3.770925   3.795757   2.769302   2.165137
    18  H    5.265762   6.375720   6.178755   5.355766   3.835064
    19  H    5.019445   5.905227   5.278216   4.695633   3.401005
    20  H    4.151047   4.243812   3.177353   2.753762   2.158836
                    6          7          8          9         10
     6  C    0.000000
     7  N    1.357376   0.000000
     8  C    2.324645   1.356856   0.000000
     9  C    2.748501   2.417915   1.396266   0.000000
    10  C    2.400429   2.800858   2.400532   1.396460   0.000000
    11  H    4.887209   5.937865   6.416057   6.034305   4.987253
    12  H    3.665497   4.802725   5.585882   5.514049   4.539052
    13  H    4.018999   5.015663   5.080942   4.246840   2.997347
    14  H    4.494906   5.742674   6.135682   5.499757   4.156898
    15  H    2.635974   3.987982   4.744983   4.561391   3.420391
    16  H    3.262300   4.428485   4.723365   4.075906   2.747510
    17  H    1.079836   2.070013   3.282503   3.827510   3.392410
    18  H    3.286237   2.074644   1.080592   2.160585   3.390645
    19  H    3.828124   3.388912   2.158557   1.079898   2.157540
    20  H    3.388998   3.880938   3.383266   2.149097   1.080110
                   11         12         13         14         15
    11  H    0.000000
    12  H    1.759205   0.000000
    13  H    2.595482   3.082129   0.000000
    14  H    2.377649   2.623875   1.735297   0.000000
    15  H    3.738517   2.574941   3.083715   2.501460   0.000000
    16  H    4.305730   3.761810   2.541310   2.394907   1.730682
    17  H    4.835246   3.330642   4.456793   4.560374   2.424161
    18  H    7.358674   6.537353   6.086630   7.199067   5.794950
    19  H    6.754809   6.427234   4.805401   6.209455   5.524357
    20  H    5.009951   4.888183   2.638877   3.933753   3.785352
                   16         17         18         19         20
    16  H    0.000000
    17  H    3.571242   0.000000
    18  H    5.787581   4.138369   0.000000
    19  H    4.824708   4.906745   2.504407   0.000000
    20  H    2.671743   4.303633   4.292552   2.485147   0.000000
 Stoichiometry    C8H10BrN
 Framework group  C1[X(C8H10BrN)]
 Deg. of freedom    54
 Full point group                 C1      NOp   1
 Largest Abelian subgroup         C1      NOp   1
 Largest concise Abelian subgroup C1      NOp   1
                         Standard orientation:                         
 ---------------------------------------------------------------------
 Center     Atomic      Atomic             Coordinates (Angstroms)
 Number     Number       Type             X           Y           Z
 ---------------------------------------------------------------------
      1         35           0       -1.567095   -1.086604   -0.096531
      2          6           0       -2.177173    0.755715    0.351766
      3          6           0       -1.337501    1.819337   -0.384019
      4          6           0        0.038119    2.137010    0.245721
      5          6           0        1.064017    1.019025    0.134789
      6          6           0        1.482393    0.307382    1.265269
      7          7           0        2.399801   -0.691715    1.213911
      8          6           0        2.925741   -1.007568    0.003671
      9          6           0        2.566312   -0.348760   -1.173758
     10          6           0        1.623724    0.679092   -1.101990
     11          1           0       -3.225335    0.816534    0.055777
     12          1           0       -2.134985    0.874475    1.435119
     13          1           0       -1.227462    1.542100   -1.433713
     14          1           0       -1.910940    2.747294   -0.388907
     15          1           0       -0.085308    2.426349    1.290785
     16          1           0        0.464192    3.016269   -0.240653
     17          1           0        1.077240    0.523917    2.242516
     18          1           0        3.647791   -1.811426   -0.007938
     19          1           0        3.003596   -0.630169   -2.120211
     20          1           0        1.327131    1.200414   -2.000262
 ---------------------------------------------------------------------
 Rotational constants (GHZ):           1.4156824           0.6748206           0.5522829
 Standard basis: 6-31G(d,p) (6D, 7F)
 There are   215 symmetry adapted cartesian basis functions of A   symmetry.
 There are   215 symmetry adapted basis functions of A   symmetry.
   215 basis functions,   405 primitive gaussians,   215 cartesian basis functions
    50 alpha electrons       50 beta electrons
       nuclear repulsion energy       755.5303486263 Hartrees.
 NAtoms=   20 NActive=   20 NUniq=   20 SFac= 1.00D+00 NAtFMM=   60 NAOKFM=F Big=F
 Integral buffers will be    131072 words long.
 Raffenetti 2 integral format.
 Two-electron integral symmetry is turned on.
 Nuclear repulsion after empirical dispersion term =      755.4897807020 Hartrees.
 One-electron integrals computed using PRISM.
 NBasis=   215 RedAO= T EigKep=  7.27D-04  NBF=   215
 NBsUse=   215 1.00D-06 EigRej= -1.00D+00 NBFU=   215
 ExpMin= 1.43D-01 ExpMax= 5.74D+05 ExpMxC= 5.74D+03 IAcc=3 IRadAn=         5 AccDes= 0.00D+00
 Harris functional with IExCor=  402 and IRadAn=       5 diagonalized for initial guess.
 HarFok:  IExCor=  402 AccDes= 0.00D+00 IRadAn=         5 IDoV= 1 UseB2=F ITyADJ=14
 ICtDFT=  3500011 ScaDFX=  1.000000  1.000000  1.000000  1.000000
 FoFCou: FMM=F IPFlag=           0 FMFlag=      100000 FMFlg1=           0
         NFxFlg=           0 DoJE=T BraDBF=F KetDBF=T FulRan=T
         wScrn=  0.000000 ICntrl=       500 IOpCl=  0 I1Cent=   200000004 NGrid=           0
         NMat0=    1 NMatS0=      1 NMatT0=    0 NMatD0=    1 NMtDS0=    0 NMtDT0=    0
 Petite list used in FoFCou.
 Requested convergence on RMS density matrix=1.00D-08 within 128 cycles.
 Requested convergence on MAX density matrix=1.00D-06.
 Requested convergence on             energy=1.00D-06.
 No special actions if energy rises.
 Integral accuracy reduced to 1.0D-05 until final iterations.
 Initial convergence to 1.0D-05 achieved.  Increase integral accuracy.
 SCF Done:  E(RB3LYP) =  -2937.38384819     A.U. after   14 cycles
            NFock= 14  Conv=0.53D-08     -V/T= 2.0067

 **********************************************************************

            Population analysis using the SCF Density.

 **********************************************************************

 Orbital symmetries:
       Occupied  (A) (A) (A) (A) (A) (A) (A) (A) (A) (A) (A) (A)
                 (A) (A) (A) (A) (A) (A) (A) (A) (A) (A) (A) (A)
                 (A) (A) (A) (A) (A) (A) (A) (A) (A) (A) (A) (A)
                 (A) (A) (A) (A) (A) (A) (A) (A) (A) (A) (A) (A)
                 (A) (A)
       Virtual   (A) (A) (A) (A) (A) (A) (A) (A) (A) (A) (A) (A)
                 (A) (A) (A) (A) (A) (A) (A) (A) (A) (A) (A) (A)
                 (A) (A) (A) (A) (A) (A) (A) (A) (A) (A) (A) (A)
                 (A) (A) (A) (A) (A) (A) (A) (A) (A) (A) (A) (A)
                 (A) (A) (A) (A) (A) (A) (A) (A) (A) (A) (A) (A)
                 (A) (A) (A) (A) (A) (A) (A) (A) (A) (A) (A) (A)
                 (A) (A) (A) (A) (A) (A) (A) (A) (A) (A) (A) (A)
                 (A) (A) (A) (A) (A) (A) (A) (A) (A) (A) (A) (A)
                 (A) (A) (A) (A) (A) (A) (A) (A) (A) (A) (A) (A)
                 (A) (A) (A) (A) (A) (A) (A) (A) (A) (A) (A) (A)
                 (A) (A) (A) (A) (A) (A) (A) (A) (A) (A) (A) (A)
                 (A) (A) (A) (A) (A) (A) (A) (A) (A) (A) (A) (A)
                 (A) (A) (A) (A) (A) (A) (A) (A) (A) (A) (A) (A)
                 (A) (A) (A) (A) (A) (A) (A) (A) (A)
 The electronic state is 1-A.
 Alpha  occ. eigenvalues -- -482.89266 -61.85487 -56.37515 -56.37142 -56.37135
 Alpha  occ. eigenvalues --  -14.32436 -10.24752 -10.21624 -10.21567 -10.20866
 Alpha  occ. eigenvalues --  -10.20249 -10.20193 -10.20140 -10.19493  -8.56571
 Alpha  occ. eigenvalues --   -6.51950  -6.50670  -6.50644  -2.63508  -2.63157
 Alpha  occ. eigenvalues --   -2.63136  -2.62115  -2.62114  -0.92319  -0.83126
 Alpha  occ. eigenvalues --   -0.79747  -0.77007  -0.73872  -0.67893  -0.62782
 Alpha  occ. eigenvalues --   -0.61743  -0.58549  -0.51639  -0.48611  -0.47338
 Alpha  occ. eigenvalues --   -0.46674  -0.44183  -0.42235  -0.40330  -0.39726
 Alpha  occ. eigenvalues --   -0.39413  -0.37054  -0.36262  -0.35951  -0.34124
 Alpha  occ. eigenvalues --   -0.28025  -0.27216  -0.26558  -0.24497  -0.24193
 Alpha virt. eigenvalues --   -0.02190  -0.00539   0.00092   0.08195   0.10410
 Alpha virt. eigenvalues --    0.11337   0.12942   0.13518   0.14598   0.15709
 Alpha virt. eigenvalues --    0.16236   0.16972   0.17894   0.19200   0.20027
 Alpha virt. eigenvalues --    0.23178   0.24593   0.26469   0.28959   0.31233
 Alpha virt. eigenvalues --    0.33121   0.36768   0.41583   0.42349   0.43286
 Alpha virt. eigenvalues --    0.44177   0.46294   0.46755   0.47280   0.49364
 Alpha virt. eigenvalues --    0.50864   0.52709   0.54091   0.55577   0.56260
 Alpha virt. eigenvalues --    0.56963   0.58275   0.60145   0.60796   0.61259
 Alpha virt. eigenvalues --    0.63498   0.64113   0.65551   0.66848   0.69610
 Alpha virt. eigenvalues --    0.70567   0.71298   0.74599   0.77040   0.78544
 Alpha virt. eigenvalues --    0.80350   0.81390   0.81974   0.83406   0.84414
 Alpha virt. eigenvalues --    0.86560   0.87098   0.87632   0.89176   0.90430
 Alpha virt. eigenvalues --    0.92706   0.92875   0.92922   0.96119   0.97295
 Alpha virt. eigenvalues --    1.00638   1.05217   1.07827   1.10824   1.12833
 Alpha virt. eigenvalues --    1.15596   1.19868   1.25526   1.29070   1.30736
 Alpha virt. eigenvalues --    1.35345   1.37474   1.40728   1.43687   1.46101
 Alpha virt. eigenvalues --    1.47487   1.48383   1.52808   1.53902   1.57568
 Alpha virt. eigenvalues --    1.62042   1.67359   1.73814   1.75608   1.78563
 Alpha virt. eigenvalues --    1.79339   1.81978   1.82751   1.84956   1.86770
 Alpha virt. eigenvalues --    1.89445   1.90376   1.92613   1.97464   1.98295
 Alpha virt. eigenvalues --    2.00431   2.02249   2.09634   2.09898   2.11244
 Alpha virt. eigenvalues --    2.12075   2.14229   2.15206   2.20440   2.20823
 Alpha virt. eigenvalues --    2.25707   2.26949   2.29256   2.31697   2.32880
 Alpha virt. eigenvalues --    2.35584   2.37783   2.38817   2.40491   2.41359
 Alpha virt. eigenvalues --    2.43005   2.46204   2.50114   2.51887   2.54462
 Alpha virt. eigenvalues --    2.57345   2.59362   2.60174   2.62261   2.64731
 Alpha virt. eigenvalues --    2.66751   2.67948   2.71078   2.71697   2.77865
 Alpha virt. eigenvalues --    2.78897   2.82129   2.84111   2.88113   2.89917
 Alpha virt. eigenvalues --    2.98998   3.05650   3.18922   3.22228   3.24432
 Alpha virt. eigenvalues --    3.27748   3.30014   3.32580   3.39646   3.40867
 Alpha virt. eigenvalues --    3.46448   3.47427   3.54384   3.79978   4.11278
 Alpha virt. eigenvalues --    4.18351   4.19027   4.26336   4.32913   4.45085
 Alpha virt. eigenvalues --    4.54781   4.64987   4.75235   8.66671  73.59248
          Condensed to atoms (all electrons):
               1          2          3          4          5          6
     1  Br  35.012053   0.257646  -0.048670  -0.006909   0.000203  -0.000036
     2  C    0.257646   4.966364   0.345901  -0.040982  -0.003456   0.001185
     3  C   -0.048670   0.345901   4.965007   0.357728  -0.044041  -0.001167
     4  C   -0.006909  -0.040982   0.357728   5.031705   0.344198  -0.040253
     5  C    0.000203  -0.003456  -0.044041   0.344198   4.810300   0.487735
     6  C   -0.000036   0.001185  -0.001167  -0.040253   0.487735   4.803568
     7  N   -0.001025  -0.000004  -0.000100   0.006080  -0.014650   0.437413
     8  C    0.001091  -0.000002   0.000022   0.000207  -0.033948  -0.071954
     9  C   -0.000692  -0.000008   0.000048   0.007100  -0.017343  -0.042321
    10  C    0.001169  -0.000767  -0.004119  -0.066614   0.530706  -0.034596
    11  H   -0.039333   0.378593  -0.031472   0.003805   0.000106  -0.000013
    12  H   -0.037047   0.376631  -0.038406  -0.005624  -0.000644   0.000444
    13  H   -0.002127  -0.039100   0.385890  -0.035575  -0.006984   0.000063
    14  H    0.004892  -0.034211   0.361636  -0.032980   0.004805  -0.000059
    15  H   -0.000076  -0.007524  -0.035687   0.374234  -0.034059  -0.005530
    16  H   -0.000125   0.004770  -0.033700   0.372144  -0.031745   0.002072
    17  H    0.000354  -0.000081   0.000082  -0.005323  -0.066376   0.386018
    18  H    0.000004  -0.000000  -0.000000   0.000014   0.000759   0.004558
    19  H   -0.000021   0.000000  -0.000002  -0.000111   0.005059   0.000485
    20  H    0.000103   0.000052   0.000723  -0.009174  -0.050303   0.005585
               7          8          9         10         11         12
     1  Br  -0.001025   0.001091  -0.000692   0.001169  -0.039333  -0.037047
     2  C   -0.000004  -0.000002  -0.000008  -0.000767   0.378593   0.376631
     3  C   -0.000100   0.000022   0.000048  -0.004119  -0.031472  -0.038406
     4  C    0.006080   0.000207   0.007100  -0.066614   0.003805  -0.005624
     5  C   -0.014650  -0.033948  -0.017343   0.530706   0.000106  -0.000644
     6  C    0.437413  -0.071954  -0.042321  -0.034596  -0.000013   0.000444
     7  N    6.731549   0.458195  -0.022766  -0.057517  -0.000000   0.000013
     8  C    0.458195   4.726151   0.501976  -0.037213   0.000000  -0.000001
     9  C   -0.022766   0.501976   4.898384   0.516635  -0.000001  -0.000001
    10  C   -0.057517  -0.037213   0.516635   4.889010   0.000001   0.000043
    11  H   -0.000000   0.000000  -0.000001   0.000001   0.584621  -0.037869
    12  H    0.000013  -0.000001  -0.000001   0.000043  -0.037869   0.587718
    13  H    0.000001  -0.000003  -0.000139   0.003552  -0.001805   0.005137
    14  H    0.000001  -0.000000   0.000004   0.000072  -0.004362   0.000189
    15  H    0.000091   0.000002  -0.000203   0.004649   0.000077   0.004749
    16  H   -0.000171   0.000032  -0.000026  -0.006205  -0.000163   0.000043
    17  H   -0.049743   0.004882   0.000338   0.004256   0.000002   0.000306
    18  H   -0.050469   0.387328  -0.061930   0.003441   0.000000  -0.000000
    19  H    0.004929  -0.035835   0.358306  -0.040356  -0.000000   0.000000
    20  H   -0.000293   0.004890  -0.044662   0.373368   0.000002  -0.000002
              13         14         15         16         17         18
     1  Br  -0.002127   0.004892  -0.000076  -0.000125   0.000354   0.000004
     2  C   -0.039100  -0.034211  -0.007524   0.004770  -0.000081  -0.000000
     3  C    0.385890   0.361636  -0.035687  -0.033700   0.000082  -0.000000
     4  C   -0.035575  -0.032980   0.374234   0.372144  -0.005323   0.000014
     5  C   -0.006984   0.004805  -0.034059  -0.031745  -0.066376   0.000759
     6  C    0.000063  -0.000059  -0.005530   0.002072   0.386018   0.004558
     7  N    0.000001   0.000001   0.000091  -0.000171  -0.049743  -0.050469
     8  C   -0.000003  -0.000000   0.000002   0.000032   0.004882   0.387328
     9  C   -0.000139   0.000004  -0.000203  -0.000026   0.000338  -0.061930
    10  C    0.003552   0.000072   0.004649  -0.006205   0.004256   0.003441
    11  H   -0.001805  -0.004362   0.000077  -0.000163   0.000002   0.000000
    12  H    0.005137   0.000189   0.004749   0.000043   0.000306  -0.000000
    13  H    0.595837  -0.033769   0.005204  -0.002597   0.000010  -0.000000
    14  H   -0.033769   0.633571  -0.002901  -0.004987  -0.000009   0.000000
    15  H    0.005204  -0.002901   0.623608  -0.036640   0.006110  -0.000000
    16  H   -0.002597  -0.004987  -0.036640   0.620174  -0.000043  -0.000000
    17  H    0.000010  -0.000009   0.006110  -0.000043   0.626870  -0.000197
    18  H   -0.000000   0.000000  -0.000000  -0.000000  -0.000197   0.619628
    19  H    0.000004  -0.000000   0.000003  -0.000006   0.000026  -0.002278
    20  H    0.001841  -0.000127   0.000036   0.002921  -0.000180  -0.000195
              19         20
     1  Br  -0.000021   0.000103
     2  C    0.000000   0.000052
     3  C   -0.000002   0.000723
     4  C   -0.000111  -0.009174
     5  C    0.005059  -0.050303
     6  C    0.000485   0.005585
     7  N    0.004929  -0.000293
     8  C   -0.035835   0.004890
     9  C    0.358306  -0.044662
    10  C   -0.040356   0.373368
    11  H   -0.000000   0.000002
    12  H    0.000000  -0.000002
    13  H    0.000004   0.001841
    14  H   -0.000000  -0.000127
    15  H    0.000003   0.000036
    16  H   -0.000006   0.002921
    17  H    0.000026  -0.000180
    18  H   -0.002278  -0.000195
    19  H    0.626794  -0.006590
    20  H   -0.006590   0.633778
 Mulliken charges:
               1
     1  Br  -0.141454
     2  C   -0.205008
     3  C   -0.179673
     4  C   -0.253670
     5  C    0.119676
     6  C    0.066803
     7  N   -0.441535
     8  C    0.094184
     9  C   -0.092698
    10  C   -0.079515
    11  H    0.147810
    12  H    0.144320
    13  H    0.124563
    14  H    0.108234
    15  H    0.103858
    16  H    0.114252
    17  H    0.092698
    18  H    0.099337
    19  H    0.089591
    20  H    0.088227
 Sum of Mulliken charges =  -0.00000
 Mulliken charges with hydrogens summed into heavy atoms:
               1
     1  Br  -0.141454
     2  C    0.087122
     3  C    0.053125
     4  C   -0.035559
     5  C    0.119676
     6  C    0.159501
     7  N   -0.441535
     8  C    0.193520
     9  C   -0.003107
    10  C    0.008711
 Electronic spatial extent (au):  <R**2>=           2080.6412
 Charge=              0.0000 electrons
 Dipole moment (field-independent basis, Debye):
    X=             -1.2604    Y=              3.1190    Z=             -1.5049  Tot=              3.6853
 Quadrupole moment (field-independent basis, Debye-Ang):
   XX=            -71.5725   YY=            -69.2025   ZZ=            -70.6958
   XY=             -4.6064   XZ=             -7.0099   YZ=              2.4804
 Traceless Quadrupole moment (field-independent basis, Debye-Ang):
   XX=             -1.0822   YY=              1.2878   ZZ=             -0.2055
   XY=             -4.6064   XZ=             -7.0099   YZ=              2.4804
 Octapole moment (field-independent basis, Debye-Ang**2):
  XXX=            -62.4437  YYY=            -31.8511  ZZZ=             -7.9441  XYY=            -16.4930
  XXY=             -8.6433  XXZ=            -16.0102  XZZ=            -20.5462  YZZ=             -3.8860
  YYZ=             -4.7429  XYZ=              5.3042
 Hexadecapole moment (field-independent basis, Debye-Ang**3):
 XXXX=          -1547.0960 YYYY=           -672.7828 ZZZZ=           -333.9588 XXXY=             -6.8235
 XXXZ=            -44.6315 YYYX=             41.6760 YYYZ=              5.0178 ZZZX=            -22.1524
 ZZZY=             12.0724 XXYY=           -370.0818 XXZZ=           -332.3823 YYZZ=           -176.2121
 XXYZ=             19.2647 YYXZ=             -3.2476 ZZXY=             23.4063
 N-N= 7.554897807020D+02 E-N=-8.492043324683D+03  KE= 2.917960293572D+03
 Calling FoFJK, ICntrl=      2127 FMM=F ISym2X=0 I1Cent= 0 IOpClX= 0 NMat=1 NMatS=1 NMatT=0.
 ***** Axes restored to original set *****
 -------------------------------------------------------------------
 Center     Atomic                   Forces (Hartrees/Bohr)
 Number     Number              X              Y              Z
 -------------------------------------------------------------------
      1       35           0.004020449   -0.004644190   -0.003326597
      2        6          -0.006262070    0.001050936   -0.010148319
      3        6           0.001732676   -0.005556101    0.005102874
      4        6          -0.005789485    0.006200052    0.006339398
      5        6           0.005898182   -0.003598673   -0.003453213
      6        6          -0.022964417    0.016283329    0.010249663
      7        7           0.000855936    0.006437976   -0.010013276
      8        6           0.018216680   -0.012966903   -0.005592651
      9        6           0.006463617   -0.004630172   -0.001368972
     10        6          -0.002436748   -0.003565708    0.009221794
     11        1          -0.002229541    0.003514187    0.002393437
     12        1          -0.003629482    0.000174603    0.003788785
     13        1          -0.001530110    0.002021370    0.002076403
     14        1           0.005021749   -0.001811680   -0.002683849
     15        1           0.003076448   -0.001514677    0.003045585
     16        1           0.000879368    0.002379905   -0.004932529
     17        1           0.003636254   -0.004043006    0.000025168
     18        1          -0.002886308   -0.000025463    0.003486066
     19        1          -0.002894104    0.002485968    0.000083380
     20        1           0.000820904    0.001808246   -0.004293149
 -------------------------------------------------------------------
 Cartesian Forces:  Max     0.022964417 RMS     0.006324201

 GradGradGradGradGradGradGradGradGradGradGradGradGradGradGradGradGradGrad
 Berny optimization.
 FormGI is forming the generalized inverse of G from B-inverse, IUseBI=4.
 Internal  Forces:  Max     0.018708972 RMS     0.003821291
 Search for a local minimum.
 Step number   1 out of a maximum of  108
 All quantities printed in internal units (Hartrees-Bohrs-Radians)
 Mixed Optimization -- RFO/linear search
 Second derivative matrix not updated -- first step.
 ITU=  0
     Eigenvalues ---    0.00230   0.00230   0.00483   0.01426   0.02101
     Eigenvalues ---    0.02115   0.02137   0.02140   0.02143   0.02178
     Eigenvalues ---    0.02228   0.03089   0.03686   0.04684   0.05221
     Eigenvalues ---    0.05323   0.05646   0.08798   0.09741   0.12574
     Eigenvalues ---    0.13091   0.14411   0.16000   0.16000   0.16000
     Eigenvalues ---    0.16000   0.16000   0.16000   0.21917   0.21930
     Eigenvalues ---    0.22000   0.22222   0.23190   0.23455   0.24999
     Eigenvalues ---    0.28002   0.28344   0.30232   0.34649   0.34654
     Eigenvalues ---    0.34669   0.34714   0.34715   0.34737   0.35923
     Eigenvalues ---    0.35981   0.36007   0.36014   0.42076   0.43644
     Eigenvalues ---    0.45847   0.46095   0.51762   0.52878
 RFO step:  Lambda=-5.43188238D-03 EMin= 2.30000000D-03
 Linear search not attempted -- first point.
 Iteration  1 RMS(Cart)=  0.07999130 RMS(Int)=  0.00197085
 Iteration  2 RMS(Cart)=  0.00262680 RMS(Int)=  0.00015727
 Iteration  3 RMS(Cart)=  0.00000353 RMS(Int)=  0.00015724
 Iteration  4 RMS(Cart)=  0.00000000 RMS(Int)=  0.00015724
 Variable       Old X    -DE/DX   Delta X   Delta X   Delta X     New X
                                 (Linear)    (Quad)   (Total)
    R1        3.76397  -0.00650   0.00000  -0.04348  -0.04348   3.72049
    R2        2.91393  -0.01077   0.00000  -0.03727  -0.03727   2.87666
    R3        2.06140  -0.00081   0.00000  -0.00229  -0.00229   2.05912
    R4        2.06105   0.00013   0.00000   0.00038   0.00038   2.06142
    R5        2.92134  -0.00545   0.00000  -0.01909  -0.01909   2.90225
    R6        2.06216   0.00206   0.00000   0.00584   0.00584   2.06800
    R7        2.06141   0.00525   0.00000   0.01489   0.01489   2.07631
    R8        2.87503  -0.00475   0.00000  -0.01543  -0.01543   2.85960
    R9        2.06241   0.00313   0.00000   0.00890   0.00890   2.07131
   R10        2.06248   0.00364   0.00000   0.01035   0.01035   2.07283
   R11        2.64525  -0.00282   0.00000  -0.00636  -0.00632   2.63894
   R12        2.64457  -0.00535   0.00000  -0.01014  -0.01011   2.63447
   R13        2.56507  -0.01841   0.00000  -0.03546  -0.03545   2.52962
   R14        2.04060   0.00536   0.00000   0.01466   0.01466   2.05525
   R15        2.56409  -0.01871   0.00000  -0.03577  -0.03581   2.52828
   R16        2.63856  -0.00154   0.00000  -0.00314  -0.00319   2.63537
   R17        2.04202   0.00447   0.00000   0.01225   0.01225   2.05428
   R18        2.63893  -0.00605   0.00000  -0.01132  -0.01134   2.62759
   R19        2.04071   0.00375   0.00000   0.01027   0.01027   2.05098
   R20        2.04111   0.00458   0.00000   0.01253   0.01253   2.05364
    A1        1.94316   0.00437   0.00000   0.01011   0.01009   1.95325
    A2        1.85960  -0.00332   0.00000  -0.02206  -0.02208   1.83752
    A3        1.88855  -0.00444   0.00000  -0.04441  -0.04443   1.84411
    A4        1.93403   0.00133   0.00000   0.01933   0.01902   1.95305
    A5        1.95821  -0.00023   0.00000   0.00101   0.00071   1.95892
    A6        1.87614   0.00194   0.00000   0.03440   0.03389   1.91003
    A7        2.01742  -0.00340   0.00000  -0.02146  -0.02178   1.99564
    A8        1.91630   0.00038   0.00000  -0.01531  -0.01585   1.90045
    A9        1.87827  -0.00042   0.00000  -0.00103  -0.00076   1.87751
   A10        1.93299   0.00042   0.00000  -0.00980  -0.01050   1.92249
   A11        1.87003   0.00280   0.00000   0.02939   0.02945   1.89948
   A12        1.83881   0.00063   0.00000   0.02440   0.02442   1.86322
   A13        2.00350  -0.00093   0.00000  -0.00890  -0.00913   1.99437
   A14        1.92188  -0.00070   0.00000  -0.01984  -0.02023   1.90165
   A15        1.90858  -0.00279   0.00000  -0.01625  -0.01620   1.89238
   A16        1.91866  -0.00050   0.00000  -0.01398  -0.01447   1.90420
   A17        1.87157   0.00359   0.00000   0.03838   0.03844   1.91001
   A18        1.83102   0.00164   0.00000   0.02530   0.02521   1.85623
   A19        2.11325   0.00163   0.00000   0.00538   0.00519   2.11844
   A20        2.10904   0.00247   0.00000   0.00867   0.00848   2.11752
   A21        2.06088  -0.00409   0.00000  -0.01385  -0.01388   2.04699
   A22        2.14796   0.00742   0.00000   0.02891   0.02899   2.17694
   A23        2.11389  -0.00459   0.00000  -0.01980  -0.01984   2.09405
   A24        2.02131  -0.00283   0.00000  -0.00912  -0.00916   2.01214
   A25        2.05677  -0.00280   0.00000  -0.01972  -0.01971   2.03706
   A26        2.14425   0.00345   0.00000   0.01249   0.01242   2.15667
   A27        2.02835  -0.00240   0.00000  -0.01029  -0.01028   2.01807
   A28        2.11058  -0.00105   0.00000  -0.00217  -0.00216   2.10842
   A29        2.06884  -0.00062   0.00000   0.00085   0.00081   2.06965
   A30        2.10816  -0.00035   0.00000  -0.00441  -0.00439   2.10377
   A31        2.10618   0.00097   0.00000   0.00357   0.00359   2.10976
   A32        2.08767  -0.00336   0.00000  -0.00869  -0.00865   2.07902
   A33        2.10356   0.00049   0.00000  -0.00282  -0.00284   2.10072
   A34        2.09193   0.00286   0.00000   0.01150   0.01148   2.10340
    D1       -1.39377   0.00208   0.00000   0.08024   0.08012  -1.31365
    D2        0.80796   0.00027   0.00000   0.03668   0.03683   0.84479
    D3        2.80077   0.00098   0.00000   0.05709   0.05705   2.85782
    D4        2.82301   0.00256   0.00000   0.08879   0.08879   2.91180
    D5       -1.25844   0.00074   0.00000   0.04523   0.04550  -1.21294
    D6        0.73436   0.00145   0.00000   0.06564   0.06572   0.80009
    D7        0.72579  -0.00069   0.00000   0.03087   0.03063   0.75643
    D8        2.92753  -0.00250   0.00000  -0.01269  -0.01266   2.91487
    D9       -1.36285  -0.00179   0.00000   0.00772   0.00756  -1.35528
   D10        1.21396  -0.00199   0.00000  -0.07801  -0.07777   1.13620
   D11       -0.96221  -0.00004   0.00000  -0.03628  -0.03623  -0.99843
   D12       -2.96542  -0.00004   0.00000  -0.04646  -0.04635  -3.01177
   D13       -0.97926  -0.00011   0.00000  -0.03116  -0.03110  -1.01036
   D14        3.12776   0.00184   0.00000   0.01057   0.01044   3.13819
   D15        1.12454   0.00184   0.00000   0.00039   0.00032   1.12486
   D16       -2.97607  -0.00263   0.00000  -0.07142  -0.07139  -3.04747
   D17        1.13094  -0.00068   0.00000  -0.02969  -0.02985   1.10108
   D18       -0.87228  -0.00068   0.00000  -0.03986  -0.03998  -0.91225
   D19       -1.93094   0.00051   0.00000   0.03446   0.03449  -1.89645
   D20        1.21846  -0.00009   0.00000   0.00321   0.00302   1.22149
   D21        0.24692  -0.00154   0.00000  -0.01028  -0.01014   0.23679
   D22       -2.88686  -0.00214   0.00000  -0.04154  -0.04160  -2.92846
   D23        2.22818   0.00204   0.00000   0.03284   0.03299   2.26117
   D24       -0.90560   0.00144   0.00000   0.00159   0.00152  -0.90408
   D25       -3.13516  -0.00071   0.00000  -0.03062  -0.03051   3.11752
   D26        0.01571  -0.00065   0.00000  -0.02852  -0.02842  -0.01270
   D27       -0.00116  -0.00010   0.00000  -0.00011  -0.00017  -0.00134
   D28       -3.13348  -0.00004   0.00000   0.00199   0.00192  -3.13156
   D29        3.13818   0.00073   0.00000   0.03176   0.03170  -3.11330
   D30       -0.01097   0.00065   0.00000   0.02931   0.02925   0.01828
   D31        0.00417   0.00012   0.00000   0.00134   0.00140   0.00557
   D32        3.13820   0.00005   0.00000  -0.00111  -0.00106   3.13715
   D33       -0.00281  -0.00005   0.00000  -0.00287  -0.00282  -0.00563
   D34        3.12996  -0.00011   0.00000  -0.00493  -0.00489   3.12507
   D35        0.00386   0.00015   0.00000   0.00474   0.00473   0.00860
   D36       -3.13388  -0.00018   0.00000  -0.00662  -0.00662  -3.14049
   D37       -0.00090  -0.00012   0.00000  -0.00357  -0.00361  -0.00451
   D38       -3.13760  -0.00024   0.00000  -0.00765  -0.00769   3.13789
   D39        3.13667   0.00023   0.00000   0.00829   0.00828  -3.13823
   D40       -0.00004   0.00011   0.00000   0.00421   0.00421   0.00417
   D41       -0.00321  -0.00003   0.00000   0.00035   0.00031  -0.00291
   D42       -3.13730   0.00005   0.00000   0.00284   0.00283  -3.13447
   D43        3.13350   0.00009   0.00000   0.00440   0.00437   3.13787
   D44       -0.00058   0.00017   0.00000   0.00690   0.00690   0.00631
         Item               Value     Threshold  Converged?
 Maximum Force            0.018709     0.000450     NO 
 RMS     Force            0.003821     0.000300     NO 
 Maximum Displacement     0.417598     0.001800     NO 
 RMS     Displacement     0.080140     0.001200     NO 
 Predicted change in Energy=-2.908935D-03
 GradGradGradGradGradGradGradGradGradGradGradGradGradGradGradGradGradGrad

                          Input orientation:                          
 ---------------------------------------------------------------------
 Center     Atomic      Atomic             Coordinates (Angstroms)
 Number     Number       Type             X           Y           Z
 ---------------------------------------------------------------------
      1         35           0        2.967817   -0.507879    2.191484
      2          6           0        3.868635   -1.447131    0.714154
      3          6           0        2.973887   -1.568440   -0.511404
      4          6           0        1.869142   -2.627956   -0.386270
      5          6           0        0.835743   -2.326401    0.677229
      6          6           0        0.776545   -3.061883    1.862841
      7          7           0       -0.090355   -2.836492    2.857619
      8          6           0       -0.950340   -1.825640    2.688500
      9          6           0       -0.985977   -1.026489    1.546162
     10          6           0       -0.078149   -1.284686    0.525102
     11          1           0        4.765002   -0.863314    0.506806
     12          1           0        4.154174   -2.420725    1.114846
     13          1           0        2.534780   -0.589680   -0.727723
     14          1           0        3.615082   -1.823865   -1.366298
     15          1           0        2.329956   -3.599429   -0.173435
     16          1           0        1.372937   -2.728050   -1.359381
     17          1           0        1.475084   -3.878271    2.031405
     18          1           0       -1.645384   -1.657670    3.507302
     19          1           0       -1.707617   -0.220485    1.459313
     20          1           0       -0.073763   -0.677312   -0.376053
 ---------------------------------------------------------------------
                    Distance matrix (angstroms):
                    1          2          3          4          5
     1  Br   0.000000
     2  C    1.968799   0.000000
     3  C    2.903520   1.522263   0.000000
     4  C    3.513777   2.569680   1.535803   0.000000
     5  C    3.185236   3.157992   2.561056   1.513235   0.000000
     6  C    3.381215   3.672591   3.563105   2.537826   1.396464
     7  N    3.901101   4.711514   4.727350   3.795515   2.423211
     8  C    4.163589   5.221479   5.070019   4.248224   2.736068
     9  C    4.039540   4.943323   4.495310   3.801408   2.400725
    10  C    3.557831   3.954648   3.235704   2.535137   1.394099
    11  H    2.488845   1.089637   2.177625   3.506786   4.196277
    12  H    2.495110   1.090859   2.182695   2.741836   3.348491
    13  H    2.952284   2.143222   1.094340   2.171229   2.806567
    14  H    3.848193   2.129437   1.098735   2.157620   3.486154
    15  H    3.944286   2.790652   2.157263   1.096088   2.139370
    16  H    4.481232   3.488383   2.151000   1.096897   2.144220
    17  H    3.689637   3.657141   3.748013   2.750223   2.156583
    18  H    4.933053   6.184691   6.123366   5.334159   3.822631
    19  H    4.741134   5.757995   5.255205   4.689915   3.393408
    20  H    3.983988   4.162172   3.178143   2.753180   2.157800
                    6          7          8          9         10
     6  C    0.000000
     7  N    1.338619   0.000000
     8  C    2.278628   1.337908   0.000000
     9  C    2.711014   2.407939   1.394578   0.000000
    10  C    2.382955   2.801586   2.394502   1.390461   0.000000
    11  H    4.751876   5.744062   6.192819   5.846422   4.861482
    12  H    3.518374   4.607184   5.374624   5.343322   4.421645
    13  H    3.989261   4.979375   5.034307   4.213916   2.979934
    14  H    4.474072   5.709391   6.106102   5.503452   4.184265
    15  H    2.616957   3.953134   4.700782   4.535686   3.412472
    16  H    3.293909   4.464982   4.753662   4.111200   2.782126
    17  H    1.087594   2.053906   3.244650   3.798018   3.377597
    18  H    3.246815   2.056654   1.087076   2.163163   3.389521
    19  H    3.795713   3.378504   2.158910   1.085334   2.158805
    20  H    3.379623   3.888312   3.387999   2.156148   1.086740
                   11         12         13         14         15
    11  H    0.000000
    12  H    1.779987   0.000000
    13  H    2.563752   3.061082   0.000000
    14  H    2.398644   2.608244   1.760126   0.000000
    15  H    3.725386   2.525229   3.067211   2.495416   0.000000
    16  H    4.297209   3.735175   2.514260   2.417605   1.755465
    17  H    4.715711   3.184658   4.421603   4.510495   2.381151
    18  H    7.122291   6.319887   6.045644   7.173012   5.755135
    19  H    6.573834   6.270591   4.787209   6.235867   5.512271
    20  H    4.922162   4.810169   2.633600   3.987825   3.789154
                   16         17         18         19         20
    16  H    0.000000
    17  H    3.582020   0.000000
    18  H    5.825854   4.104468   0.000000
    19  H    4.870598   4.882241   2.502725   0.000000
    20  H    2.695441   4.294289   4.302504   2.499348   0.000000
 Stoichiometry    C8H10BrN
 Framework group  C1[X(C8H10BrN)]
 Deg. of freedom    54
 Full point group                 C1      NOp   1
 Largest Abelian subgroup         C1      NOp   1
 Largest concise Abelian subgroup C1      NOp   1
                         Standard orientation:                         
 ---------------------------------------------------------------------
 Center     Atomic      Atomic             Coordinates (Angstroms)
 Number     Number       Type             X           Y           Z
 ---------------------------------------------------------------------
      1         35           0       -1.339092   -1.139140   -0.103395
      2          6           0       -2.186579    0.582311    0.337676
      3          6           0       -1.501942    1.748282   -0.361656
      4          6           0       -0.151523    2.148893    0.250367
      5          6           0        0.923467    1.090468    0.131987
      6          6           0        1.365646    0.375315    1.246952
      7          7           0        2.291311   -0.591137    1.215110
      8          6           0        2.814830   -0.883377    0.019065
      9          6           0        2.453015   -0.233574   -1.160636
     10          6           0        1.492844    0.770281   -1.099598
     11          1           0       -3.226566    0.477662    0.029806
     12          1           0       -2.136263    0.665453    1.424197
     13          1           0       -1.377785    1.502619   -1.420814
     14          1           0       -2.182443    2.609595   -0.313938
     15          1           0       -0.298808    2.393795    1.308544
     16          1           0        0.189373    3.071295   -0.235583
     17          1           0        0.944214    0.582823    2.227867
     18          1           0        3.563785   -1.671266    0.013463
     19          1           0        2.912369   -0.508382   -2.104789
     20          1           0        1.182602    1.292672   -2.000632
 ---------------------------------------------------------------------
 Rotational constants (GHZ):           1.4192628           0.7563749           0.6044384
 Standard basis: 6-31G(d,p) (6D, 7F)
 There are   215 symmetry adapted cartesian basis functions of A   symmetry.
 There are   215 symmetry adapted basis functions of A   symmetry.
   215 basis functions,   405 primitive gaussians,   215 cartesian basis functions
    50 alpha electrons       50 beta electrons
       nuclear repulsion energy       774.3511618525 Hartrees.
 NAtoms=   20 NActive=   20 NUniq=   20 SFac= 1.00D+00 NAtFMM=   60 NAOKFM=F Big=F
 Integral buffers will be    131072 words long.
 Raffenetti 2 integral format.
 Two-electron integral symmetry is turned on.
 Nuclear repulsion after empirical dispersion term =      774.3091265838 Hartrees.
 One-electron integrals computed using PRISM.
 NBasis=   215 RedAO= T EigKep=  7.06D-04  NBF=   215
 NBsUse=   215 1.00D-06 EigRej= -1.00D+00 NBFU=   215
 Initial guess from the checkpoint file:  "pyrd10_conf-12.chk"
 B after Tr=    -0.000000   -0.000000    0.000000
         Rot=    0.999402   -0.002745    0.001905   -0.034421 Ang=  -3.96 deg.
 ExpMin= 1.43D-01 ExpMax= 5.74D+05 ExpMxC= 5.74D+03 IAcc=3 IRadAn=         5 AccDes= 0.00D+00
 Harris functional with IExCor=  402 and IRadAn=       5 diagonalized for initial guess.
 HarFok:  IExCor=  402 AccDes= 0.00D+00 IRadAn=         5 IDoV= 1 UseB2=F ITyADJ=14
 ICtDFT=  3500011 ScaDFX=  1.000000  1.000000  1.000000  1.000000
 FoFCou: FMM=F IPFlag=           0 FMFlag=      100000 FMFlg1=           0
         NFxFlg=           0 DoJE=T BraDBF=F KetDBF=T FulRan=T
         wScrn=  0.000000 ICntrl=       500 IOpCl=  0 I1Cent=   200000004 NGrid=           0
         NMat0=    1 NMatS0=      1 NMatT0=    0 NMatD0=    1 NMtDS0=    0 NMtDT0=    0
 Petite list used in FoFCou.
 Requested convergence on RMS density matrix=1.00D-08 within 128 cycles.
 Requested convergence on MAX density matrix=1.00D-06.
 Requested convergence on             energy=1.00D-06.
 No special actions if energy rises.
 Integral accuracy reduced to 1.0D-05 until final iterations.
 Initial convergence to 1.0D-05 achieved.  Increase integral accuracy.
 SCF Done:  E(RB3LYP) =  -2937.38583468     A.U. after   14 cycles
            NFock= 14  Conv=0.41D-08     -V/T= 2.0066
 Calling FoFJK, ICntrl=      2127 FMM=F ISym2X=0 I1Cent= 0 IOpClX= 0 NMat=1 NMatS=1 NMatT=0.
 ***** Axes restored to original set *****
 -------------------------------------------------------------------
 Center     Atomic                   Forces (Hartrees/Bohr)
 Number     Number              X              Y              Z
 -------------------------------------------------------------------
      1       35           0.002259725    0.004107638    0.004447027
      2        6           0.000946625   -0.001040553   -0.002706972
      3        6           0.001246786    0.000778644    0.000451242
      4        6          -0.002606442   -0.001495597    0.001134456
      5        6           0.001323697   -0.002486727   -0.004008150
      6        6          -0.002225255   -0.001767264    0.003235180
      7        7           0.001366738    0.000882485   -0.003687065
      8        6          -0.000056805   -0.000745369    0.002112327
      9        6          -0.000366296    0.001058107   -0.000922135
     10        6          -0.002090889    0.000483874    0.000585333
     11        1          -0.000525463    0.000141829    0.000448960
     12        1           0.000211688    0.000095097    0.000049366
     13        1           0.000150345    0.000582226   -0.000802756
     14        1          -0.000127843   -0.000548553    0.000486087
     15        1           0.000285017   -0.000331847   -0.000137160
     16        1           0.000066210    0.000328942    0.000236433
     17        1           0.001254667   -0.000937175   -0.001265971
     18        1          -0.000936647    0.001193140   -0.000002290
     19        1          -0.000132266   -0.000184907    0.000560020
     20        1          -0.000043592   -0.000113991   -0.000213935
 -------------------------------------------------------------------
 Cartesian Forces:  Max     0.004447027 RMS     0.001548520

 GradGradGradGradGradGradGradGradGradGradGradGradGradGradGradGradGradGrad
 Berny optimization.
 Using GEDIIS/GDIIS optimizer.
 FormGI is forming the generalized inverse of G from B-inverse, IUseBI=4.
 Internal  Forces:  Max     0.010945095 RMS     0.002438219
 Search for a local minimum.
 Step number   2 out of a maximum of  108
 All quantities printed in internal units (Hartrees-Bohrs-Radians)
 Mixed Optimization -- RFO/linear search
 Update second derivatives using D2CorX and points    1    2
 DE= -1.99D-03 DEPred=-2.91D-03 R= 6.83D-01
 TightC=F SS=  1.41D+00  RLast= 2.69D-01 DXNew= 5.0454D-01 8.0738D-01
 Trust test= 6.83D-01 RLast= 2.69D-01 DXMaxT set to 5.05D-01
 ITU=  1  0
 Use linear search instead of GDIIS.
     Eigenvalues ---    0.00229   0.00270   0.00484   0.01435   0.02069
     Eigenvalues ---    0.02116   0.02137   0.02139   0.02143   0.02178
     Eigenvalues ---    0.02227   0.03431   0.03914   0.04777   0.05237
     Eigenvalues ---    0.05325   0.06006   0.08490   0.09300   0.12382
     Eigenvalues ---    0.12751   0.14334   0.15755   0.15999   0.16000
     Eigenvalues ---    0.16000   0.16000   0.16080   0.18683   0.21971
     Eigenvalues ---    0.22006   0.22400   0.23394   0.24962   0.25277
     Eigenvalues ---    0.28013   0.29984   0.32502   0.34629   0.34660
     Eigenvalues ---    0.34674   0.34710   0.34737   0.35250   0.35902
     Eigenvalues ---    0.35965   0.35994   0.36959   0.42003   0.43626
     Eigenvalues ---    0.45844   0.46180   0.51188   0.53437
 RFO step:  Lambda=-2.64966256D-03 EMin= 2.28502875D-03
 Quartic linear search produced a step of -0.22349.
 Iteration  1 RMS(Cart)=  0.08409232 RMS(Int)=  0.00535173
 Iteration  2 RMS(Cart)=  0.00560980 RMS(Int)=  0.00010530
 Iteration  3 RMS(Cart)=  0.00001930 RMS(Int)=  0.00010451
 Iteration  4 RMS(Cart)=  0.00000000 RMS(Int)=  0.00010451
 Variable       Old X    -DE/DX   Delta X   Delta X   Delta X     New X
                                 (Linear)    (Quad)   (Total)
    R1        3.72049   0.00426   0.00972  -0.01167  -0.00195   3.71854
    R2        2.87666   0.00377   0.00833  -0.01905  -0.01072   2.86594
    R3        2.05912  -0.00044   0.00051  -0.00280  -0.00228   2.05683
    R4        2.06142  -0.00001  -0.00008   0.00027   0.00019   2.06161
    R5        2.90225   0.00564   0.00427   0.00064   0.00490   2.90715
    R6        2.06800   0.00062  -0.00131   0.00600   0.00469   2.07269
    R7        2.07631  -0.00033  -0.00333   0.01101   0.00768   2.08399
    R8        2.85960  -0.00176   0.00345  -0.01670  -0.01325   2.84635
    R9        2.07131   0.00039  -0.00199   0.00789   0.00590   2.07720
   R10        2.07283  -0.00027  -0.00231   0.00755   0.00524   2.07807
   R11        2.63894   0.00071   0.00141  -0.00376  -0.00237   2.63657
   R12        2.63447   0.00247   0.00226  -0.00366  -0.00142   2.63305
   R13        2.52962  -0.00138   0.00792  -0.02997  -0.02205   2.50758
   R14        2.05525   0.00131  -0.00328   0.01440   0.01112   2.06637
   R15        2.52828   0.00090   0.00800  -0.02690  -0.01889   2.50939
   R16        2.63537   0.00037   0.00071  -0.00189  -0.00116   2.63421
   R17        2.05428   0.00078  -0.00274   0.01135   0.00861   2.06289
   R18        2.62759   0.00041   0.00253  -0.00815  -0.00562   2.62197
   R19        2.05098  -0.00009  -0.00230   0.00789   0.00559   2.05658
   R20        2.05364   0.00011  -0.00280   0.01012   0.00732   2.06096
    A1        1.95325   0.01041  -0.00225   0.04656   0.04424   1.99749
    A2        1.83752  -0.00540   0.00494  -0.04780  -0.04265   1.79487
    A3        1.84411  -0.00253   0.00993  -0.02561  -0.01600   1.82812
    A4        1.95305  -0.00220  -0.00425  -0.00192  -0.00599   1.94707
    A5        1.95892  -0.00082  -0.00016   0.00422   0.00395   1.96287
    A6        1.91003   0.00024  -0.00757   0.02052   0.01307   1.92310
    A7        1.99564   0.01095   0.00487   0.02553   0.03032   2.02596
    A8        1.90045  -0.00298   0.00354  -0.00397  -0.00082   1.89963
    A9        1.87751  -0.00367   0.00017  -0.02884  -0.02855   1.84896
   A10        1.92249  -0.00179   0.00235   0.00659   0.00877   1.93126
   A11        1.89948  -0.00469  -0.00658  -0.01222  -0.01851   1.88098
   A12        1.86322   0.00161  -0.00546   0.01141   0.00594   1.86917
   A13        1.99437   0.00860   0.00204   0.02554   0.02771   2.02208
   A14        1.90165  -0.00219   0.00452  -0.01797  -0.01342   1.88823
   A15        1.89238  -0.00291   0.00362  -0.02821  -0.02475   1.86763
   A16        1.90420  -0.00216   0.00323  -0.01086  -0.00741   1.89679
   A17        1.91001  -0.00296  -0.00859   0.01573   0.00730   1.91731
   A18        1.85623   0.00115  -0.00563   0.01521   0.00939   1.86561
   A19        2.11844  -0.00104  -0.00116   0.00073  -0.00037   2.11807
   A20        2.11752   0.00148  -0.00190   0.01116   0.00933   2.12685
   A21        2.04699  -0.00044   0.00310  -0.01210  -0.00903   2.03796
   A22        2.17694  -0.00093  -0.00648   0.01960   0.01306   2.19001
   A23        2.09405  -0.00107   0.00443  -0.02146  -0.01700   2.07705
   A24        2.01214   0.00199   0.00205   0.00181   0.00388   2.01603
   A25        2.03706   0.00211   0.00440  -0.00926  -0.00489   2.03217
   A26        2.15667  -0.00090  -0.00278   0.00659   0.00377   2.16044
   A27        2.01807   0.00178   0.00230  -0.00014   0.00214   2.02021
   A28        2.10842  -0.00088   0.00048  -0.00655  -0.00608   2.10234
   A29        2.06965  -0.00039  -0.00018  -0.00048  -0.00069   2.06896
   A30        2.10377  -0.00041   0.00098  -0.00588  -0.00488   2.09889
   A31        2.10976   0.00081  -0.00080   0.00635   0.00557   2.11533
   A32        2.07902   0.00054   0.00193  -0.00451  -0.00264   2.07637
   A33        2.10072  -0.00038   0.00064  -0.00399  -0.00334   2.09738
   A34        2.10340  -0.00016  -0.00256   0.00841   0.00586   2.10927
    D1       -1.31365  -0.00410  -0.01791  -0.13026  -0.14836  -1.46201
    D2        0.84479  -0.00095  -0.00823  -0.10651  -0.11491   0.72988
    D3        2.85782  -0.00253  -0.01275  -0.11039  -0.12319   2.73463
    D4        2.91180  -0.00274  -0.01984  -0.09946  -0.11933   2.79247
    D5       -1.21294   0.00041  -0.01017  -0.07571  -0.08588  -1.29882
    D6        0.80009  -0.00117  -0.01469  -0.07959  -0.09416   0.70593
    D7        0.75643  -0.00077  -0.00685  -0.12820  -0.13500   0.62143
    D8        2.91487   0.00239   0.00283  -0.10446  -0.10155   2.81332
    D9       -1.35528   0.00081  -0.00169  -0.10833  -0.10983  -1.46511
   D10        1.13620   0.00194   0.01738   0.00194   0.01944   1.15564
   D11       -0.99843   0.00044   0.00810   0.01186   0.02017  -0.97827
   D12       -3.01177   0.00180   0.01036   0.01859   0.02891  -2.98286
   D13       -1.01036  -0.00073   0.00695  -0.01661  -0.00975  -1.02011
   D14        3.13819  -0.00224  -0.00233  -0.00669  -0.00902   3.12917
   D15        1.12486  -0.00087  -0.00007   0.00004  -0.00028   1.12457
   D16       -3.04747   0.00107   0.01596  -0.02699  -0.01100  -3.05847
   D17        1.10108  -0.00044   0.00667  -0.01708  -0.01027   1.09081
   D18       -0.91225   0.00093   0.00893  -0.01035  -0.00153  -0.91379
   D19       -1.89645  -0.00098  -0.00771  -0.02014  -0.02777  -1.92422
   D20        1.22149  -0.00062  -0.00068  -0.03073  -0.03132   1.19017
   D21        0.23679   0.00052   0.00227  -0.03392  -0.03165   0.20514
   D22       -2.92846   0.00088   0.00930  -0.04451  -0.03519  -2.96366
   D23        2.26117  -0.00096  -0.00737  -0.01303  -0.02051   2.24066
   D24       -0.90408  -0.00060  -0.00034  -0.02362  -0.02406  -0.92814
   D25        3.11752  -0.00019   0.00682  -0.03070  -0.02395   3.09357
   D26       -0.01270  -0.00010   0.00635  -0.02522  -0.01891  -0.03161
   D27       -0.00134  -0.00057   0.00004  -0.02082  -0.02081  -0.02214
   D28       -3.13156  -0.00047  -0.00043  -0.01534  -0.01577   3.13586
   D29       -3.11330   0.00024  -0.00709   0.03236   0.02521  -3.08809
   D30        0.01828   0.00001  -0.00654   0.02230   0.01573   0.03401
   D31        0.00557   0.00058  -0.00031   0.02234   0.02192   0.02749
   D32        3.13715   0.00035   0.00024   0.01227   0.01244  -3.13360
   D33       -0.00563   0.00011   0.00063   0.00227   0.00294  -0.00269
   D34        3.12507   0.00001   0.00109  -0.00312  -0.00207   3.12300
   D35        0.00860   0.00032  -0.00106   0.01488   0.01388   0.02247
   D36       -3.14049   0.00014   0.00148  -0.00119   0.00026  -3.14023
   D37       -0.00451  -0.00027   0.00081  -0.01248  -0.01167  -0.01618
   D38        3.13789  -0.00021   0.00172  -0.01419  -0.01252   3.12538
   D39       -3.13823  -0.00009  -0.00185   0.00436   0.00252  -3.13572
   D40        0.00417  -0.00002  -0.00094   0.00265   0.00167   0.00585
   D41       -0.00291  -0.00020  -0.00007  -0.00724  -0.00740  -0.01030
   D42       -3.13447   0.00004  -0.00063   0.00291   0.00221  -3.13226
   D43        3.13787  -0.00026  -0.00098  -0.00553  -0.00655   3.13132
   D44        0.00631  -0.00003  -0.00154   0.00462   0.00305   0.00936
         Item               Value     Threshold  Converged?
 Maximum Force            0.010945     0.000450     NO 
 RMS     Force            0.002438     0.000300     NO 
 Maximum Displacement     0.484054     0.001800     NO 
 RMS     Displacement     0.085155     0.001200     NO 
 Predicted change in Energy=-1.775546D-03
 GradGradGradGradGradGradGradGradGradGradGradGradGradGradGradGradGradGrad

                          Input orientation:                          
 ---------------------------------------------------------------------
 Center     Atomic      Atomic             Coordinates (Angstroms)
 Number     Number       Type             X           Y           Z
 ---------------------------------------------------------------------
      1         35           0        3.211433   -0.251729    2.126471
      2          6           0        3.899398   -1.420892    0.701037
      3          6           0        2.975496   -1.565221   -0.492953
      4          6           0        1.862536   -2.619352   -0.363353
      5          6           0        0.808518   -2.337512    0.675070
      6          6           0        0.715175   -3.099364    1.840183
      7          7           0       -0.144466   -2.891560    2.829443
      8          6           0       -0.976649   -1.867020    2.684036
      9          6           0       -1.002521   -1.042895    1.560077
     10          6           0       -0.097828   -1.288261    0.537120
     11          1           0        4.836656   -0.940837    0.425772
     12          1           0        4.095299   -2.374114    1.194166
     13          1           0        2.551591   -0.582670   -0.733615
     14          1           0        3.618602   -1.857105   -1.339937
     15          1           0        2.331399   -3.587064   -0.135408
     16          1           0        1.394557   -2.716429   -1.353727
     17          1           0        1.405155   -3.935441    1.983707
     18          1           0       -1.677978   -1.705508    3.504840
     19          1           0       -1.719949   -0.227179    1.494589
     20          1           0       -0.079222   -0.661648   -0.355318
 ---------------------------------------------------------------------
                    Distance matrix (angstroms):
                    1          2          3          4          5
     1  Br   0.000000
     2  C    1.967765   0.000000
     3  C    2.939781   1.516588   0.000000
     4  C    3.691123   2.591918   1.538398   0.000000
     5  C    3.497293   3.224036   2.580020   1.506224   0.000000
     6  C    3.797669   3.775473   3.592516   2.530300   1.395213
     7  N    4.327232   4.800606   4.746752   3.781018   2.420014
     8  C    4.523282   5.282722   5.079743   4.232440   2.728392
     9  C    4.324830   4.990956   4.506925   3.793857   2.395648
    10  C    3.814662   4.002784   3.253164   2.534892   1.393349
    11  H    2.451243   1.088428   2.167447   3.505071   4.270684
    12  H    2.480914   1.090957   2.180514   2.733357   3.327722
    13  H    2.953812   2.139492   1.096823   2.181734   2.846431
    14  H    3.841745   2.105873   1.102798   2.149071   3.491077
    15  H    4.124927   2.801886   2.151871   1.099208   2.130123
    16  H    4.635468   3.489226   2.136722   1.099668   2.145470
    17  H    4.105211   3.766889   3.770645   2.729465   2.149857
    18  H    5.283911   6.248955   6.136517   5.322899   3.819644
    19  H    4.971761   5.799287   5.271421   4.691336   3.393856
    20  H    4.141947   4.185900   3.188524   2.757370   2.158310
                    6          7          8          9         10
     6  C    0.000000
     7  N    1.326952   0.000000
     8  C    2.256774   1.327914   0.000000
     9  C    2.694069   2.401065   1.393964   0.000000
    10  C    2.374666   2.797765   2.390927   1.387485   0.000000
    11  H    4.862756   5.864685   6.304925   5.949206   4.947952
    12  H    3.516897   4.573564   5.310510   5.281459   4.380994
    13  H    4.041115   5.029421   5.077240   4.254943   3.021928
    14  H    4.481769   5.710911   6.108092   5.516139   4.202235
    15  H    2.598652   3.924790   4.674505   4.523548   3.411442
    16  H    3.287744   4.460738   4.758954   4.127585   2.800390
    17  H    1.093478   2.050922   3.231379   3.787240   3.370331
    18  H    3.231269   2.052934   1.091635   2.162730   3.387968
    19  H    3.781363   3.370891   2.157859   1.088294   2.161924
    20  H    3.375463   3.888376   3.390571   2.160224   1.090613
                   11         12         13         14         15
    11  H    0.000000
    12  H    1.787267   0.000000
    13  H    2.587273   3.051008   0.000000
    14  H    2.332580   2.629870   1.769272   0.000000
    15  H    3.686971   2.519992   3.071273   2.469927   0.000000
    16  H    4.262322   3.728666   2.505234   2.384324   1.766346
    17  H    4.813524   3.209049   4.465336   4.501715   2.338791
    18  H    7.246090   6.254357   6.092168   7.179735   5.732954
    19  H    6.681372   6.206182   4.830871   6.260297   5.509912
    20  H    4.985369   4.770752   2.659045   4.009051   3.797040
                   16         17         18         19         20
    16  H    0.000000
    17  H    3.553107   0.000000
    18  H    5.836789   4.097822   0.000000
    19  H    4.899941   4.874086   2.495661   0.000000
    20  H    2.718634   4.288605   4.306563   2.510558   0.000000
 Stoichiometry    C8H10BrN
 Framework group  C1[X(C8H10BrN)]
 Deg. of freedom    54
 Full point group                 C1      NOp   1
 Largest Abelian subgroup         C1      NOp   1
 Largest concise Abelian subgroup C1      NOp   1
                         Standard orientation:                         
 ---------------------------------------------------------------------
 Center     Atomic      Atomic             Coordinates (Angstroms)
 Number     Number       Type             X           Y           Z
 ---------------------------------------------------------------------
      1         35           0       -1.663662   -1.048489   -0.058342
      2          6           0       -2.047761    0.824856    0.405499
      3          6           0       -1.255349    1.843764   -0.390711
      4          6           0        0.158931    2.155854    0.128018
      5          6           0        1.150683    1.024715    0.052769
      6          6           0        1.616454    0.389708    1.204482
      7          7           0        2.447180   -0.644691    1.231177
      8          6           0        2.857871   -1.103577    0.054695
      9          6           0        2.486173   -0.545782   -1.167533
     10          6           0        1.622891    0.540429   -1.165388
     11          1           0       -3.115468    0.908090    0.211205
     12          1           0       -1.853856    0.890926    1.477051
     13          1           0       -1.221061    1.524717   -1.439545
     14          1           0       -1.840714    2.777696   -0.354928
     15          1           0        0.076287    2.482545    1.174298
     16          1           0        0.529817    3.016613   -0.447140
     17          1           0        1.273650    0.743706    2.180630
     18          1           0        3.539744   -1.955337    0.089665
     19          1           0        2.869436   -0.959467   -2.098316
     20          1           0        1.300731    1.000651   -2.100185
 ---------------------------------------------------------------------
 Rotational constants (GHZ):           1.4123136           0.6632699           0.5438349
 Standard basis: 6-31G(d,p) (6D, 7F)
 There are   215 symmetry adapted cartesian basis functions of A   symmetry.
 There are   215 symmetry adapted basis functions of A   symmetry.
   215 basis functions,   405 primitive gaussians,   215 cartesian basis functions
    50 alpha electrons       50 beta electrons
       nuclear repulsion energy       754.9335346301 Hartrees.
 NAtoms=   20 NActive=   20 NUniq=   20 SFac= 1.00D+00 NAtFMM=   60 NAOKFM=F Big=F
 Integral buffers will be    131072 words long.
 Raffenetti 2 integral format.
 Two-electron integral symmetry is turned on.
 Nuclear repulsion after empirical dispersion term =      754.8931713838 Hartrees.
 One-electron integrals computed using PRISM.
 NBasis=   215 RedAO= T EigKep=  7.17D-04  NBF=   215
 NBsUse=   215 1.00D-06 EigRej= -1.00D+00 NBFU=   215
 Initial guess from the checkpoint file:  "pyrd10_conf-12.chk"
 B after Tr=     0.000000   -0.000000   -0.000000
         Rot=    0.998067    0.028387   -0.011219    0.054142 Ang=   7.13 deg.
 ExpMin= 1.43D-01 ExpMax= 5.74D+05 ExpMxC= 5.74D+03 IAcc=3 IRadAn=         5 AccDes= 0.00D+00
 Harris functional with IExCor=  402 and IRadAn=       5 diagonalized for initial guess.
 HarFok:  IExCor=  402 AccDes= 0.00D+00 IRadAn=         5 IDoV= 1 UseB2=F ITyADJ=14
 ICtDFT=  3500011 ScaDFX=  1.000000  1.000000  1.000000  1.000000
 FoFCou: FMM=F IPFlag=           0 FMFlag=      100000 FMFlg1=           0
         NFxFlg=           0 DoJE=T BraDBF=F KetDBF=T FulRan=T
         wScrn=  0.000000 ICntrl=       500 IOpCl=  0 I1Cent=   200000004 NGrid=           0
         NMat0=    1 NMatS0=      1 NMatT0=    0 NMatD0=    1 NMtDS0=    0 NMtDT0=    0
 Petite list used in FoFCou.
 Requested convergence on RMS density matrix=1.00D-08 within 128 cycles.
 Requested convergence on MAX density matrix=1.00D-06.
 Requested convergence on             energy=1.00D-06.
 No special actions if energy rises.
 Integral accuracy reduced to 1.0D-05 until final iterations.
 Initial convergence to 1.0D-05 achieved.  Increase integral accuracy.
 SCF Done:  E(RB3LYP) =  -2937.38502813     A.U. after   14 cycles
            NFock= 14  Conv=0.54D-08     -V/T= 2.0066
 Calling FoFJK, ICntrl=      2127 FMM=F ISym2X=0 I1Cent= 0 IOpClX= 0 NMat=1 NMatS=1 NMatT=0.
 ***** Axes restored to original set *****
 -------------------------------------------------------------------
 Center     Atomic                   Forces (Hartrees/Bohr)
 Number     Number              X              Y              Z
 -------------------------------------------------------------------
      1       35          -0.005873616    0.001269124    0.002722643
      2        6           0.003729118   -0.001619670    0.002412890
      3        6           0.000292019    0.002486894   -0.002876184
      4        6           0.001228953   -0.003566497   -0.001770871
      5        6           0.002261491    0.001986404   -0.000867769
      6        6           0.013214822   -0.008767210   -0.002642791
      7        7          -0.000082514   -0.002366800    0.003975622
      8        6          -0.010981458    0.005628881    0.005130701
      9        6          -0.003834874    0.003713979   -0.000118949
     10        6           0.000317863    0.004291980   -0.003343396
     11        1           0.000869615   -0.002147220   -0.000987516
     12        1           0.001449532    0.000018028   -0.001157458
     13        1           0.000512109   -0.001304867   -0.001287567
     14        1          -0.002876060    0.001067969    0.001002201
     15        1          -0.001135414    0.000755829   -0.001669615
     16        1          -0.000052331   -0.001007211    0.002147299
     17        1          -0.001013075    0.001196681   -0.001131688
     18        1           0.001016641    0.001130596   -0.001875238
     19        1           0.001419318   -0.001628397    0.000247643
     20        1          -0.000462140   -0.001138493    0.002090043
 -------------------------------------------------------------------
 Cartesian Forces:  Max     0.013214822 RMS     0.003362978

 GradGradGradGradGradGradGradGradGradGradGradGradGradGradGradGradGradGrad
 Berny optimization.
 Using GEDIIS/GDIIS optimizer.
 FormGI is forming the generalized inverse of G from B-inverse, IUseBI=4.
 Internal  Forces:  Max     0.011007733 RMS     0.002942477
 Search for a local minimum.
 Step number   3 out of a maximum of  108
 All quantities printed in internal units (Hartrees-Bohrs-Radians)
 Mixed Optimization -- RFO/linear search
 Update second derivatives using D2CorX and points    1    3    2
[...]

 **********************************************************************

 Orbital symmetries:
       Occupied  (A) (A) (A) (A) (A) (A) (A) (A) (A) (A) (A) (A)
                 (A) (A) (A) (A) (A) (A) (A) (A) (A) (A) (A) (A)
                 (A) (A) (A) (A) (A) (A) (A) (A) (A) (A) (A) (A)
                 (A) (A) (A) (A) (A) (A) (A) (A) (A) (A) (A) (A)
                 (A) (A)
       Virtual   (A) (A) (A) (A) (A) (A) (A) (A) (A) (A) (A) (A)
                 (A) (A) (A) (A) (A) (A) (A) (A) (A) (A) (A) (A)
                 (A) (A) (A) (A) (A) (A) (A) (A) (A) (A) (A) (A)
                 (A) (A) (A) (A) (A) (A) (A) (A) (A) (A) (A) (A)
                 (A) (A) (A) (A) (A) (A) (A) (A) (A) (A) (A) (A)
                 (A) (A) (A) (A) (A) (A) (A) (A) (A) (A) (A) (A)
                 (A) (A) (A) (A) (A) (A) (A) (A) (A) (A) (A) (A)
                 (A) (A) (A) (A) (A) (A) (A) (A) (A) (A) (A) (A)
                 (A) (A) (A) (A) (A) (A) (A) (A) (A) (A) (A) (A)
                 (A) (A) (A) (A) (A) (A) (A) (A) (A) (A) (A) (A)
                 (A) (A) (A) (A) (A) (A) (A) (A) (A) (A) (A) (A)
                 (A) (A) (A) (A) (A) (A) (A) (A) (A) (A) (A) (A)
                 (A) (A) (A) (A) (A) (A) (A) (A) (A) (A) (A) (A)
                 (A) (A) (A) (A) (A) (A) (A) (A) (A) (A) (A) (A)
                 (A) (A) (A) (A) (A) (A) (A) (A) (A) (A) (A) (A)
                 (A) (A) (A) (A) (A) (A) (A) (A) (A) (A) (A) (A)
                 (A) (A) (A) (A) (A) (A) (A) (A) (A) (A) (A) (A)
                 (A) (A) (A) (A) (A) (A) (A) (A) (A) (A) (A) (A)
                 (A) (A) (A) (A) (A) (A) (A) (A) (A) (A) (A) (A)
                 (A) (A) (A) (A) (A) (A) (A) (A) (A) (A) (A) (A)
                 (A) (A) (A) (A) (A) (A) (A) (A) (A) (A) (A) (A)
                 (A) (A) (A) (A) (A) (A) (A) (A) (A) (A) (A) (A)
                 (A) (A) (A) (A) (A) (A) (A) (A) (A) (A) (A) (A)
                 (A) (A) (A) (A) (A) (A) (A) (A) (A) (A) (A) (A)
                 (A) (A) (A) (A) (A) (A) (A) (A) (A) (A) (A) (A)
                 (A) (A) (A) (A) (A) (A) (A) (A) (A) (A) (A) (A)
                 (A) (A) (A) (A) (A) (A) (A) (A) (A) (A) (A) (A)
                 (A) (A) (A) (A) (A) (A) (A) (A) (A) (A) (A) (A)
                 (A)
 The electronic state is 1-A.
 Alpha  occ. eigenvalues -- -485.35661 -63.34152 -57.16098 -57.15858 -57.15852
 Alpha  occ. eigenvalues --  -14.74521 -10.59989 -10.57211 -10.57147 -10.56075
 Alpha  occ. eigenvalues --  -10.55747 -10.55638 -10.55599 -10.54908  -9.00780
 Alpha  occ. eigenvalues --   -6.83186  -6.82312  -6.82288  -2.86552  -2.86245
 Alpha  occ. eigenvalues --   -2.86223  -2.85407  -2.85406  -1.04833  -0.94020
 Alpha  occ. eigenvalues --   -0.90269  -0.87230  -0.83737  -0.77153  -0.71640
 Alpha  occ. eigenvalues --   -0.70520  -0.66866  -0.59700  -0.56603  -0.55023
 Alpha  occ. eigenvalues --   -0.54183  -0.51134  -0.49502  -0.47338  -0.47010
 Alpha  occ. eigenvalues --   -0.46798  -0.44190  -0.42584  -0.42025  -0.39942
 Alpha  occ. eigenvalues --   -0.34888  -0.33561  -0.32768  -0.32072  -0.30007
 Alpha virt. eigenvalues --    0.00107   0.01640   0.02999   0.06102   0.07952
 Alpha virt. eigenvalues --    0.09103   0.10005   0.11239   0.12040   0.13120
 Alpha virt. eigenvalues --    0.13809   0.14377   0.15644   0.16002   0.17382
 Alpha virt. eigenvalues --    0.18544   0.19864   0.21797   0.21870   0.22262
 Alpha virt. eigenvalues --    0.23109   0.24335   0.24631   0.25335   0.27185
 Alpha virt. eigenvalues --    0.27841   0.28285   0.28955   0.30071   0.30898
 Alpha virt. eigenvalues --    0.31296   0.31692   0.33611   0.34723   0.35214
 Alpha virt. eigenvalues --    0.35580   0.36497   0.37919   0.39057   0.39560
 Alpha virt. eigenvalues --    0.39782   0.40679   0.41310   0.42940   0.43478
 Alpha virt. eigenvalues --    0.44209   0.45020   0.45370   0.46229   0.46939
 Alpha virt. eigenvalues --    0.47488   0.47788   0.48887   0.49793   0.49986
 Alpha virt. eigenvalues --    0.50259   0.50952   0.53016   0.53809   0.54306
 Alpha virt. eigenvalues --    0.55076   0.58036   0.59902   0.60296   0.61111
 Alpha virt. eigenvalues --    0.62544   0.63642   0.64584   0.64907   0.67964
 Alpha virt. eigenvalues --    0.68103   0.70813   0.71767   0.74146   0.74548
 Alpha virt. eigenvalues --    0.76563   0.79679   0.80265   0.80902   0.81639
 Alpha virt. eigenvalues --    0.83729   0.84947   0.86471   0.87450   0.88934
 Alpha virt. eigenvalues --    0.90718   0.91488   0.95123   0.96593   0.97343
 Alpha virt. eigenvalues --    0.99084   1.01207   1.03305   1.05497   1.07014
 Alpha virt. eigenvalues --    1.09560   1.10468   1.12227   1.12666   1.14281
 Alpha virt. eigenvalues --    1.16279   1.18023   1.20139   1.20867   1.21756
 Alpha virt. eigenvalues --    1.23677   1.24315   1.28400   1.28729   1.30083
 Alpha virt. eigenvalues --    1.31319   1.33237   1.37224   1.38474   1.39219
 Alpha virt. eigenvalues --    1.41922   1.42941   1.43674   1.44954   1.45700
 Alpha virt. eigenvalues --    1.46721   1.48415   1.49475   1.51150   1.52787
 Alpha virt. eigenvalues --    1.54364   1.55264   1.56603   1.57945   1.58841
 Alpha virt. eigenvalues --    1.59621   1.60851   1.61845   1.62414   1.63119
 Alpha virt. eigenvalues --    1.64191   1.65733   1.65955   1.66750   1.67487
 Alpha virt. eigenvalues --    1.68052   1.68620   1.70295   1.71012   1.71473
 Alpha virt. eigenvalues --    1.72101   1.75507   1.76547   1.77061   1.78484
 Alpha virt. eigenvalues --    1.80415   1.81372   1.83198   1.84732   1.85251
 Alpha virt. eigenvalues --    1.87883   1.92047   1.93489   1.94361   1.96312
 Alpha virt. eigenvalues --    1.98062   1.99249   1.99531   2.00768   2.02542
 Alpha virt. eigenvalues --    2.04704   2.04952   2.11601   2.13784   2.16225
 Alpha virt. eigenvalues --    2.17588   2.18088   2.19490   2.23085   2.25630
 Alpha virt. eigenvalues --    2.26066   2.27198   2.29269   2.31061   2.34395
 Alpha virt. eigenvalues --    2.37225   2.38040   2.38578   2.41284   2.44234
 Alpha virt. eigenvalues --    2.47385   2.48249   2.48872   2.51165   2.53122
 Alpha virt. eigenvalues --    2.54361   2.56562   2.58196   2.59876   2.60246
 Alpha virt. eigenvalues --    2.61589   2.62434   2.63771   2.65913   2.66862
 Alpha virt. eigenvalues --    2.67326   2.68877   2.70830   2.72745   2.74421
 Alpha virt. eigenvalues --    2.75781   2.77144   2.78037   2.78754   2.81342
 Alpha virt. eigenvalues --    2.82481   2.83327   2.84887   2.85924   2.86813
 Alpha virt. eigenvalues --    2.88656   2.91302   2.95919   2.97252   2.98295
 Alpha virt. eigenvalues --    2.98972   2.99351   3.02148   3.04963   3.06743
 Alpha virt. eigenvalues --    3.07105   3.10127   3.10466   3.11934   3.14264
 Alpha virt. eigenvalues --    3.14537   3.15283   3.17925   3.19393   3.19950
 Alpha virt. eigenvalues --    3.20500   3.21680   3.23641   3.25295   3.27138
 Alpha virt. eigenvalues --    3.28242   3.29510   3.29961   3.30567   3.30945
 Alpha virt. eigenvalues --    3.32697   3.34216   3.34984   3.36627   3.39124
 Alpha virt. eigenvalues --    3.39838   3.42351   3.42650   3.44948   3.45407
 Alpha virt. eigenvalues --    3.46420   3.48346   3.48934   3.50004   3.52591
 Alpha virt. eigenvalues --    3.56280   3.58608   3.60985   3.63878   3.67648
 Alpha virt. eigenvalues --    3.70211   3.72106   3.73557   3.76824   3.80241
 Alpha virt. eigenvalues --    3.81405   3.83622   3.86033   3.87473   3.90229
 Alpha virt. eigenvalues --    3.93022   3.94627   3.97842   4.00364   4.01877
 Alpha virt. eigenvalues --    4.05342   4.07103   4.11368   4.12560   4.13880
 Alpha virt. eigenvalues --    4.14458   4.16768   4.17514   4.19250   4.22438
 Alpha virt. eigenvalues --    4.26609   4.27089   4.28775   4.30700   4.33350
 Alpha virt. eigenvalues --    4.37304   4.38268   4.41116   4.43540   4.46091
 Alpha virt. eigenvalues --    4.47844   4.50545   4.52018   4.57269   4.60552
 Alpha virt. eigenvalues --    4.62904   4.67436   4.73686   4.75490   4.79803
 Alpha virt. eigenvalues --    4.82779   4.84997   4.86871   4.93363   4.95850
 Alpha virt. eigenvalues --    5.00626   5.07349   5.13169   5.17625   5.20933
 Alpha virt. eigenvalues --    5.28260   5.33999   5.42365   5.54278   5.58663
 Alpha virt. eigenvalues --    5.73725   5.95766   7.74374  22.35371  22.47650
 Alpha virt. eigenvalues --   22.57432  22.61898  22.75870  22.88641  22.90435
 Alpha virt. eigenvalues --   23.21841  32.53298
          Condensed to atoms (all electrons):
               1          2          3          4          5          6
     1  Br  35.022783   0.253886  -0.027804  -0.025515   0.008014  -0.013675
     2  C    0.253886   4.990307   0.233048  -0.013184   0.002992   0.002087
     3  C   -0.027804   0.233048   5.244405   0.209176  -0.037162  -0.008173
     4  C   -0.025515  -0.013184   0.209176   5.334671   0.183686  -0.032437
     5  C    0.008014   0.002992  -0.037162   0.183686   5.260763   0.422007
     6  C   -0.013675   0.002087  -0.008173  -0.032437   0.422007   4.919463
     7  N   -0.002392   0.000050  -0.000238   0.011327  -0.037347   0.502711
     8  C    0.005500  -0.000313   0.000489  -0.002717  -0.055489  -0.103591
     9  C   -0.005885  -0.000260   0.001255   0.011400  -0.045896  -0.023754
    10  C    0.001500  -0.002735   0.002567  -0.089056   0.443001  -0.032293
    11  H   -0.043209   0.423537  -0.038056   0.003257   0.001706   0.000010
    12  H   -0.043792   0.428075  -0.056962   0.008110  -0.009306   0.002949
    13  H   -0.006185  -0.035030   0.425507  -0.040010  -0.010854   0.003039
    14  H    0.007989  -0.043341   0.414773  -0.052980   0.013730  -0.000481
    15  H    0.000475  -0.009791  -0.033575   0.455688  -0.081112   0.001482
    16  H   -0.000757   0.009252  -0.068056   0.443956  -0.044987   0.002936
    17  H    0.000439  -0.000057  -0.001106   0.003481  -0.100034   0.455552
    18  H    0.000017   0.000003   0.000005   0.000103   0.000022   0.005044
    19  H   -0.000129  -0.000006   0.000033   0.000276   0.013737  -0.002597
    20  H    0.000559   0.000043  -0.000841   0.001116  -0.053718   0.005210
               7          8          9         10         11         12
     1  Br  -0.002392   0.005500  -0.005885   0.001500  -0.043209  -0.043792
     2  C    0.000050  -0.000313  -0.000260  -0.002735   0.423537   0.428075
     3  C   -0.000238   0.000489   0.001255   0.002567  -0.038056  -0.056962
     4  C    0.011327  -0.002717   0.011400  -0.089056   0.003257   0.008110
     5  C   -0.037347  -0.055489  -0.045896   0.443001   0.001706  -0.009306
     6  C    0.502711  -0.103591  -0.023754  -0.032293   0.000010   0.002949
     7  N    6.422671   0.492175  -0.042065  -0.076402  -0.000006   0.000073
     8  C    0.492175   4.836485   0.488305  -0.010195  -0.000007  -0.000010
     9  C   -0.042065   0.488305   4.969416   0.466748  -0.000009  -0.000045
    10  C   -0.076402  -0.010195   0.466748   5.073968  -0.000121   0.000345
    11  H   -0.000006  -0.000007  -0.000009  -0.000121   0.514826  -0.028455
    12  H    0.000073  -0.000010  -0.000045   0.000345  -0.028455   0.520639
    13  H   -0.000050   0.000006  -0.000066  -0.000255  -0.003612   0.006423
    14  H    0.000021  -0.000011   0.000017  -0.000035  -0.005701   0.001104
    15  H    0.000224   0.000104  -0.000598   0.007062   0.000013   0.000463
    16  H   -0.000515   0.000280  -0.001194  -0.003110  -0.000315   0.000379
    17  H   -0.030750   0.009522  -0.002399   0.005837   0.000004   0.000300
    18  H   -0.032564   0.430763  -0.065304   0.001376  -0.000000   0.000000
    19  H    0.007756  -0.032601   0.417011  -0.060057   0.000000   0.000001
    20  H   -0.002408   0.004031  -0.033550   0.428400   0.000003  -0.000011
              13         14         15         16         17         18
     1  Br  -0.006185   0.007989   0.000475  -0.000757   0.000439   0.000017
     2  C   -0.035030  -0.043341  -0.009791   0.009252  -0.000057   0.000003
     3  C    0.425507   0.414773  -0.033575  -0.068056  -0.001106   0.000005
     4  C   -0.040010  -0.052980   0.455688   0.443956   0.003481   0.000103
     5  C   -0.010854   0.013730  -0.081112  -0.044987  -0.100034   0.000022
     6  C    0.003039  -0.000481   0.001482   0.002936   0.455552   0.005044
     7  N   -0.000050   0.000021   0.000224  -0.000515  -0.030750  -0.032564
     8  C    0.000006  -0.000011   0.000104   0.000280   0.009522   0.430763
     9  C   -0.000066   0.000017  -0.000598  -0.001194  -0.002399  -0.065304
    10  C   -0.000255  -0.000035   0.007062  -0.003110   0.005837   0.001376
    11  H   -0.003612  -0.005701   0.000013  -0.000315   0.000004  -0.000000
    12  H    0.006423   0.001104   0.000463   0.000379   0.000300   0.000000
    13  H    0.505954  -0.018541   0.004205  -0.000791  -0.000017  -0.000001
    14  H   -0.018541   0.540818  -0.002694  -0.003839   0.000031   0.000000
    15  H    0.004205  -0.002694   0.497186  -0.012699   0.000136  -0.000002
    16  H   -0.000791  -0.003839  -0.012699   0.508390   0.000282  -0.000003
    17  H   -0.000017   0.000031   0.000136   0.000282   0.517511  -0.000045
    18  H   -0.000001   0.000000  -0.000002  -0.000003  -0.000045   0.518754
    19  H   -0.000006  -0.000000   0.000008  -0.000045   0.000094  -0.000249
    20  H    0.000752  -0.000053   0.000106   0.000829  -0.000225  -0.000286
              19         20
     1  Br  -0.000129   0.000559
     2  C   -0.000006   0.000043
     3  C    0.000033  -0.000841
     4  C    0.000276   0.001116
     5  C    0.013737  -0.053718
     6  C   -0.002597   0.005210
     7  N    0.007756  -0.002408
     8  C   -0.032601   0.004031
     9  C    0.417011  -0.033550
    10  C   -0.060057   0.428400
    11  H    0.000000   0.000003
    12  H    0.000001  -0.000011
    13  H   -0.000006   0.000752
    14  H   -0.000000  -0.000053
    15  H    0.000008   0.000106
    16  H   -0.000045   0.000829
    17  H    0.000094  -0.000225
    18  H   -0.000249  -0.000286
    19  H    0.523617  -0.006226
    20  H   -0.006226   0.503441
 Mulliken charges:
               1
     1  Br  -0.131819
     2  C   -0.238561
     3  C   -0.259284
     4  C   -0.410347
     5  C    0.126248
     6  C   -0.105491
     7  N   -0.212273
     8  C   -0.062726
     9  C   -0.133128
    10  C   -0.156547
    11  H    0.176136
    12  H    0.169719
    13  H    0.169532
    14  H    0.149192
    15  H    0.173320
    16  H    0.170007
    17  H    0.141445
    18  H    0.142366
    19  H    0.139382
    20  H    0.152827
 Sum of Mulliken charges =  -0.00000
 Mulliken charges with hydrogens summed into heavy atoms:
               1
     1  Br  -0.131819
     2  C    0.107294
     3  C    0.059439
     4  C   -0.067019
     5  C    0.126248
     6  C    0.035954
     7  N   -0.212273
     8  C    0.079641
     9  C    0.006254
    10  C   -0.003719
 Electronic spatial extent (au):  <R**2>=           1986.0126
 Charge=             -0.0000 electrons
 Dipole moment (field-independent basis, Debye):
    X=             -1.3817    Y=              3.0461    Z=             -1.5641  Tot=              3.6925
 Quadrupole moment (field-independent basis, Debye-Ang):
   XX=            -72.8984   YY=            -70.4019   ZZ=            -72.0070
   XY=             -5.6482   XZ=             -7.0026   YZ=              2.3877
 Traceless Quadrupole moment (field-independent basis, Debye-Ang):
   XX=             -1.1293   YY=              1.3672   ZZ=             -0.2379
   XY=             -5.6482   XZ=             -7.0026   YZ=              2.3877
 Octapole moment (field-independent basis, Debye-Ang**2):
  XXX=            -62.6807  YYY=            -31.9636  ZZZ=             -9.3087  XYY=            -14.4947
  XXY=            -12.3984  XXZ=            -14.7602  XZZ=            -19.6556  YZZ=             -3.7140
  YYZ=             -4.3962  XYZ=              5.0860
 Hexadecapole moment (field-independent basis, Debye-Ang**3):
 XXXX=          -1457.5845 YYYY=           -704.9082 ZZZZ=           -344.1428 XXXY=            -14.0388
 XXXZ=            -39.4349 YYYX=             30.9952 YYYZ=              3.3731 ZZZX=            -26.3383
 ZZZY=             13.7034 XXYY=           -358.1877 XXZZ=           -319.7938 YYZZ=           -182.4088
 XXYZ=             17.3017 YYXZ=             -3.0952 ZZXY=             21.2150
 N-N= 7.671176779338D+02 E-N=-8.535704392850D+03  KE= 2.934431890936D+03
 Unable to Open any file for archive entry.
 1\1\GINC-COMPUTE-0-35\SP\RM062X\def2TZVP\C8H10Br1N1\ZTAN64\14-Aug-2024
 \0\\# M062X/def2tzvp int=(grid=ultrafine) nmr=giao guess=read geom=che
 ck\\pyrd10.xyz\\0,1\Br,0,3.0013314049,-0.3588428381,2.1694394118\C,0,3
 .8505860118,-1.4409452349,0.742836522\C,0,2.9826505192,-1.5767092988,-
 0.5008381257\C,0,1.8550867085,-2.6233954611,-0.4071403023\C,0,0.822079
 4691,-2.3361590696,0.6533641677\C,0,0.781979648,-3.07400207,1.84068358
 14\N,0,-0.0632003687,-2.8424314236,2.849201706\C,0,-0.9245240162,-1.82
 97930987,2.7032304428\C,0,-0.9892899717,-1.0368602257,1.5564227855\C,0
 ,-0.1028944563,-1.2979692333,0.5175471787\H,0,4.7813226042,-0.91836807
 08,0.5284859217\H,0,4.0719141176,-2.403731695,1.204841235\H,0,2.573014
 3456,-0.5956274816,-0.762965597\H,0,3.6478765337,-1.8689188829,-1.3248
 516881\H,0,2.3025765994,-3.6065423796,-0.2182817186\H,0,1.370110134,-2
 .6864294347,-1.3885383644\H,0,1.4812537061,-3.8976851526,1.9826739216\
 H,0,-1.6002525476,-1.6485397618,3.5366083347\H,0,-1.7156422252,-0.2337
 039661,1.4863443702\H,0,-0.1187782164,-0.6951452209,-0.3868637832\\Ver
 sion=ES64L-G16RevC.01\State=1-A\HF=-2939.7856425\RMSD=6.459e-09\Dipole
 =0.3513315,0.0784979,-1.4074126\Quadrupole=2.82334,-2.3881229,-0.43521
 71,-5.9260044,-1.80202,1.865133\PG=C01 [X(C8H10Br1N1)]\\@
 The archive entry for this job was punched.


 "THE ACADEMIC HIERARCHY"


 THE PRESIDENT:
   LEAPS TALL BUILDINGS IN A SINGLE BOUND,
     IS MORE POWERFUL THAN A LOCOMOTIVE,
       IS FASTER THAN A SPEEDING BULLET,
         WALKS ON WATER,
           GIVES POLICY TO GOD.

 THE VICE PRESIDENT FOR ACADEMIC AFFAIRS:
   LEAPS SHORT BUILDINGS IN A SINGLE BOUND,
     IS MORE POWERFUL THAN A SWITCH ENGINE,
       IS JUST AS FAST AS A SPEEDING BULLET,
         WALKS ON WATER IF SEA IS CALM,
           TALKS WITH GOD.

 PROFESSOR:
   LEAPS SHORT BUILDINGS WITH A RUNNING START AND FAVORABLE WINDS,
     IS ALMOST AS POWERFUL AS A SWITCH ENGINE,
       CAN FIRE A SPEEDING BULLET,
         WALKS ON WATER IN AN INDOOR SWIMMING POOL,
          TALKS WITH GOD IF SPECIAL REQUEST IS APPROVED.

 ASSOCIATE PROFESSOR:
   BARELY CLEARS A QUONSET HUT,
     LOSES TUG OF WAR WITH LOCOMOTIVE,
       MISFIRES FREQUENTLY,
         SWIMS WELL,
           IS OCCASIONALLY ADDRESSED BY GOD.

 ASSISTANT PROFESSOR:
   MAKES HIGH MARKS ON WALLS WHEN TRYING TO LEAP TALL BUILDINGS,
     IS RUN OVER BY LOCOMOTIVES,
       CAN SOMETIMES HANDLE A GUN WITHOUT INFLICTING SELF INJURY,
         DOG PADDLES,
           TALKS TO ANIMALS.

 GRADUATE STUDENT:
   RUNS INTO BUILDINGS,
     RECOGNIZES LOCOMOTIVES TWO OUT OF THREE TIMES,
       IS NOT ISSUED AMMUNITION,
         CAN STAY AFLOAT WITH A LIFE JACKET,
           TALKS TO WALLS.

 UNDERGRADUATE AND WORK STUDY STUDENT:
   FALLS OVER DOORSTEP WHEN TRYING TO ENTER BUILDINGS,
     SAYS, "LOOK AT THE CHOO-CHOO,"
       WETS HIMSELF WITH A WATER PISTOL,
        PLAYS IN MUD PUDDLES,
          MUMBLES TO HIMSELF.

 DEPARTMENT SECRETARY:
   LIFTS TALL BUILDINGS AND WALKS UNDER THEM,
     KICKS LOCOMOTIVES OFF THE TRACKS,
       CATCHES SPEEDING BULLETS IN HER TEETH AND EATS THEM,
         FREEZES WATER WITH A SINGLE GLANCE,
           IS GOD.
 Job cpu time:       0 days  0 hours 24 minutes 21.8 seconds.
 Elapsed time:       0 days  0 hours  1 minutes 37.5 seconds.
 File lengths (MBytes):  RWF=     88 Int=      0 D2E=      0 Chk=     15 Scr=      1
 Normal termination of Gaussian 16 at Wed Aug 14 18:54:38 2024.
 
 
-----Kestrel cluster job statistics-----
Time info:

real	8m52.737s
user	138m53.640s
sys	0m16.176s
 
Disk space usage:
15M	/scratch/362946.kestrel.chem.wisc.edu
