 Entering Gaussian System, Link 0=/share/apps/gaussian/g16/g16
 Initial command:
 /share/apps/gaussian/g16/l1.exe "/scratch/362974.kestrel.chem.wisc.edu/Gau-96626.inp" -scrdir="/scratch/362974.kestrel.chem.wisc.edu/"
 Entering Link 1 = /share/apps/gaussian/g16/l1.exe PID=     96627.
  
 Copyright (c) 1988-2019, Gaussian, Inc.  All Rights Reserved.
  
 This is part of the Gaussian(R) 16 program.  It is based on
 the Gaussian(R) 09 system (copyright 2009, Gaussian, Inc.),
 the Gaussian(R) 03 system (copyright 2003, Gaussian, Inc.),
 the Gaussian(R) 98 system (copyright 1998, Gaussian, Inc.),
 the Gaussian(R) 94 system (copyright 1995, Gaussian, Inc.),
 the Gaussian 92(TM) system (copyright 1992, Gaussian, Inc.),
 the Gaussian 90(TM) system (copyright 1990, Gaussian, Inc.),
 the Gaussian 88(TM) system (copyright 1988, Gaussian, Inc.),
 the Gaussian 86(TM) system (copyright 1986, Carnegie Mellon
 University), and the Gaussian 82(TM) system (copyright 1983,
 Carnegie Mellon University). Gaussian is a federally registered
 trademark of Gaussian, Inc.
  
 This software contains proprietary and confidential information,
 including trade secrets, belonging to Gaussian, Inc.
  
 This software is provided under written license and may be
 used, copied, transmitted, or stored only in accord with that
 written license.
  
 The following legend is applicable only to US Government
 contracts under FAR:
  
                    RESTRICTED RIGHTS LEGEND
  
 Use, reproduction and disclosure by the US Government is
 subject to restrictions as set forth in subparagraphs (a)
 and (c) of the Commercial Computer Software - Restricted
 Rights clause in FAR 52.227-19.
  
 Gaussian, Inc.
 340 Quinnipiac St., Bldg. 40, Wallingford CT 06492
  
  
 ---------------------------------------------------------------
 Warning -- This program may not be used in any manner that
 competes with the business of Gaussian, Inc. or will provide
 assistance to any competitor of Gaussian, Inc.  The licensee
 of this program is prohibited from giving any competitor of
 Gaussian, Inc. access to this program.  By using this program,
 the user acknowledges that Gaussian, Inc. is engaged in the
 business of creating and licensing software in the field of
 computational chemistry and represents and warrants to the
 licensee that it is not a competitor of Gaussian, Inc. and that
 it will not use this program in any manner prohibited above.
 ---------------------------------------------------------------
  

 Cite this work as:
 Gaussian 16, Revision C.01,
 M. J. Frisch, G. W. Trucks, H. B. Schlegel, G. E. Scuseria, 
 M. A. Robb, J. R. Cheeseman, G. Scalmani, V. Barone, 
 G. A. Petersson, H. Nakatsuji, X. Li, M. Caricato, A. V. Marenich, 
 J. Bloino, B. G. Janesko, R. Gomperts, B. Mennucci, H. P. Hratchian, 
 J. V. Ortiz, A. F. Izmaylov, J. L. Sonnenberg, D. Williams-Young, 
 F. Ding, F. Lipparini, F. Egidi, J. Goings, B. Peng, A. Petrone, 
 T. Henderson, D. Ranasinghe, V. G. Zakrzewski, J. Gao, N. Rega, 
 G. Zheng, W. Liang, M. Hada, M. Ehara, K. Toyota, R. Fukuda, 
 J. Hasegawa, M. Ishida, T. Nakajima, Y. Honda, O. Kitao, H. Nakai, 
 T. Vreven, K. Throssell, J. A. Montgomery, Jr., J. E. Peralta, 
 F. Ogliaro, M. J. Bearpark, J. J. Heyd, E. N. Brothers, K. N. Kudin, 
 V. N. Staroverov, T. A. Keith, R. Kobayashi, J. Normand, 
 K. Raghavachari, A. P. Rendell, J. C. Burant, S. S. Iyengar, 
 J. Tomasi, M. Cossi, J. M. Millam, M. Klene, C. Adamo, R. Cammi, 
 J. W. Ochterski, R. L. Martin, K. Morokuma, O. Farkas, 
 J. B. Foresman, and D. J. Fox, Gaussian, Inc., Wallingford CT, 2019.
 
 ******************************************
 Gaussian 16:  ES64L-G16RevC.01  3-Jul-2019
                14-Aug-2024 
 ******************************************
 %nprocs=16
 Will use up to   16 processors via shared memory.
 %mem=16GB
 %chk=pyrd6_conf-2.chk
 ----------------------------------------------------------------------
 # B3LYP/6-31G(d,p) symmetry=loose empiricaldispersion=GD3BJ int=(grid=
 ultrafine) opt freq=noraman
 ----------------------------------------------------------------------
 1/18=20,19=15,26=4,38=1/1,3;
 2/9=110,12=2,17=4,18=3,40=1/2;
 3/5=1,6=6,7=101,11=2,25=1,30=1,71=1,74=-5,75=-5,124=41/1,2,3;
 4//1;
 5/5=2,38=5/2;
 6/7=2,8=2,9=2,10=2,28=1/1;
 7//1,2,3,16;
 1/18=20,19=15,26=4/3(2);
 2/9=110/2;
 99//99;
 2/9=110/2;
 3/5=1,6=6,7=101,11=2,25=1,30=1,71=1,74=-5,75=-5,124=41/1,2,3;
 4/5=5,16=3,69=1/1;
 5/5=2,38=5/2;
 7//1,2,3,16;
 1/18=20,19=15,26=4/3(-5);
 2/9=110/2;
 6/7=2,8=2,9=2,10=2,19=2,28=1/1;
 99/9=1/99;
 ---------
 pyrd6.xyz
 ---------
 Symbolic Z-matrix:
 Charge =  0 Multiplicity = 1
 Br                    4.8549   -1.9336   -2.8612 
 C                     3.6213   -1.1057   -1.6729 
 C                     4.0337   -0.802    -0.3754 
 C                     3.1315   -0.1842    0.4934 
 C                     3.5403    0.1622    1.9113 
 C                     1.839     0.0973    0.044 
 C                     1.4849   -0.2512   -1.2689 
 N                     0.2316   -0.0063   -1.8414 
 C                    -1.0183    0.2037   -1.2812 
 O                    -1.0445   -0.0257    0.0554 
 C                    -2.2074    0.0689    0.8837 
 C                    -2.7807    1.5007    0.8993 
 C                    -1.6832   -0.2794    2.2851 
 C                    -3.282    -0.9588    0.4744 
 O                    -1.9956    0.5165   -1.953 
 N                     2.3696   -0.8305   -2.1185 
 H                     5.0393   -1.0384   -0.0615 
 H                     2.7105   -0.0039    2.5992 
 H                     4.3626   -0.4667    2.2541 
 H                     3.8383    1.2087    1.9786 
 H                     1.1467    0.594     0.7048 
 H                     0.2207   -0.0208   -2.8463 
 H                    -3.5779    1.6034    1.6352 
 H                    -2.0087    2.2315    1.1392 
 H                    -3.1971    1.7802   -0.0686 
 H                    -2.4787   -0.2523    3.0299 
 H                    -0.9075    0.4177    2.6032 
 H                    -1.2443   -1.2776    2.3058 
 H                    -3.7078   -0.7318   -0.503 
 H                    -2.8627   -1.9632    0.4156 
 H                    -4.1051   -0.9822    1.1881 
 

 GradGradGradGradGradGradGradGradGradGradGradGradGradGradGradGradGradGrad
 Berny optimization.
 Initialization pass.
                           ----------------------------
                           !    Initial Parameters    !
                           ! (Angstroms and Degrees)  !
 --------------------------                            --------------------------
 ! Name  Definition              Value          Derivative Info.                !
 --------------------------------------------------------------------------------
 ! R1    R(1,2)                  1.9024         estimate D2E/DX2                !
 ! R2    R(2,3)                  1.3949         estimate D2E/DX2                !
 ! R3    R(2,16)                 1.3569         estimate D2E/DX2                !
 ! R4    R(3,4)                  1.3966         estimate D2E/DX2                !
 ! R5    R(3,17)                 1.0797         estimate D2E/DX2                !
 ! R6    R(4,5)                  1.5158         estimate D2E/DX2                !
 ! R7    R(4,6)                  1.3971         estimate D2E/DX2                !
 ! R8    R(5,18)                 1.0906         estimate D2E/DX2                !
 ! R9    R(5,19)                 1.0905         estimate D2E/DX2                !
 ! R10   R(5,20)                 1.0902         estimate D2E/DX2                !
 ! R11   R(6,7)                  1.4038         estimate D2E/DX2                !
 ! R12   R(6,21)                 1.0783         estimate D2E/DX2                !
 ! R13   R(7,8)                  1.3995         estimate D2E/DX2                !
 ! R14   R(7,16)                 1.3565         estimate D2E/DX2                !
 ! R15   R(8,9)                  1.3857         estimate D2E/DX2                !
 ! R16   R(8,22)                 1.0051         estimate D2E/DX2                !
 ! R17   R(9,10)                 1.3564         estimate D2E/DX2                !
 ! R18   R(9,15)                 1.2265         estimate D2E/DX2                !
 ! R19   R(10,11)                1.4309         estimate D2E/DX2                !
 ! R20   R(11,12)                1.5424         estimate D2E/DX2                !
 ! R21   R(11,13)                1.5362         estimate D2E/DX2                !
 ! R22   R(11,14)                1.5422         estimate D2E/DX2                !
 ! R23   R(12,23)                1.0898         estimate D2E/DX2                !
 ! R24   R(12,24)                1.0898         estimate D2E/DX2                !
 ! R25   R(12,25)                1.0901         estimate D2E/DX2                !
 ! R26   R(13,26)                1.0901         estimate D2E/DX2                !
 ! R27   R(13,27)                1.0903         estimate D2E/DX2                !
 ! R28   R(13,28)                1.0906         estimate D2E/DX2                !
 ! R29   R(14,29)                1.09           estimate D2E/DX2                !
 ! R30   R(14,30)                1.09           estimate D2E/DX2                !
 ! R31   R(14,31)                1.0897         estimate D2E/DX2                !
 ! A1    A(1,2,3)              118.9495         estimate D2E/DX2                !
 ! A2    A(1,2,16)             118.7714         estimate D2E/DX2                !
 ! A3    A(3,2,16)             122.2791         estimate D2E/DX2                !
 ! A4    A(2,3,4)              118.9446         estimate D2E/DX2                !
 ! A5    A(2,3,17)             119.8763         estimate D2E/DX2                !
 ! A6    A(4,3,17)             121.1773         estimate D2E/DX2                !
 ! A7    A(3,4,5)              120.5833         estimate D2E/DX2                !
 ! A8    A(3,4,6)              119.1226         estimate D2E/DX2                !
 ! A9    A(5,4,6)              120.2898         estimate D2E/DX2                !
 ! A10   A(4,5,18)             110.4888         estimate D2E/DX2                !
 ! A11   A(4,5,19)             111.4461         estimate D2E/DX2                !
 ! A12   A(4,5,20)             110.5389         estimate D2E/DX2                !
 ! A13   A(18,5,19)            106.716          estimate D2E/DX2                !
 ! A14   A(18,5,20)            108.3758         estimate D2E/DX2                !
 ! A15   A(19,5,20)            109.1518         estimate D2E/DX2                !
 ! A16   A(4,6,7)              118.9604         estimate D2E/DX2                !
 ! A17   A(4,6,21)             119.3199         estimate D2E/DX2                !
 ! A18   A(7,6,21)             121.7069         estimate D2E/DX2                !
 ! A19   A(6,7,8)              124.407          estimate D2E/DX2                !
 ! A20   A(6,7,16)             121.822          estimate D2E/DX2                !
 ! A21   A(8,7,16)             113.7403         estimate D2E/DX2                !
 ! A22   A(7,8,9)              131.9845         estimate D2E/DX2                !
 ! A23   A(7,8,22)             114.5953         estimate D2E/DX2                !
 ! A24   A(9,8,22)             113.3664         estimate D2E/DX2                !
 ! A25   A(8,9,10)             112.9647         estimate D2E/DX2                !
 ! A26   A(8,9,15)             122.4083         estimate D2E/DX2                !
 ! A27   A(10,9,15)            124.5754         estimate D2E/DX2                !
 ! A28   A(9,10,11)            125.0961         estimate D2E/DX2                !
 ! A29   A(10,11,12)           111.6734         estimate D2E/DX2                !
 ! A30   A(10,11,13)           103.6365         estimate D2E/DX2                !
 ! A31   A(10,11,14)           111.6297         estimate D2E/DX2                !
 ! A32   A(12,11,13)           109.1518         estimate D2E/DX2                !
 ! A33   A(12,11,14)           111.2407         estimate D2E/DX2                !
 ! A34   A(13,11,14)           109.1947         estimate D2E/DX2                !
 ! A35   A(11,12,23)           111.4824         estimate D2E/DX2                !
 ! A36   A(11,12,24)           111.1882         estimate D2E/DX2                !
 ! A37   A(11,12,25)           111.7781         estimate D2E/DX2                !
 ! A38   A(23,12,24)           107.8403         estimate D2E/DX2                !
 ! A39   A(23,12,25)           107.2163         estimate D2E/DX2                !
 ! A40   A(24,12,25)           107.1045         estimate D2E/DX2                !
 ! A41   A(11,13,26)           111.6314         estimate D2E/DX2                !
 ! A42   A(11,13,27)           111.3423         estimate D2E/DX2                !
 ! A43   A(11,13,28)           111.2318         estimate D2E/DX2                !
 ! A44   A(26,13,27)           107.6947         estimate D2E/DX2                !
 ! A45   A(26,13,28)           107.6657         estimate D2E/DX2                !
 ! A46   A(27,13,28)           107.057          estimate D2E/DX2                !
 ! A47   A(11,14,29)           111.8013         estimate D2E/DX2                !
 ! A48   A(11,14,30)           111.12           estimate D2E/DX2                !
 ! A49   A(11,14,31)           111.5189         estimate D2E/DX2                !
 ! A50   A(29,14,30)           107.0854         estimate D2E/DX2                !
 ! A51   A(29,14,31)           107.2591         estimate D2E/DX2                !
 ! A52   A(30,14,31)           107.8253         estimate D2E/DX2                !
 ! A53   A(2,16,7)             118.8539         estimate D2E/DX2                !
 ! D1    D(1,2,3,4)            179.4765         estimate D2E/DX2                !
 ! D2    D(1,2,3,17)            -0.0447         estimate D2E/DX2                !
 ! D3    D(16,2,3,4)            -0.4897         estimate D2E/DX2                !
 ! D4    D(16,2,3,17)          179.9891         estimate D2E/DX2                !
 ! D5    D(1,2,16,7)           179.4116         estimate D2E/DX2                !
 ! D6    D(3,2,16,7)            -0.6221         estimate D2E/DX2                !
 ! D7    D(2,3,4,5)            179.9918         estimate D2E/DX2                !
 ! D8    D(2,3,4,6)              0.7439         estimate D2E/DX2                !
 ! D9    D(17,3,4,5)            -0.4934         estimate D2E/DX2                !
 ! D10   D(17,3,4,6)          -179.7414         estimate D2E/DX2                !
 ! D11   D(3,4,5,18)          -142.3456         estimate D2E/DX2                !
 ! D12   D(3,4,5,19)           -23.877          estimate D2E/DX2                !
 ! D13   D(3,4,5,20)            97.6955         estimate D2E/DX2                !
 ! D14   D(6,4,5,18)            36.8936         estimate D2E/DX2                !
 ! D15   D(6,4,5,19)           155.3622         estimate D2E/DX2                !
 ! D16   D(6,4,5,20)           -83.0653         estimate D2E/DX2                !
 ! D17   D(3,4,6,7)              0.0719         estimate D2E/DX2                !
 ! D18   D(3,4,6,21)          -178.6487         estimate D2E/DX2                !
 ! D19   D(5,4,6,7)           -179.1783         estimate D2E/DX2                !
 ! D20   D(5,4,6,21)             2.1011         estimate D2E/DX2                !
 ! D21   D(4,6,7,8)           -179.0727         estimate D2E/DX2                !
 ! D22   D(4,6,7,16)            -1.2186         estimate D2E/DX2                !
 ! D23   D(21,6,7,8)            -0.3839         estimate D2E/DX2                !
 ! D24   D(21,6,7,16)          177.4702         estimate D2E/DX2                !
 ! D25   D(6,7,8,9)            -22.5988         estimate D2E/DX2                !
 ! D26   D(6,7,8,22)           160.2939         estimate D2E/DX2                !
 ! D27   D(16,7,8,9)           159.3931         estimate D2E/DX2                !
 ! D28   D(16,7,8,22)          -17.7143         estimate D2E/DX2                !
 ! D29   D(6,7,16,2)             1.4856         estimate D2E/DX2                !
 ! D30   D(8,7,16,2)           179.5515         estimate D2E/DX2                !
 ! D31   D(7,8,9,10)            -8.774          estimate D2E/DX2                !
 ! D32   D(7,8,9,15)           173.7287         estimate D2E/DX2                !
 ! D33   D(22,8,9,10)          168.3609         estimate D2E/DX2                !
 ! D34   D(22,8,9,15)           -9.1365         estimate D2E/DX2                !
 ! D35   D(8,9,10,11)         -177.8177         estimate D2E/DX2                !
 ! D36   D(15,9,10,11)          -0.3839         estimate D2E/DX2                !
 ! D37   D(9,10,11,12)         -62.4064         estimate D2E/DX2                !
 ! D38   D(9,10,11,13)        -179.773          estimate D2E/DX2                !
 ! D39   D(9,10,11,14)          62.8308         estimate D2E/DX2                !
 ! D40   D(10,11,12,23)       -172.0396         estimate D2E/DX2                !
 ! D41   D(10,11,12,24)        -51.6642         estimate D2E/DX2                !
 ! D42   D(10,11,12,25)         67.9763         estimate D2E/DX2                !
 ! D43   D(13,11,12,23)        -58.0495         estimate D2E/DX2                !
 ! D44   D(13,11,12,24)         62.326          estimate D2E/DX2                !
 ! D45   D(13,11,12,25)       -178.0336         estimate D2E/DX2                !
 ! D46   D(14,11,12,23)         62.5078         estimate D2E/DX2                !
 ! D47   D(14,11,12,24)       -177.1167         estimate D2E/DX2                !
 ! D48   D(14,11,12,25)        -57.4763         estimate D2E/DX2                !
 ! D49   D(10,11,13,26)       -179.6217         estimate D2E/DX2                !
 ! D50   D(10,11,13,27)         59.9808         estimate D2E/DX2                !
 ! D51   D(10,11,13,28)        -59.3372         estimate D2E/DX2                !
 ! D52   D(12,11,13,26)         61.2643         estimate D2E/DX2                !
 ! D53   D(12,11,13,27)        -59.1331         estimate D2E/DX2                !
 ! D54   D(12,11,13,28)       -178.4511         estimate D2E/DX2                !
 ! D55   D(14,11,13,26)        -60.5382         estimate D2E/DX2                !
 ! D56   D(14,11,13,27)        179.0643         estimate D2E/DX2                !
 ! D57   D(14,11,13,28)         59.7463         estimate D2E/DX2                !
 ! D58   D(10,11,14,29)        -67.8999         estimate D2E/DX2                !
 ! D59   D(10,11,14,30)         51.6856         estimate D2E/DX2                !
 ! D60   D(10,11,14,31)        172.0202         estimate D2E/DX2                !
 ! D61   D(12,11,14,29)         57.577          estimate D2E/DX2                !
 ! D62   D(12,11,14,30)        177.1625         estimate D2E/DX2                !
 ! D63   D(12,11,14,31)        -62.5029         estimate D2E/DX2                !
 ! D64   D(13,11,14,29)        178.109          estimate D2E/DX2                !
 ! D65   D(13,11,14,30)        -62.3055         estimate D2E/DX2                !
 ! D66   D(13,11,14,31)         58.0291         estimate D2E/DX2                !
 --------------------------------------------------------------------------------
 Trust Radius=3.00D-01 FncErr=1.00D-07 GrdErr=1.00D-06 EigMax=2.50D+02 EigMin=1.00D-04
 Number of steps in this run=    160 maximum allowed number of steps=    186.
 GradGradGradGradGradGradGradGradGradGradGradGradGradGradGradGradGradGrad

                          Input orientation:                          
 ---------------------------------------------------------------------
 Center     Atomic      Atomic             Coordinates (Angstroms)
 Number     Number       Type             X           Y           Z
 ---------------------------------------------------------------------
      1         35           0        4.854900   -1.933600   -2.861200
      2          6           0        3.621300   -1.105700   -1.672900
      3          6           0        4.033700   -0.802000   -0.375400
      4          6           0        3.131500   -0.184200    0.493400
      5          6           0        3.540300    0.162200    1.911300
      6          6           0        1.839000    0.097300    0.044000
      7          6           0        1.484900   -0.251200   -1.268900
      8          7           0        0.231600   -0.006300   -1.841400
      9          6           0       -1.018300    0.203700   -1.281200
     10          8           0       -1.044500   -0.025700    0.055400
     11          6           0       -2.207400    0.068900    0.883700
     12          6           0       -2.780700    1.500700    0.899300
     13          6           0       -1.683200   -0.279400    2.285100
     14          6           0       -3.282000   -0.958800    0.474400
     15          8           0       -1.995600    0.516500   -1.953000
     16          7           0        2.369600   -0.830500   -2.118500
     17          1           0        5.039300   -1.038400   -0.061500
     18          1           0        2.710500   -0.003900    2.599200
     19          1           0        4.362600   -0.466700    2.254100
     20          1           0        3.838300    1.208700    1.978600
     21          1           0        1.146700    0.594000    0.704800
     22          1           0        0.220700   -0.020800   -2.846300
     23          1           0       -3.577900    1.603400    1.635200
     24          1           0       -2.008700    2.231500    1.139200
     25          1           0       -3.197100    1.780200   -0.068600
     26          1           0       -2.478700   -0.252300    3.029900
     27          1           0       -0.907500    0.417700    2.603200
     28          1           0       -1.244300   -1.277600    2.305800
     29          1           0       -3.707800   -0.731800   -0.503000
     30          1           0       -2.862700   -1.963200    0.415600
     31          1           0       -4.105100   -0.982200    1.188100
 ---------------------------------------------------------------------
                    Distance matrix (angstroms):
                    1          2          3          4          5
     1  Br   0.000000
     2  C    1.902431   0.000000
     3  C    2.852033   1.394924   0.000000
     4  C    4.157385   2.404563   1.396587   0.000000
     5  C    5.375622   3.802712   2.530242   1.515767   0.000000
     6  C    4.654073   2.751645   2.408598   1.397054   2.526943
     7  C    4.089351   2.336149   2.756466   2.412775   3.809100
     8  N    5.111691   3.567512   4.151898   3.727246   5.005861
     9  C    6.446622   4.836718   5.230163   4.529957   5.565484
    10  O    6.851975   5.091474   5.155225   4.201897   4.949754
    11  C    8.240774   6.472220   6.426129   5.359127   5.839582
    12  C    9.178135   7.375306   7.305021   6.160986   6.539936
    13  C    8.483368   6.669802   6.327268   5.138150   5.255444
    14  C    8.847915   7.231046   7.366560   6.460135   7.061522
    15  O    7.331928   5.853166   6.370222   5.723898   6.760513
    16  N    2.818714   1.356852   2.410070   2.796465   4.312224
    17  H    2.945116   2.147525   1.079653   2.162700   2.753249
    18  H    6.175610   4.504926   3.352024   2.155027   1.090580
    19  H    5.344198   4.047119   2.671118   2.166905   1.090506
    20  H    5.859282   4.328624   3.102001   2.155355   1.090181
    21  H    5.732004   3.829632   3.383846   2.142362   2.715035
    22  H    5.013465   3.757387   4.610270   4.433176   5.804136
    23  H   10.190196   8.373245   8.231945   7.036709   7.267879
    24  H    8.969964   7.123322   6.928689   5.716146   5.972398
    25  H    9.296539   7.575802   7.684162   6.650255   7.206281
    26  H    9.555811   7.749492   7.369504   6.157338   6.136077
    27  H    8.282121   6.412161   5.897049   4.596418   4.508540
    28  H    8.020503   6.287580   5.939050   4.860858   5.012091
    29  H    8.962436   7.431297   7.742870   6.933160   7.691751
    30  H    8.384488   6.865813   7.038068   6.253105   6.910344
    31  H    9.878441   8.240014   8.289576   7.313535   7.764329
                    6          7          8          9         10
     6  C    0.000000
     7  C    1.403761   0.000000
     8  N    2.479758   1.399462   0.000000
     9  C    3.151450   2.544228   1.385703   0.000000
    10  O    2.886145   2.863998   2.286188   1.356396   0.000000
    11  C    4.132706   4.285934   3.657943   2.473645   1.430862
    12  C    4.903335   5.095644   4.342400   3.089149   2.460987
    13  C    4.191697   4.761152   4.557307   3.659778   2.333209
    14  C    5.246450   5.124756   4.314577   3.091581   2.460212
    15  O    4.343719   3.629220   2.290457   1.226489   2.287410
    16  N    2.412210   1.356504   2.308059   3.639850   4.126696
    17  H    3.397479   3.835526   5.229460   6.302777   6.168618
    18  H    2.701629   4.065151   5.085654   5.385587   4.535573
    19  H    3.401646   4.554023   5.835259   6.473165   5.853673
    20  H    2.995845   4.268027   5.392301   5.934887   5.391120
    21  H    1.078261   2.173530   2.771444   2.963740   2.367933
    22  H    3.314616   2.034570   1.005064   2.008746   3.165536
    23  H    5.843206   6.124156   5.402793   4.125058   3.401154
    24  H    4.534211   4.916095   4.348640   3.309260   2.683143
    25  H    5.311039   5.242941   4.253279   2.950071   2.812532
    26  H    5.261212   5.847205   5.579947   4.574526   3.309974
    27  H    3.767681   4.600453   4.607797   3.891868   2.589721
    28  H    4.063598   4.613080   4.581894   3.887402   2.582920
    29  H    5.635034   5.270836   4.223332   2.951977   2.811326
    30  H    5.146817   4.966901   4.300953   3.313065   2.681325
    31  H    6.148708   6.149741   5.379332   4.127001   3.400761
                   11         12         13         14         15
    11  C    0.000000
    12  C    1.542390   0.000000
    13  C    1.536236   2.508726   0.000000
    14  C    1.542225   2.545777   2.509259   0.000000
    15  O    2.879596   3.117795   4.323487   3.118270   0.000000
    16  N    5.547166   6.408370   6.010041   6.219339   4.571299
    17  H    7.391494   8.277836   7.160630   8.338918   7.448846
    18  H    5.209029   5.941949   4.413520   6.429360   6.568159
    19  H    6.732738   7.532123   6.048780   7.864439   7.687202
    20  H    6.248875   6.712772   5.726722   7.593375   7.069018
    21  H    3.399665   4.035394   3.356860   4.698687   4.116304
    22  H    4.451586   5.035165   5.479323   4.916889   2.449217
    23  H    2.190368   1.089782   2.749035   2.828406   4.069423
    24  H    2.186687   1.089773   2.779147   3.498752   3.535972
    25  H    2.194295   1.090110   3.474730   2.793596   2.567392
    26  H    2.186995   2.775548   1.090083   2.770381   5.064951
    27  H    2.183594   2.754096   1.090342   3.473441   4.685369
    28  H    2.182428   3.472423   1.090626   2.758239   4.681947
    29  H    2.194370   2.794641   3.475223   1.090021   2.567563
    30  H    2.185856   3.498470   2.778747   1.089995   3.537095
    31  H    2.190602   2.828822   2.750079   1.089683   4.069718
                   16         17         18         19         20
    16  N    0.000000
    17  H    3.376651   0.000000
    18  H    4.801684   3.684131   0.000000
    19  H    4.819132   2.479267   1.750061   0.000000
    20  H    4.806417   3.264026   1.768467   1.777008   0.000000
    21  H    3.390532   4.290021   2.528182   3.723900   3.040581
    22  H    2.408958   5.657696   5.987726   6.585457   6.154540
    23  H    7.442237   9.171370   6.561759   8.229210   7.434631
    24  H    6.257632   7.861821   5.422127   7.008334   5.994841
    25  H    6.481203   8.705334   6.723088   8.221469   7.349455
    26  H    7.095516   8.166703   5.212965   6.888484   6.568428
    27  H    5.881483   6.677221   3.642484   5.355183   4.851641
    28  H    5.730149   6.719000   4.165194   5.665471   5.667589
    29  H    6.289227   8.763600   7.165756   8.532481   8.177255
    30  H    5.922975   7.970225   6.298216   7.604246   7.576762
    31  H    7.271751   9.229556   7.028562   8.550090   8.277834
                   21         22         23         24         25
    21  H    0.000000
    22  H    3.720990   0.000000
    23  H    4.919998   6.095181   0.000000
    24  H    3.581433   5.091885   1.761509   0.000000
    25  H    4.568787   4.758211   1.754765   1.753496   0.000000
    26  H    4.389287   6.470709   2.568473   3.156724   3.774633
    27  H    2.802631   5.582308   3.077977   2.577946   3.773220
    28  H    3.432633   5.501809   3.767699   3.776115   4.336052
    29  H    5.175200   4.629221   3.168901   3.790107   2.599935
    30  H    4.764262   4.890835   3.836609   4.341477   3.789369
    31  H    5.504488   5.992764   2.676409   3.837337   3.167746
                   26         27         28         29         30
    26  H    0.000000
    27  H    1.760580   0.000000
    28  H    1.760484   1.753831   0.000000
    29  H    3.771205   4.337224   3.775723   0.000000
    30  H    3.147888   3.778503   2.581109   1.753387   0.000000
    31  H    2.563232   3.766547   3.085562   1.755097   1.761441
                   31
    31  H    0.000000
 Stoichiometry    C11H15BrN2O2
 Framework group  C1[X(C11H15BrN2O2)]
 Deg. of freedom    87
 Full point group                 C1      NOp   1
 Largest Abelian subgroup         C1      NOp   1
 Largest concise Abelian subgroup C1      NOp   1
                         Standard orientation:                         
 ---------------------------------------------------------------------
 Center     Atomic      Atomic             Coordinates (Angstroms)
 Number     Number       Type             X           Y           Z
 ---------------------------------------------------------------------
      1         35           0        4.250848   -0.677847    0.304690
      2          6           0        2.510460    0.018766   -0.019385
      3          6           0        2.336450    1.401636   -0.075993
      4          6           0        1.060792    1.912717   -0.324885
      5          6           0        0.829497    3.409137   -0.394044
      6          6           0       -0.005686    1.026305   -0.494173
      7          6           0        0.237045   -0.353584   -0.407371
      8          7           0       -0.740551   -1.340643   -0.576232
      9          6           0       -2.120153   -1.310084   -0.449993
     10          8           0       -2.577178   -0.149854    0.083677
     11          6           0       -3.948956    0.140350    0.368935
     12          6           0       -4.809802    0.137751   -0.910872
     13          6           0       -3.905874    1.564052    0.944467
     14          6           0       -4.523954   -0.818726    1.431013
     15          8           0       -2.829063   -2.264682   -0.750766
     16          7           0        1.480826   -0.848643   -0.188214
     17          1           0        3.183357    2.056435    0.064132
     18          1           0       -0.129398    3.668396    0.056143
     19          1           0        1.593716    3.956670    0.158569
     20          1           0        0.825554    3.748068   -1.430194
     21          1           0       -0.987773    1.416594   -0.708243
     22          1           0       -0.380238   -2.253482   -0.793149
     23          1           0       -5.820486    0.493967   -0.712751
     24          1           0       -4.375185    0.776799   -1.679201
     25          1           0       -4.897717   -0.861705   -1.337133
     26          1           0       -4.900379    1.917602    1.216943
     27          1           0       -3.488484    2.270048    0.225996
     28          1           0       -3.281933    1.610223    1.837794
     29          1           0       -4.604440   -1.838460    1.054435
     30          1           0       -3.887185   -0.853122    2.314999
     31          1           0       -5.520009   -0.512004    1.749139
 ---------------------------------------------------------------------
 Rotational constants (GHZ):           0.8344075           0.1630610           0.1443250
 Standard basis: 6-31G(d,p) (6D, 7F)
 There are   330 symmetry adapted cartesian basis functions of A   symmetry.
 There are   330 symmetry adapted basis functions of A   symmetry.
   330 basis functions,   608 primitive gaussians,   330 cartesian basis functions
    73 alpha electrons       73 beta electrons
       nuclear repulsion energy      1409.3969634045 Hartrees.
 NAtoms=   31 NActive=   31 NUniq=   31 SFac= 1.00D+00 NAtFMM=   60 NAOKFM=F Big=F
 Integral buffers will be    131072 words long.
 Raffenetti 2 integral format.
 Two-electron integral symmetry is turned on.
 Nuclear repulsion after empirical dispersion term =     1409.3369807240 Hartrees.
 One-electron integrals computed using PRISM.
 NBasis=   330 RedAO= T EigKep=  7.03D-04  NBF=   330
 NBsUse=   330 1.00D-06 EigRej= -1.00D+00 NBFU=   330
 ExpMin= 1.43D-01 ExpMax= 5.74D+05 ExpMxC= 5.74D+03 IAcc=3 IRadAn=         5 AccDes= 0.00D+00
 Harris functional with IExCor=  402 and IRadAn=       5 diagonalized for initial guess.
 HarFok:  IExCor=  402 AccDes= 0.00D+00 IRadAn=         5 IDoV= 1 UseB2=F ITyADJ=14
 ICtDFT=  3500011 ScaDFX=  1.000000  1.000000  1.000000  1.000000
 FoFCou: FMM=F IPFlag=           0 FMFlag=      100000 FMFlg1=           0
         NFxFlg=           0 DoJE=T BraDBF=F KetDBF=T FulRan=T
         wScrn=  0.000000 ICntrl=       500 IOpCl=  0 I1Cent=   200000004 NGrid=           0
         NMat0=    1 NMatS0=      1 NMatT0=    0 NMatD0=    1 NMtDS0=    0 NMtDT0=    0
 Petite list used in FoFCou.
 Requested convergence on RMS density matrix=1.00D-08 within 128 cycles.
 Requested convergence on MAX density matrix=1.00D-06.
 Requested convergence on             energy=1.00D-06.
 No special actions if energy rises.
 Integral accuracy reduced to 1.0D-05 until final iterations.
 Initial convergence to 1.0D-05 achieved.  Increase integral accuracy.
 SCF Done:  E(RB3LYP) =  -3259.98467672     A.U. after   15 cycles
            NFock= 15  Conv=0.44D-08     -V/T= 2.0069

 **********************************************************************

            Population analysis using the SCF Density.

 **********************************************************************

 Orbital symmetries:
       Occupied  (A) (A) (A) (A) (A) (A) (A) (A) (A) (A) (A) (A)
                 (A) (A) (A) (A) (A) (A) (A) (A) (A) (A) (A) (A)
                 (A) (A) (A) (A) (A) (A) (A) (A) (A) (A) (A) (A)
                 (A) (A) (A) (A) (A) (A) (A) (A) (A) (A) (A) (A)
                 (A) (A) (A) (A) (A) (A) (A) (A) (A) (A) (A) (A)
                 (A) (A) (A) (A) (A) (A) (A) (A) (A) (A) (A) (A)
                 (A)
       Virtual   (A) (A) (A) (A) (A) (A) (A) (A) (A) (A) (A) (A)
                 (A) (A) (A) (A) (A) (A) (A) (A) (A) (A) (A) (A)
                 (A) (A) (A) (A) (A) (A) (A) (A) (A) (A) (A) (A)
                 (A) (A) (A) (A) (A) (A) (A) (A) (A) (A) (A) (A)
                 (A) (A) (A) (A) (A) (A) (A) (A) (A) (A) (A) (A)
                 (A) (A) (A) (A) (A) (A) (A) (A) (A) (A) (A) (A)
                 (A) (A) (A) (A) (A) (A) (A) (A) (A) (A) (A) (A)
                 (A) (A) (A) (A) (A) (A) (A) (A) (A) (A) (A) (A)
                 (A) (A) (A) (A) (A) (A) (A) (A) (A) (A) (A) (A)
                 (A) (A) (A) (A) (A) (A) (A) (A) (A) (A) (A) (A)
                 (A) (A) (A) (A) (A) (A) (A) (A) (A) (A) (A) (A)
                 (A) (A) (A) (A) (A) (A) (A) (A) (A) (A) (A) (A)
                 (A) (A) (A) (A) (A) (A) (A) (A) (A) (A) (A) (A)
                 (A) (A) (A) (A) (A) (A) (A) (A) (A) (A) (A) (A)
                 (A) (A) (A) (A) (A) (A) (A) (A) (A) (A) (A) (A)
                 (A) (A) (A) (A) (A) (A) (A) (A) (A) (A) (A) (A)
                 (A) (A) (A) (A) (A) (A) (A) (A) (A) (A) (A) (A)
                 (A) (A) (A) (A) (A) (A) (A) (A) (A) (A) (A) (A)
                 (A) (A) (A) (A) (A) (A) (A) (A) (A) (A) (A) (A)
                 (A) (A) (A) (A) (A) (A) (A) (A) (A) (A) (A) (A)
                 (A) (A) (A) (A) (A) (A) (A) (A) (A) (A) (A) (A)
                 (A) (A) (A) (A) (A)
 The electronic state is 1-A.
 Alpha  occ. eigenvalues -- -482.91206 -61.87413 -56.39537 -56.39129 -56.39124
 Alpha  occ. eigenvalues --  -19.19275 -19.12849 -14.38381 -14.34497 -10.35090
 Alpha  occ. eigenvalues --  -10.28449 -10.28322 -10.26655 -10.22737 -10.20481
 Alpha  occ. eigenvalues --  -10.20268 -10.20121 -10.18498 -10.17872 -10.17760
 Alpha  occ. eigenvalues --   -8.58586  -6.53991  -6.52725  -6.52657  -2.65565
 Alpha  occ. eigenvalues --   -2.65212  -2.65158  -2.64149  -2.64148  -1.10837
 Alpha  occ. eigenvalues --   -1.01778  -0.98002  -0.92190  -0.83056  -0.81584
 Alpha  occ. eigenvalues --   -0.80429  -0.73964  -0.72283  -0.69961  -0.69631
 Alpha  occ. eigenvalues --   -0.67809  -0.63727  -0.60767  -0.55974  -0.53527
 Alpha  occ. eigenvalues --   -0.51540  -0.50229  -0.48999  -0.47981  -0.46762
 Alpha  occ. eigenvalues --   -0.44824  -0.44372  -0.43862  -0.43258  -0.41556
 Alpha  occ. eigenvalues --   -0.41278  -0.40988  -0.39941  -0.39436  -0.39083
 Alpha  occ. eigenvalues --   -0.37916  -0.36989  -0.36124  -0.35883  -0.33650
 Alpha  occ. eigenvalues --   -0.33501  -0.29988  -0.29539  -0.28897  -0.28059
 Alpha  occ. eigenvalues --   -0.27390  -0.26896  -0.23469
 Alpha virt. eigenvalues --   -0.03430  -0.02426   0.01031   0.04506   0.07113
 Alpha virt. eigenvalues --    0.08977   0.10275   0.11515   0.12552   0.12669
 Alpha virt. eigenvalues --    0.13441   0.14802   0.15438   0.15887   0.16390
 Alpha virt. eigenvalues --    0.17833   0.18238   0.18782   0.19139   0.19873
 Alpha virt. eigenvalues --    0.20167   0.20660   0.21947   0.22565   0.22781
 Alpha virt. eigenvalues --    0.24934   0.25036   0.27165   0.27628   0.30174
 Alpha virt. eigenvalues --    0.31730   0.31941   0.37391   0.38724   0.42932
 Alpha virt. eigenvalues --    0.43624   0.45944   0.46244   0.46552   0.47071
 Alpha virt. eigenvalues --    0.47774   0.48166   0.48856   0.49188   0.49555
 Alpha virt. eigenvalues --    0.50615   0.51477   0.52271   0.53237   0.53717
 Alpha virt. eigenvalues --    0.54889   0.55159   0.58026   0.58705   0.59348
 Alpha virt. eigenvalues --    0.60028   0.61060   0.62104   0.63388   0.65975
 Alpha virt. eigenvalues --    0.66293   0.66547   0.68251   0.69139   0.70000
 Alpha virt. eigenvalues --    0.70607   0.71088   0.73505   0.74761   0.75379
 Alpha virt. eigenvalues --    0.78134   0.79508   0.79911   0.81042   0.82354
 Alpha virt. eigenvalues --    0.83056   0.84012   0.84231   0.84409   0.85634
 Alpha virt. eigenvalues --    0.85869   0.86478   0.87299   0.87791   0.88177
 Alpha virt. eigenvalues --    0.89576   0.89961   0.90692   0.91676   0.92592
 Alpha virt. eigenvalues --    0.93126   0.94651   0.95921   0.96867   0.99175
 Alpha virt. eigenvalues --    1.00851   1.02531   1.03849   1.06572   1.08923
 Alpha virt. eigenvalues --    1.09320   1.12338   1.13549   1.16931   1.19497
 Alpha virt. eigenvalues --    1.20885   1.21745   1.22602   1.26946   1.27821
 Alpha virt. eigenvalues --    1.29735   1.32512   1.34314   1.37150   1.39363
 Alpha virt. eigenvalues --    1.40274   1.40913   1.42759   1.45622   1.45986
 Alpha virt. eigenvalues --    1.46710   1.49324   1.51218   1.52524   1.53752
 Alpha virt. eigenvalues --    1.55226   1.58225   1.61826   1.63856   1.65957
 Alpha virt. eigenvalues --    1.69236   1.70707   1.71319   1.73733   1.75456
 Alpha virt. eigenvalues --    1.77348   1.78561   1.79788   1.81126   1.81890
 Alpha virt. eigenvalues --    1.82798   1.84112   1.84923   1.85699   1.86702
 Alpha virt. eigenvalues --    1.86997   1.89903   1.91148   1.92715   1.96990
 Alpha virt. eigenvalues --    1.98947   2.01375   2.02644   2.02994   2.03303
 Alpha virt. eigenvalues --    2.03788   2.04055   2.04903   2.05753   2.06394
 Alpha virt. eigenvalues --    2.08107   2.08436   2.08838   2.10514   2.11458
 Alpha virt. eigenvalues --    2.12718   2.12964   2.13839   2.14375   2.14935
 Alpha virt. eigenvalues --    2.15463   2.17941   2.18561   2.20638   2.23570
 Alpha virt. eigenvalues --    2.26757   2.29024   2.29963   2.31148   2.32368
 Alpha virt. eigenvalues --    2.33242   2.35680   2.38895   2.39292   2.40927
 Alpha virt. eigenvalues --    2.42518   2.47523   2.48198   2.49472   2.51335
 Alpha virt. eigenvalues --    2.53751   2.55823   2.56909   2.58471   2.61293
 Alpha virt. eigenvalues --    2.62507   2.63746   2.64494   2.65789   2.68229
 Alpha virt. eigenvalues --    2.70718   2.71731   2.72103   2.73960   2.75174
 Alpha virt. eigenvalues --    2.76795   2.77860   2.78806   2.82103   2.83100
 Alpha virt. eigenvalues --    2.83967   2.86522   2.86854   2.89272   2.89880
 Alpha virt. eigenvalues --    2.92847   2.94846   2.95079   2.95739   3.02160
 Alpha virt. eigenvalues --    3.06826   3.12279   3.16841   3.17858   3.18791
 Alpha virt. eigenvalues --    3.19471   3.23394   3.23631   3.30782   3.39005
 Alpha virt. eigenvalues --    3.41527   3.42833   3.43247   3.43859   3.44594
 Alpha virt. eigenvalues --    3.45248   3.52249   3.52573   3.54466   3.68734
 Alpha virt. eigenvalues --    4.05169   4.09761   4.12633   4.16038   4.19767
 Alpha virt. eigenvalues --    4.24903   4.29405   4.40368   4.43252   4.49072
 Alpha virt. eigenvalues --    4.50159   4.52962   4.55689   4.72490   4.74252
 Alpha virt. eigenvalues --    8.60357  72.78012
          Condensed to atoms (all electrons):
               1          2          3          4          5          6
     1  Br  34.938488   0.279246  -0.068599   0.004017  -0.000162   0.000574
     2  C    0.279246   4.725193   0.470721  -0.020066   0.006888  -0.044279
     3  C   -0.068599   0.470721   5.009308   0.513021  -0.054923  -0.035427
     4  C    0.004017  -0.020066   0.513021   4.708886   0.353177   0.522415
     5  C   -0.000162   0.006888  -0.054923   0.353177   5.015880  -0.057042
     6  C    0.000574  -0.044279  -0.035427   0.522415  -0.057042   5.039293
     7  C    0.003529  -0.032616  -0.039367  -0.012490   0.005752   0.464299
     8  N   -0.000097   0.002773   0.001075   0.002447  -0.000115  -0.071113
     9  C    0.000001  -0.000069   0.000011  -0.000003  -0.000001  -0.002735
    10  O    0.000000   0.000004  -0.000003   0.000347  -0.000004  -0.005583
    11  C   -0.000000  -0.000000   0.000000  -0.000014   0.000000  -0.000090
    12  C    0.000000   0.000000  -0.000000  -0.000001   0.000000  -0.000012
    13  C    0.000000  -0.000000  -0.000000  -0.000011  -0.000017  -0.000086
    14  C    0.000000  -0.000000   0.000000   0.000001  -0.000000  -0.000009
    15  O   -0.000000   0.000000   0.000000  -0.000001  -0.000000   0.000032
    16  N   -0.062464   0.410935  -0.043282  -0.038096   0.000236  -0.064679
    17  H   -0.000113  -0.041528   0.365438  -0.040994  -0.009028   0.006075
    18  H    0.000002  -0.000202   0.002363  -0.028727   0.377241  -0.003752
    19  H   -0.000009   0.000158  -0.003111  -0.028008   0.377715   0.002923
    20  H    0.000003  -0.000198  -0.001043  -0.025491   0.374683  -0.001972
    21  H    0.000014   0.000124   0.006159  -0.043594  -0.008432   0.354566
    22  H   -0.000052   0.000161   0.000023   0.000008   0.000002   0.005797
    23  H    0.000000   0.000000  -0.000000   0.000000   0.000000   0.000000
    24  H    0.000000  -0.000000   0.000000   0.000002  -0.000000  -0.000063
    25  H    0.000000   0.000000  -0.000000  -0.000000   0.000000   0.000001
    26  H    0.000000   0.000000  -0.000000   0.000000   0.000000   0.000007
    27  H    0.000000  -0.000000   0.000000   0.000020  -0.000012  -0.000535
    28  H    0.000000  -0.000000  -0.000000  -0.000006  -0.000002   0.000193
    29  H    0.000000  -0.000000  -0.000000   0.000000  -0.000000   0.000001
    30  H    0.000000   0.000000  -0.000000  -0.000000   0.000000  -0.000001
    31  H    0.000000  -0.000000  -0.000000  -0.000000  -0.000000   0.000000
               7          8          9         10         11         12
     1  Br   0.003529  -0.000097   0.000001   0.000000  -0.000000   0.000000
     2  C   -0.032616   0.002773  -0.000069   0.000004  -0.000000   0.000000
     3  C   -0.039367   0.001075   0.000011  -0.000003   0.000000  -0.000000
     4  C   -0.012490   0.002447  -0.000003   0.000347  -0.000014  -0.000001
     5  C    0.005752  -0.000115  -0.000001  -0.000004   0.000000   0.000000
     6  C    0.464299  -0.071113  -0.002735  -0.005583  -0.000090  -0.000012
     7  C    4.539708   0.210803  -0.017983   0.003823   0.000015   0.000039
     8  N    0.210803   7.100087   0.298193  -0.096553   0.003842  -0.000351
     9  C   -0.017983   0.298193   4.144913   0.274757  -0.015830  -0.004062
    10  O    0.003823  -0.096553   0.274757   8.345917   0.179878  -0.042929
    11  C    0.000015   0.003842  -0.015830   0.179878   4.611759   0.380545
    12  C    0.000039  -0.000351  -0.004062  -0.042929   0.380545   5.013766
    13  C   -0.000030  -0.000188   0.004014  -0.053001   0.404546  -0.065566
    14  C   -0.000013  -0.000336  -0.004120  -0.042531   0.380612  -0.062684
    15  O    0.002254  -0.079446   0.551768  -0.075184   0.002840  -0.004887
    16  N    0.448914  -0.084213   0.001987  -0.000060   0.000001  -0.000000
    17  H    0.000352   0.000013  -0.000000   0.000000  -0.000000   0.000000
    18  H    0.000176   0.000001  -0.000002  -0.000008  -0.000002  -0.000000
    19  H   -0.000167   0.000001   0.000000  -0.000000   0.000000  -0.000000
    20  H   -0.000115   0.000002  -0.000000  -0.000000   0.000000   0.000000
    21  H   -0.028849  -0.005125   0.001816   0.010330  -0.000419  -0.000075
    22  H   -0.015638   0.326584  -0.019780   0.003043  -0.000090   0.000004
    23  H   -0.000000   0.000004   0.000188   0.002859  -0.024818   0.368494
    24  H   -0.000004  -0.000035   0.000389   0.000181  -0.026627   0.369624
    25  H   -0.000005   0.000052   0.001927  -0.003028  -0.022958   0.377904
    26  H   -0.000000   0.000002  -0.000035   0.003420  -0.028069  -0.001787
    27  H   -0.000005   0.000000  -0.000047  -0.000952  -0.024606  -0.006415
    28  H    0.000018  -0.000019   0.000031   0.000504  -0.025177   0.005694
    29  H   -0.000007   0.000024   0.001744  -0.002895  -0.022929  -0.005944
    30  H    0.000007  -0.000042   0.000431   0.000036  -0.026282   0.005310
    31  H   -0.000000   0.000003   0.000186   0.002848  -0.024804  -0.001917
              13         14         15         16         17         18
     1  Br   0.000000   0.000000  -0.000000  -0.062464  -0.000113   0.000002
     2  C   -0.000000  -0.000000   0.000000   0.410935  -0.041528  -0.000202
     3  C   -0.000000   0.000000   0.000000  -0.043282   0.365438   0.002363
     4  C   -0.000011   0.000001  -0.000001  -0.038096  -0.040994  -0.028727
     5  C   -0.000017  -0.000000  -0.000000   0.000236  -0.009028   0.377241
     6  C   -0.000086  -0.000009   0.000032  -0.064679   0.006075  -0.003752
     7  C   -0.000030  -0.000013   0.002254   0.448914   0.000352   0.000176
     8  N   -0.000188  -0.000336  -0.079446  -0.084213   0.000013   0.000001
     9  C    0.004014  -0.004120   0.551768   0.001987  -0.000000  -0.000002
    10  O   -0.053001  -0.042531  -0.075184  -0.000060   0.000000  -0.000008
    11  C    0.404546   0.380612   0.002840   0.000001  -0.000000  -0.000002
    12  C   -0.065566  -0.062684  -0.004887  -0.000000   0.000000  -0.000000
    13  C    4.980431  -0.066281   0.000162   0.000000   0.000000   0.000026
    14  C   -0.066281   5.015070  -0.004875   0.000000   0.000000   0.000000
    15  O    0.000162  -0.004875   8.090918  -0.000043   0.000000  -0.000000
    16  N    0.000000   0.000000  -0.000043   6.948162   0.005163   0.000012
    17  H    0.000000   0.000000   0.000000   0.005163   0.608401   0.000066
    18  H    0.000026   0.000000  -0.000000   0.000012   0.000066   0.580265
    19  H    0.000000  -0.000000   0.000000   0.000005   0.004739  -0.029878
    20  H    0.000000  -0.000000   0.000000   0.000016   0.000434  -0.028119
    21  H   -0.000009   0.000096   0.000012   0.004807  -0.000098   0.003624
    22  H    0.000003   0.000010   0.004435   0.006260  -0.000001   0.000000
    23  H   -0.003458  -0.001718   0.000162   0.000000  -0.000000   0.000000
    24  H   -0.006219   0.005419  -0.000083   0.000000   0.000000  -0.000000
    25  H    0.004800  -0.006053   0.008949   0.000000  -0.000000  -0.000000
    26  H    0.373254  -0.002111   0.000008   0.000000  -0.000000  -0.000001
    27  H    0.371497   0.005544  -0.000000   0.000000   0.000000   0.000235
    28  H    0.372711  -0.006208   0.000003  -0.000000   0.000000   0.000021
    29  H    0.004795   0.377289   0.009057   0.000000  -0.000000  -0.000000
    30  H   -0.006103   0.371408  -0.000080  -0.000000   0.000000  -0.000000
    31  H   -0.003264   0.367974   0.000167   0.000000  -0.000000   0.000000
              19         20         21         22         23         24
     1  Br  -0.000009   0.000003   0.000014  -0.000052   0.000000   0.000000
     2  C    0.000158  -0.000198   0.000124   0.000161   0.000000  -0.000000
     3  C   -0.003111  -0.001043   0.006159   0.000023  -0.000000   0.000000
     4  C   -0.028008  -0.025491  -0.043594   0.000008   0.000000   0.000002
     5  C    0.377715   0.374683  -0.008432   0.000002   0.000000  -0.000000
     6  C    0.002923  -0.001972   0.354566   0.005797   0.000000  -0.000063
     7  C   -0.000167  -0.000115  -0.028849  -0.015638  -0.000000  -0.000004
     8  N    0.000001   0.000002  -0.005125   0.326584   0.000004  -0.000035
     9  C    0.000000  -0.000000   0.001816  -0.019780   0.000188   0.000389
    10  O   -0.000000  -0.000000   0.010330   0.003043   0.002859   0.000181
    11  C    0.000000   0.000000  -0.000419  -0.000090  -0.024818  -0.026627
    12  C   -0.000000   0.000000  -0.000075   0.000004   0.368494   0.369624
    13  C    0.000000   0.000000  -0.000009   0.000003  -0.003458  -0.006219
    14  C   -0.000000  -0.000000   0.000096   0.000010  -0.001718   0.005419
    15  O    0.000000   0.000000   0.000012   0.004435   0.000162  -0.000083
    16  N    0.000005   0.000016   0.004807   0.006260   0.000000   0.000000
    17  H    0.004739   0.000434  -0.000098  -0.000001  -0.000000   0.000000
    18  H   -0.029878  -0.028119   0.003624   0.000000   0.000000  -0.000000
    19  H    0.577973  -0.026664   0.000072  -0.000000   0.000000   0.000000
    20  H   -0.026664   0.568149   0.000830  -0.000000   0.000000  -0.000000
    21  H    0.000072   0.000830   0.596684  -0.000248   0.000001   0.000361
    22  H   -0.000000  -0.000000  -0.000248   0.395204  -0.000000  -0.000000
    23  H    0.000000   0.000000   0.000001  -0.000000   0.606715  -0.029165
    24  H    0.000000  -0.000000   0.000361  -0.000000  -0.029165   0.610242
    25  H   -0.000000  -0.000000  -0.000010   0.000001  -0.027415  -0.030164
    26  H   -0.000000   0.000000   0.000002  -0.000000   0.001702   0.000128
    27  H   -0.000001  -0.000001   0.001955   0.000000   0.000151   0.003914
    28  H   -0.000000   0.000000  -0.000033   0.000000  -0.000002  -0.000075
    29  H   -0.000000  -0.000000  -0.000001   0.000003   0.000112  -0.000000
    30  H    0.000000  -0.000000  -0.000006  -0.000001  -0.000052  -0.000206
    31  H    0.000000   0.000000  -0.000001  -0.000000   0.001177  -0.000052
              25         26         27         28         29         30
     1  Br   0.000000   0.000000   0.000000   0.000000   0.000000   0.000000
     2  C    0.000000   0.000000  -0.000000  -0.000000  -0.000000   0.000000
     3  C   -0.000000  -0.000000   0.000000  -0.000000  -0.000000  -0.000000
     4  C   -0.000000   0.000000   0.000020  -0.000006   0.000000  -0.000000
     5  C    0.000000   0.000000  -0.000012  -0.000002  -0.000000   0.000000
     6  C    0.000001   0.000007  -0.000535   0.000193   0.000001  -0.000001
     7  C   -0.000005  -0.000000  -0.000005   0.000018  -0.000007   0.000007
     8  N    0.000052   0.000002   0.000000  -0.000019   0.000024  -0.000042
     9  C    0.001927  -0.000035  -0.000047   0.000031   0.001744   0.000431
    10  O   -0.003028   0.003420  -0.000952   0.000504  -0.002895   0.000036
    11  C   -0.022958  -0.028069  -0.024606  -0.025177  -0.022929  -0.026282
    12  C    0.377904  -0.001787  -0.006415   0.005694  -0.005944   0.005310
    13  C    0.004800   0.373254   0.371497   0.372711   0.004795  -0.006103
    14  C   -0.006053  -0.002111   0.005544  -0.006208   0.377289   0.371408
    15  O    0.008949   0.000008  -0.000000   0.000003   0.009057  -0.000080
    16  N    0.000000   0.000000   0.000000  -0.000000   0.000000  -0.000000
    17  H   -0.000000  -0.000000   0.000000   0.000000  -0.000000   0.000000
    18  H   -0.000000  -0.000001   0.000235   0.000021  -0.000000  -0.000000
    19  H   -0.000000  -0.000000  -0.000001  -0.000000  -0.000000   0.000000
    20  H   -0.000000   0.000000  -0.000001   0.000000  -0.000000  -0.000000
    21  H   -0.000010   0.000002   0.001955  -0.000033  -0.000001  -0.000006
    22  H    0.000001  -0.000000   0.000000   0.000000   0.000003  -0.000001
    23  H   -0.027415   0.001702   0.000151  -0.000002   0.000112  -0.000052
    24  H   -0.030164   0.000128   0.003914  -0.000075  -0.000000  -0.000206
    25  H    0.552027   0.000011  -0.000039  -0.000196   0.003056   0.000002
    26  H    0.000011   0.599967  -0.029057  -0.028328   0.000012   0.000154
    27  H   -0.000039  -0.029057   0.606813  -0.032032  -0.000198  -0.000065
    28  H   -0.000196  -0.028328  -0.032032   0.595353  -0.000043   0.004003
    29  H    0.003056   0.000012  -0.000198  -0.000043   0.552681  -0.029691
    30  H    0.000002   0.000154  -0.000065   0.004003  -0.029691   0.601687
    31  H    0.000142   0.001789   0.000029   0.000130  -0.027395  -0.029178
              31
     1  Br   0.000000
     2  C   -0.000000
     3  C   -0.000000
     4  C   -0.000000
     5  C   -0.000000
     6  C    0.000000
     7  C   -0.000000
     8  N    0.000003
     9  C    0.000186
    10  O    0.002848
    11  C   -0.024804
    12  C   -0.001917
    13  C   -0.003264
    14  C    0.367974
    15  O    0.000167
    16  N    0.000000
    17  H   -0.000000
    18  H    0.000000
    19  H    0.000000
    20  H    0.000000
    21  H   -0.000001
    22  H   -0.000000
    23  H    0.001177
    24  H   -0.000052
    25  H    0.000142
    26  H    0.001789
    27  H    0.000029
    28  H    0.000130
    29  H   -0.027395
    30  H   -0.029178
    31  H    0.607624
 Mulliken charges:
               1
     1  Br  -0.094380
     2  C    0.242755
     3  C   -0.122366
     4  C    0.133162
     5  C   -0.381835
     6  C   -0.108800
     7  C    0.467603
     8  N   -0.608274
     9  C    0.782310
    10  O   -0.505216
    11  C    0.278678
    12  C   -0.324752
    13  C   -0.312005
    14  C   -0.326482
    15  O   -0.506168
    16  N   -0.533661
    17  H    0.101083
    18  H    0.126659
    19  H    0.124251
    20  H    0.139485
    21  H    0.105448
    22  H    0.294273
    23  H    0.105062
    24  H    0.102432
    25  H    0.140996
    26  H    0.108934
    27  H    0.103808
    28  H    0.113461
    29  H    0.140330
    30  H    0.108667
    31  H    0.104543
 Sum of Mulliken charges =  -0.00000
 Mulliken charges with hydrogens summed into heavy atoms:
               1
     1  Br  -0.094380
     2  C    0.242755
     3  C   -0.021283
     4  C    0.133162
     5  C    0.008560
     6  C   -0.003352
     7  C    0.467603
     8  N   -0.314001
     9  C    0.782310
    10  O   -0.505216
    11  C    0.278678
    12  C    0.023738
    13  C    0.014197
    14  C    0.027059
    15  O   -0.506168
    16  N   -0.533661
 Electronic spatial extent (au):  <R**2>=           6941.2012
 Charge=             -0.0000 electrons
 Dipole moment (field-independent basis, Debye):
    X=             -1.5441    Y=              4.2011    Z=              0.2588  Tot=              4.4833
 Quadrupole moment (field-independent basis, Debye-Ang):
   XX=           -104.6438   YY=           -104.5964   ZZ=           -107.0035
   XY=             -3.5008   XZ=             -3.5613   YZ=             -2.0566
 Traceless Quadrupole moment (field-independent basis, Debye-Ang):
   XX=              0.7707   YY=              0.8182   ZZ=             -1.5889
   XY=             -3.5008   XZ=             -3.5613   YZ=             -2.0566
 Octapole moment (field-independent basis, Debye-Ang**2):
  XXX=             64.7268  YYY=             -2.8305  ZZZ=              7.7503  XYY=             59.7535
  XXY=             23.6544  XXZ=             20.0436  XZZ=             32.3576  YZZ=             -9.8661
  YYZ=              3.3443  XYZ=              6.8371
 Hexadecapole moment (field-independent basis, Debye-Ang**3):
 XXXX=          -6035.4557 YYYY=          -1390.7873 ZZZZ=           -393.4392 XXXY=           -159.2049
 XXXZ=              4.6517 YYYX=            -90.6619 YYYZ=            -13.0190 ZZZX=             43.5880
 ZZZY=             -2.7893 XXYY=          -1334.1132 XXZZ=          -1128.9612 YYZZ=           -301.8882
 XXYZ=            -22.2743 YYXZ=             -3.5814 ZZXY=            -29.0608
 N-N= 1.409336980724D+03 E-N=-1.055273865112D+04  KE= 3.237633260898D+03
 Calling FoFJK, ICntrl=      2127 FMM=F ISym2X=0 I1Cent= 0 IOpClX= 0 NMat=1 NMatS=1 NMatT=0.
 ***** Axes restored to original set *****
 -------------------------------------------------------------------
 Center     Atomic                   Forces (Hartrees/Bohr)
 Number     Number              X              Y              Z
 -------------------------------------------------------------------
      1       35          -0.002244671    0.000115374   -0.002501015
      2        6          -0.038709476    0.017749635    0.006716371
      3        6           0.003793822   -0.003120305   -0.005827102
      4        6          -0.002891578   -0.002110219    0.002686833
      5        6          -0.003602496   -0.004942864   -0.005326115
      6        6           0.002532372    0.000229559   -0.001073096
      7        6           0.017397202   -0.007451386   -0.000814770
      8        7          -0.002058973    0.002964656    0.009207127
      9        6          -0.024492188    0.001237137    0.001164017
     10        8           0.026349595   -0.001414683   -0.012708873
     11        6          -0.025266533    0.003634503    0.014978324
     12        6           0.001194031    0.000011618   -0.008855662
     13        6           0.004831855   -0.001798223   -0.001201162
     14        6           0.002240831    0.001721243   -0.008533889
     15        8           0.015817754   -0.004245286    0.006178661
     16        7           0.017301849   -0.005157791    0.005549555
     17        1           0.002358022   -0.000800092    0.001598680
     18        1          -0.002487064    0.002014443    0.000843864
     19        1           0.003153351    0.001005850   -0.001318101
     20        1           0.001695718    0.002714238    0.001446059
     21        1          -0.003876348   -0.000691208   -0.000610420
     22        1          -0.000498495   -0.000934417   -0.005436259
     23        1          -0.000623713   -0.003339680    0.003318234
     24        1           0.003896021    0.000213823    0.002250482
     25        1           0.000587691   -0.002468923   -0.002442043
     26        1          -0.003444388    0.001097297   -0.001203395
     27        1           0.001451450    0.003420335   -0.000605913
     28        1           0.000254037   -0.002661110   -0.002017895
     29        1           0.001607855    0.002840529   -0.001565566
     30        1           0.003288648   -0.002077866    0.001785779
     31        1           0.000443818    0.002243814    0.004317291
 -------------------------------------------------------------------
 Cartesian Forces:  Max     0.038709476 RMS     0.007970481

 GradGradGradGradGradGradGradGradGradGradGradGradGradGradGradGradGradGrad
 Berny optimization.
 FormGI is forming the generalized inverse of G from B-inverse, IUseBI=4.
 Internal  Forces:  Max     0.034302526 RMS     0.005251406
 Search for a local minimum.
 Step number   1 out of a maximum of  160
 All quantities printed in internal units (Hartrees-Bohrs-Radians)
 Mixed Optimization -- RFO/linear search
 Second derivative matrix not updated -- first step.
 ITU=  0
     Eigenvalues ---    0.00230   0.00230   0.00287   0.00557   0.01284
     Eigenvalues ---    0.01492   0.01699   0.01793   0.01881   0.01969
     Eigenvalues ---    0.02023   0.02080   0.02104   0.02144   0.02145
     Eigenvalues ---    0.02191   0.02230   0.02269   0.04466   0.05317
     Eigenvalues ---    0.05324   0.05359   0.05362   0.05370   0.05432
     Eigenvalues ---    0.05440   0.06839   0.07073   0.07227   0.15843
     Eigenvalues ---    0.15993   0.15996   0.15999   0.16000   0.16000
     Eigenvalues ---    0.16000   0.16000   0.16000   0.16000   0.16000
     Eigenvalues ---    0.16000   0.16000   0.16000   0.16000   0.16000
     Eigenvalues ---    0.16301   0.18133   0.22004   0.23489   0.23522
     Eigenvalues ---    0.24987   0.24989   0.24996   0.24998   0.25000
     Eigenvalues ---    0.25000   0.25000   0.28308   0.28323   0.28855
     Eigenvalues ---    0.30778   0.34740   0.34746   0.34754   0.34773
     Eigenvalues ---    0.34792   0.34800   0.34803   0.34810   0.34813
     Eigenvalues ---    0.34838   0.34839   0.34849   0.36036   0.36205
     Eigenvalues ---    0.40866   0.42012   0.43940   0.45626   0.45710
     Eigenvalues ---    0.46281   0.46809   0.48074   0.51873   0.52985
     Eigenvalues ---    0.53683   0.92565
 RFO step:  Lambda=-1.35636632D-02 EMin= 2.30000000D-03
 Linear search not attempted -- first point.
 Iteration  1 RMS(Cart)=  0.13111886 RMS(Int)=  0.00370308
 Iteration  2 RMS(Cart)=  0.00755534 RMS(Int)=  0.00022656
 Iteration  3 RMS(Cart)=  0.00001920 RMS(Int)=  0.00022641
 Iteration  4 RMS(Cart)=  0.00000000 RMS(Int)=  0.00022641
 Variable       Old X    -DE/DX   Delta X   Delta X   Delta X     New X
                                 (Linear)    (Quad)   (Total)
    R1        3.59507   0.00006   0.00000   0.00029   0.00029   3.59536
    R2        2.63602  -0.00340   0.00000  -0.00753  -0.00745   2.62857
    R3        2.56408  -0.03430   0.00000  -0.06455  -0.06453   2.49955
    R4        2.63917  -0.00111   0.00000  -0.00023  -0.00017   2.63900
    R5        2.04025   0.00284   0.00000   0.00758   0.00758   2.04783
    R6        2.86439  -0.00423   0.00000  -0.01316  -0.01316   2.85123
    R7        2.64005  -0.00473   0.00000  -0.00750  -0.00752   2.63253
    R8        2.06090   0.00212   0.00000   0.00587   0.00587   2.06676
    R9        2.06076   0.00138   0.00000   0.00383   0.00383   2.06459
   R10        2.06014   0.00316   0.00000   0.00874   0.00874   2.06888
   R11        2.65272  -0.00446   0.00000  -0.00934  -0.00942   2.64330
   R12        2.03762   0.00180   0.00000   0.00478   0.00478   2.04240
   R13        2.64460  -0.00436   0.00000  -0.00926  -0.00926   2.63534
   R14        2.56342  -0.01753   0.00000  -0.03369  -0.03375   2.52967
   R15        2.61860  -0.00966   0.00000  -0.01954  -0.01954   2.59906
   R16        1.89930   0.00545   0.00000   0.01132   0.01132   1.91062
   R17        2.56322  -0.01287   0.00000  -0.02338  -0.02338   2.53984
   R18        2.31773  -0.01707   0.00000  -0.01818  -0.01818   2.29955
   R19        2.70394   0.00807   0.00000   0.01911   0.01911   2.72305
   R20        2.91470  -0.00712   0.00000  -0.02400  -0.02400   2.89070
   R21        2.90306  -0.00354   0.00000  -0.01173  -0.01173   2.89133
   R22        2.91438  -0.00737   0.00000  -0.02484  -0.02484   2.88954
   R23        2.05939   0.00238   0.00000   0.00658   0.00658   2.06597
   R24        2.05937   0.00340   0.00000   0.00939   0.00939   2.06876
   R25        2.06001   0.00131   0.00000   0.00362   0.00362   2.06363
   R26        2.05996   0.00172   0.00000   0.00475   0.00475   2.06471
   R27        2.06045   0.00304   0.00000   0.00842   0.00842   2.06887
   R28        2.06098   0.00250   0.00000   0.00692   0.00692   2.06791
   R29        2.05984   0.00137   0.00000   0.00378   0.00378   2.06362
   R30        2.05979   0.00308   0.00000   0.00852   0.00852   2.06832
   R31        2.05920   0.00244   0.00000   0.00675   0.00675   2.06595
    A1        2.07606  -0.00060   0.00000  -0.00028  -0.00033   2.07573
    A2        2.07295  -0.01267   0.00000  -0.04607  -0.04613   2.02682
    A3        2.13417   0.01326   0.00000   0.04636   0.04642   2.18059
    A4        2.07598  -0.00596   0.00000  -0.02055  -0.02042   2.05555
    A5        2.09224   0.00368   0.00000   0.01430   0.01424   2.10647
    A6        2.11494   0.00228   0.00000   0.00624   0.00617   2.12111
    A7        2.10458   0.00292   0.00000   0.00637   0.00624   2.11081
    A8        2.07908  -0.00563   0.00000  -0.01164  -0.01171   2.06737
    A9        2.09945   0.00272   0.00000   0.00560   0.00546   2.10491
   A10        1.92839   0.00024   0.00000   0.00520   0.00518   1.93357
   A11        1.94510  -0.00111   0.00000  -0.00546  -0.00550   1.93960
   A12        1.92927   0.00136   0.00000   0.00303   0.00301   1.93228
   A13        1.86255   0.00240   0.00000   0.02310   0.02306   1.88561
   A14        1.89151  -0.00126   0.00000  -0.00916  -0.00916   1.88236
   A15        1.90506  -0.00164   0.00000  -0.01653  -0.01657   1.88848
   A16        2.07625  -0.00370   0.00000  -0.00866  -0.00882   2.06743
   A17        2.08252   0.00507   0.00000   0.02304   0.02302   2.10555
   A18        2.12419  -0.00135   0.00000  -0.01397  -0.01398   2.11020
   A19        2.17131  -0.00225   0.00000  -0.00748  -0.00742   2.16390
   A20        2.12619   0.00829   0.00000   0.02928   0.02914   2.15534
   A21        1.98514  -0.00604   0.00000  -0.02186  -0.02179   1.96335
   A22        2.30356  -0.00348   0.00000  -0.01504  -0.01508   2.28848
   A23        2.00007   0.00191   0.00000   0.00824   0.00820   2.00826
   A24        1.97862   0.00154   0.00000   0.00608   0.00604   1.98465
   A25        1.97161  -0.00828   0.00000  -0.03054  -0.03138   1.94022
   A26        2.13643  -0.00032   0.00000  -0.00034  -0.00117   2.13526
   A27        2.17425   0.00869   0.00000   0.03389   0.03303   2.20728
   A28        2.18334  -0.02474   0.00000  -0.09386  -0.09386   2.08948
   A29        1.94907  -0.00139   0.00000  -0.02587  -0.02608   1.92299
   A30        1.80880  -0.00010   0.00000  -0.00128  -0.00070   1.80810
   A31        1.94831  -0.00176   0.00000  -0.02962  -0.02979   1.91851
   A32        1.90506   0.00171   0.00000   0.02854   0.02818   1.93324
   A33        1.94152   0.00004   0.00000   0.00376   0.00247   1.94399
   A34        1.90581   0.00167   0.00000   0.02716   0.02678   1.93259
   A35        1.94574  -0.00450   0.00000  -0.02817  -0.02843   1.91731
   A36        1.94060  -0.00220   0.00000  -0.01346  -0.01365   1.92695
   A37        1.95090  -0.00277   0.00000  -0.01289  -0.01298   1.93792
   A38        1.88217   0.00278   0.00000   0.01025   0.00989   1.89205
   A39        1.87128   0.00412   0.00000   0.02526   0.02511   1.89639
   A40        1.86933   0.00324   0.00000   0.02293   0.02292   1.89225
   A41        1.94833  -0.00405   0.00000  -0.02584  -0.02602   1.92231
   A42        1.94329  -0.00161   0.00000  -0.00852  -0.00861   1.93468
   A43        1.94136  -0.00171   0.00000  -0.00818  -0.00825   1.93311
   A44        1.87963   0.00260   0.00000   0.01180   0.01161   1.89124
   A45        1.87912   0.00288   0.00000   0.01514   0.01499   1.89411
   A46        1.86850   0.00242   0.00000   0.01868   0.01869   1.88719
   A47        1.95130  -0.00288   0.00000  -0.01372  -0.01382   1.93748
   A48        1.93941  -0.00216   0.00000  -0.01292  -0.01311   1.92630
   A49        1.94637  -0.00469   0.00000  -0.02942  -0.02970   1.91667
   A50        1.86899   0.00332   0.00000   0.02362   0.02361   1.89261
   A51        1.87203   0.00420   0.00000   0.02507   0.02488   1.89691
   A52        1.88191   0.00291   0.00000   0.01141   0.01106   1.89296
   A53        2.07439  -0.00625   0.00000  -0.03457  -0.03463   2.03976
    D1        3.13246  -0.00010   0.00000  -0.00259  -0.00255   3.12991
    D2       -0.00078  -0.00003   0.00000  -0.00030  -0.00034  -0.00112
    D3       -0.00855  -0.00052   0.00000  -0.01332  -0.01354  -0.02209
    D4        3.14140  -0.00044   0.00000  -0.01103  -0.01133   3.13007
    D5        3.13132   0.00045   0.00000   0.01319   0.01320  -3.13866
    D6       -0.01086   0.00087   0.00000   0.02391   0.02393   0.01307
    D7        3.14145   0.00067   0.00000   0.02272   0.02243  -3.11931
    D8        0.01298  -0.00015   0.00000  -0.00524  -0.00546   0.00752
    D9       -0.00861   0.00060   0.00000   0.02044   0.02023   0.01162
   D10       -3.13708  -0.00023   0.00000  -0.00752  -0.00765   3.13846
   D11       -2.48440  -0.00137   0.00000  -0.02496  -0.02508  -2.50948
   D12       -0.41673   0.00108   0.00000   0.00379   0.00369  -0.41304
   D13        1.70511  -0.00083   0.00000  -0.01886  -0.01895   1.68616
   D14        0.64391  -0.00060   0.00000   0.00319   0.00327   0.64719
   D15        2.71158   0.00185   0.00000   0.03195   0.03205   2.74363
   D16       -1.44976  -0.00006   0.00000   0.00929   0.00941  -1.44036
   D17        0.00126   0.00029   0.00000   0.01220   0.01206   0.01331
   D18       -3.11801  -0.00032   0.00000  -0.00796  -0.00817  -3.12618
   D19       -3.12725  -0.00053   0.00000  -0.01568  -0.01574   3.14020
   D20        0.03667  -0.00114   0.00000  -0.03584  -0.03596   0.00071
   D21       -3.12541   0.00008   0.00000   0.00005   0.00029  -3.12511
   D22       -0.02127  -0.00011   0.00000  -0.00242  -0.00225  -0.02352
   D23       -0.00670   0.00079   0.00000   0.02120   0.02107   0.01437
   D24        3.09744   0.00060   0.00000   0.01873   0.01852   3.11596
   D25       -0.39442   0.00160   0.00000   0.05047   0.05046  -0.34396
   D26        2.79766   0.00220   0.00000   0.06929   0.06929   2.86694
   D27        2.78193   0.00150   0.00000   0.05180   0.05180   2.83373
   D28       -0.30917   0.00210   0.00000   0.07061   0.07062  -0.23855
   D29        0.02593  -0.00049   0.00000  -0.01571  -0.01551   0.01042
   D30        3.13376  -0.00062   0.00000  -0.01779  -0.01765   3.11612
   D31       -0.15313   0.00322   0.00000   0.09664   0.09632  -0.05681
   D32        3.03214   0.00064   0.00000   0.02280   0.02311   3.05525
   D33        2.93845   0.00263   0.00000   0.07807   0.07776   3.01621
   D34       -0.15946   0.00005   0.00000   0.00422   0.00454  -0.15492
   D35       -3.10350  -0.00169   0.00000  -0.05136  -0.05194   3.12774
   D36       -0.00670   0.00067   0.00000   0.02330   0.02388   0.01718
   D37       -1.08920   0.00118   0.00000   0.01792   0.01763  -1.07157
   D38       -3.13763  -0.00011   0.00000  -0.00258  -0.00257  -3.14020
   D39        1.09661  -0.00118   0.00000  -0.01965  -0.01937   1.07723
   D40       -3.00266  -0.00086   0.00000  -0.02130  -0.02127  -3.02393
   D41       -0.90171  -0.00189   0.00000  -0.03662  -0.03644  -0.93815
   D42        1.18641  -0.00113   0.00000  -0.02533  -0.02527   1.16114
   D43       -1.01315  -0.00075   0.00000  -0.02043  -0.02058  -1.03373
   D44        1.08779  -0.00178   0.00000  -0.03575  -0.03574   1.05205
   D45       -3.10727  -0.00102   0.00000  -0.02446  -0.02458  -3.13185
   D46        1.09097   0.00248   0.00000   0.03451   0.03445   1.12542
   D47       -3.09127   0.00145   0.00000   0.01919   0.01928  -3.07199
   D48       -1.00315   0.00221   0.00000   0.03048   0.03045  -0.97270
   D49       -3.13499   0.00009   0.00000   0.00319   0.00320  -3.13179
   D50        1.04686   0.00067   0.00000   0.01171   0.01166   1.05852
   D51       -1.03563  -0.00018   0.00000  -0.00076  -0.00072  -1.03635
   D52        1.06926   0.00096   0.00000   0.02039   0.02061   1.08987
   D53       -1.03207   0.00153   0.00000   0.02892   0.02906  -1.00300
   D54       -3.11456   0.00069   0.00000   0.01644   0.01669  -3.09787
   D55       -1.05659  -0.00121   0.00000  -0.01903  -0.01922  -1.07581
   D56        3.12526  -0.00063   0.00000  -0.01050  -0.01076   3.11450
   D57        1.04277  -0.00148   0.00000  -0.02298  -0.02314   1.01963
   D58       -1.18508   0.00092   0.00000   0.02237   0.02230  -1.16278
   D59        0.90208   0.00173   0.00000   0.03436   0.03415   0.93624
   D60        3.00232   0.00077   0.00000   0.02008   0.02002   3.02233
   D61        1.00491  -0.00222   0.00000  -0.03134  -0.03127   0.97364
   D62        3.09207  -0.00141   0.00000  -0.01934  -0.01941   3.07266
   D63       -1.09088  -0.00237   0.00000  -0.03362  -0.03355  -1.12443
   D64        3.10859   0.00104   0.00000   0.02443   0.02457   3.13316
   D65       -1.08744   0.00184   0.00000   0.03643   0.03643  -1.05101
   D66        1.01280   0.00088   0.00000   0.02215   0.02229   1.03509
         Item               Value     Threshold  Converged?
 Maximum Force            0.034303     0.000450     NO 
 RMS     Force            0.005251     0.000300     NO 
 Maximum Displacement     0.633468     0.001800     NO 
 RMS     Displacement     0.133683     0.001200     NO 
 Predicted change in Energy=-7.453311D-03
 GradGradGradGradGradGradGradGradGradGradGradGradGradGradGradGradGradGrad

                          Input orientation:                          
 ---------------------------------------------------------------------
 Center     Atomic      Atomic             Coordinates (Angstroms)
 Number     Number       Type             X           Y           Z
 ---------------------------------------------------------------------
      1         35           0        4.806694   -1.598383   -2.999914
      2          6           0        3.568397   -0.946686   -1.710829
      3          6           0        4.001039   -0.744301   -0.404427
      4          6           0        3.075926   -0.251870    0.518546
      5          6           0        3.475892    0.021130    1.947529
      6          6           0        1.775945   -0.000414    0.085566
      7          6           0        1.454464   -0.268332   -1.249141
      8          7           0        0.197128   -0.042476   -1.808515
      9          6           0       -1.038284    0.112150   -1.224158
     10          8           0       -0.968579   -0.049719    0.108262
     11          6           0       -2.158950    0.090424    0.908130
     12          6           0       -2.723054    1.505702    0.771271
     13          6           0       -1.665619   -0.161362    2.334388
     14          6           0       -3.189199   -0.962423    0.498025
     15          8           0       -2.032301    0.392502   -1.867670
     16          7           0        2.337207   -0.730351   -2.143163
     17          1           0        5.026006   -0.954566   -0.122354
     18          1           0        2.659540   -0.224312    2.632709
     19          1           0        4.347277   -0.572876    2.232971
     20          1           0        3.723012    1.078767    2.085124
     21          1           0        1.035276    0.394382    0.766488
     22          1           0        0.171644   -0.042871   -2.819250
     23          1           0       -3.553154    1.643641    1.469221
     24          1           0       -1.951671    2.247900    1.000557
     25          1           0       -3.085536    1.686809   -0.242796
     26          1           0       -2.497968   -0.089628    3.038533
     27          1           0       -0.907669    0.575110    2.620229
     28          1           0       -1.221825   -1.157861    2.421039
     29          1           0       -3.550800   -0.782025   -0.516476
     30          1           0       -2.746941   -1.962910    0.535111
     31          1           0       -4.040496   -0.934650    1.183394
 ---------------------------------------------------------------------
                    Distance matrix (angstroms):
                    1          2          3          4          5
     1  Br   0.000000
     2  C    1.902585   0.000000
     3  C    2.848699   1.390980   0.000000
     4  C    4.145867   2.386506   1.396496   0.000000
     5  C    5.373179   3.785341   2.528510   1.508806   0.000000
     6  C    4.610762   2.708385   2.396770   1.393073   2.521348
     7  C    4.008951   2.267605   2.724910   2.398776   3.793239
     8  N    5.008829   3.491789   4.115065   3.707632   4.986202
     9  C    6.343737   4.751789   5.176896   4.482885   5.517760
    10  O    6.738909   4.969688   5.044047   4.070285   4.810536
    11  C    8.163644   6.382558   6.353349   5.260501   5.730323
    12  C    8.975203   7.194260   7.187364   6.064742   6.481857
    13  C    8.509444   6.661489   6.320755   5.078161   5.159273
    14  C    8.750676   7.109458   7.249933   6.305323   6.891436
    15  O    7.212312   5.760715   6.311466   5.674788   6.710727
    16  N    2.754245   1.322703   2.406603   2.803452   4.312203
    17  H    2.956848   2.155908   1.083666   2.169642   2.763919
    18  H    6.182619   4.496017   3.360685   2.154953   1.093684
    19  H    5.352178   4.037319   2.665546   2.158387   1.092534
    20  H    5.848000   4.305302   3.098183   2.154874   1.094804
    21  H    5.690386   3.788439   3.385764   2.154848   2.736929
    22  H    4.892437   3.685567   4.581227   4.429380   5.800374
    23  H   10.018530   8.218211   8.141171   6.959989   7.229717
    24  H    8.744893   6.930234   6.808966   5.635416   5.942534
    25  H    8.982287   7.305152   7.493729   6.503979   7.115080
    26  H    9.596732   7.751888   7.383743   6.119228   6.073678
    27  H    8.304458   6.411637   5.914795   4.579301   4.469343
    28  H    8.119349   6.329546   5.952529   4.786540   4.866496
    29  H    8.756804   7.220565   7.552765   6.727989   7.489378
    30  H    8.347854   6.779413   6.921197   6.069078   6.682439
    31  H    9.808842   8.140757   8.199006   7.179949   7.615347
                    6          7          8          9         10
     6  C    0.000000
     7  C    1.398775   0.000000
     8  N    2.466166   1.394562   0.000000
     9  C    3.106113   2.521743   1.375364   0.000000
    10  O    2.745061   2.785942   2.243426   1.344025   0.000000
    11  C    4.020978   4.223658   3.598462   2.408946   1.440976
    12  C    4.793701   4.967989   4.192805   2.960096   2.436615
    13  C    4.114300   4.752687   4.543963   3.623756   2.335373
    14  C    5.074273   5.009787   4.199244   2.957543   2.432303
    15  O    4.297936   3.602334   2.272237   1.216870   2.287219
    16  N    2.411443   1.338646   2.272685   3.598377   4.057142
    17  H    3.393601   3.807424   5.195489   6.255196   6.066876
    18  H    2.705330   4.064837   5.081437   5.353740   4.423411
    19  H    3.398648   4.537204   5.817101   6.436247   5.748601
    20  H    2.992313   4.251859   5.371170   5.878405   5.214642
    21  H    1.080792   2.162792   2.742987   2.888249   2.155441
    22  H    3.318665   2.040025   1.011056   2.008053   3.141732
    23  H    5.746017   6.010105   5.258437   3.990529   3.376344
    24  H    4.448286   4.795239   4.213555   3.216373   2.653622
    25  H    5.156408   5.044493   4.027132   2.762945   2.760485
    26  H    5.195605   5.834192   5.546137   4.510202   3.305618
    27  H    3.735978   4.611191   4.606057   3.874365   2.589227
    28  H    3.972499   4.628608   4.598548   3.864464   2.577024
    29  H    5.417341   5.084618   4.032774   2.759184   2.755800
    30  H    4.950755   4.868978   4.224712   3.212539   2.646709
    31  H    5.992413   6.046138   5.263550   3.988154   3.372786
                   11         12         13         14         15
    11  C    0.000000
    12  C    1.529691   0.000000
    13  C    1.530027   2.518056   0.000000
    14  C    1.529080   2.526577   2.516987   0.000000
    15  O    2.795060   2.946246   4.254235   2.961545   0.000000
    16  N    5.495407   6.253007   6.032812   6.129511   4.519878
    17  H    7.333314   8.179206   7.172349   8.238600   7.394621
[...]
 Alpha virt. eigenvalues --    4.12217   4.12810   4.13699   4.14676   4.17460
 Alpha virt. eigenvalues --    4.18858   4.20434   4.21978   4.24532   4.28006
 Alpha virt. eigenvalues --    4.30389   4.30817   4.32175   4.34782   4.35380
 Alpha virt. eigenvalues --    4.36820   4.37974   4.39348   4.40210   4.40676
 Alpha virt. eigenvalues --    4.44543   4.44792   4.45759   4.47661   4.48744
 Alpha virt. eigenvalues --    4.50122   4.51038   4.55080   4.57926   4.59423
 Alpha virt. eigenvalues --    4.66558   4.67974   4.69526   4.71374   4.72483
 Alpha virt. eigenvalues --    4.75609   4.79564   4.82273   4.82954   4.84387
 Alpha virt. eigenvalues --    4.87359   4.88094   4.92855   4.95845   4.97481
 Alpha virt. eigenvalues --    5.02048   5.04003   5.08052   5.10065   5.13696
 Alpha virt. eigenvalues --    5.17434   5.18922   5.20771   5.22517   5.23699
 Alpha virt. eigenvalues --    5.28325   5.29271   5.30577   5.36299   5.37612
 Alpha virt. eigenvalues --    5.39663   5.43838   5.49108   5.50423   5.55429
 Alpha virt. eigenvalues --    5.66469   5.68745   5.70387   5.77196   5.80868
 Alpha virt. eigenvalues --    5.82913   6.01527   6.03189   6.10252   6.17035
 Alpha virt. eigenvalues --    6.19149   6.27155   6.38794   6.42280   6.54773
 Alpha virt. eigenvalues --    6.66388   6.78202   6.78252   6.92786   6.98206
 Alpha virt. eigenvalues --    7.06043   7.16342   7.40023   7.42617   7.83509
 Alpha virt. eigenvalues --   22.47973  22.50625  22.51298  22.52163  22.55102
 Alpha virt. eigenvalues --   22.70848  22.80382  22.95645  23.13746  23.30341
 Alpha virt. eigenvalues --   23.63986  32.63594  32.86986  44.13243  44.55654
          Condensed to atoms (all electrons):
               1          2          3          4          5          6
     1  Br  34.923877   0.333568  -0.095445   0.019249  -0.000824   0.000860
     2  C    0.333568   4.641573   0.476222  -0.049392   0.001357  -0.046587
     3  C   -0.095445   0.476222   5.337294   0.395133  -0.065357  -0.021331
     4  C    0.019249  -0.049392   0.395133   5.036492   0.254771   0.398932
     5  C   -0.000824   0.001357  -0.065357   0.254771   5.088517  -0.051390
     6  C    0.000860  -0.046587  -0.021331   0.398932  -0.051390   5.345743
     7  C   -0.003408  -0.061852  -0.066334  -0.015565   0.015647   0.414005
     8  N   -0.000522   0.002221   0.000079   0.006221  -0.000173  -0.055100
     9  C   -0.000021  -0.000634  -0.000066   0.001522   0.000006  -0.011325
    10  O   -0.000000   0.000228  -0.000036  -0.001759  -0.000129  -0.009630
    11  C    0.000000   0.000010  -0.000012  -0.000421  -0.000003  -0.001887
    12  C   -0.000000   0.000002  -0.000003   0.000027  -0.000001   0.000055
    13  C   -0.000000  -0.000004  -0.000016  -0.000512   0.000222   0.005302
    14  C   -0.000000   0.000001  -0.000003   0.000040   0.000002   0.000203
    15  O   -0.000000  -0.000011  -0.000009   0.000058  -0.000001  -0.000044
    16  N   -0.071031   0.579680  -0.099925   0.003987  -0.001177  -0.081439
    17  H   -0.005565  -0.009327   0.386605  -0.030212  -0.000777   0.003175
    18  H    0.000021  -0.000301   0.008000  -0.057885   0.437235  -0.014192
    19  H   -0.000019   0.001898  -0.015890  -0.050373   0.426143   0.014630
    20  H    0.000024  -0.000731  -0.000664  -0.015312   0.389658  -0.010236
    21  H    0.000140   0.000806   0.006338  -0.026456  -0.013882   0.371211
    22  H   -0.000514   0.000581   0.001373  -0.000885   0.000039   0.010390
    23  H    0.000000  -0.000000   0.000000  -0.000000   0.000000   0.000008
    24  H    0.000000   0.000000  -0.000000  -0.000007   0.000001   0.000087
    25  H    0.000000   0.000000  -0.000000  -0.000006   0.000000  -0.000022
    26  H    0.000000  -0.000000   0.000000   0.000013  -0.000003  -0.000157
    27  H    0.000000   0.000001  -0.000010   0.000001   0.000100   0.000822
    28  H    0.000000  -0.000001   0.000002   0.000144  -0.000003   0.000589
    29  H    0.000000  -0.000000   0.000000  -0.000003  -0.000000  -0.000015
    30  H    0.000000   0.000000  -0.000000  -0.000011   0.000001   0.000064
    31  H    0.000000  -0.000000   0.000000   0.000000  -0.000000   0.000005
               7          8          9         10         11         12
     1  Br  -0.003408  -0.000522  -0.000021  -0.000000   0.000000  -0.000000
     2  C   -0.061852   0.002221  -0.000634   0.000228   0.000010   0.000002
     3  C   -0.066334   0.000079  -0.000066  -0.000036  -0.000012  -0.000003
     4  C   -0.015565   0.006221   0.001522  -0.001759  -0.000421   0.000027
     5  C    0.015647  -0.000173   0.000006  -0.000129  -0.000003  -0.000001
     6  C    0.414005  -0.055100  -0.011325  -0.009630  -0.001887   0.000055
     7  C    4.624273   0.333701  -0.022379   0.000313   0.000020   0.000385
     8  N    0.333701   6.575531   0.411217  -0.092047   0.008070  -0.001868
     9  C   -0.022379   0.411217   4.239962   0.349547  -0.043908  -0.008010
    10  O    0.000313  -0.092047   0.349547   8.096937   0.162830  -0.036846
    11  C    0.000020   0.008070  -0.043908   0.162830   5.097792   0.291242
    12  C    0.000385  -0.001868  -0.008010  -0.036846   0.291242   5.236731
    13  C    0.000966   0.000417   0.003527  -0.071689   0.293406  -0.097868
    14  C    0.000406  -0.001879  -0.007812  -0.036725   0.290222  -0.095857
    15  O   -0.001453  -0.093471   0.629424  -0.084614   0.046598  -0.031445
    16  N    0.494767  -0.112547   0.001638  -0.000060   0.000022  -0.000001
    17  H    0.001447   0.000067   0.000004   0.000002   0.000000   0.000000
    18  H    0.005695  -0.000033   0.000004  -0.000025  -0.000014  -0.000001
    19  H   -0.001314   0.000004  -0.000002   0.000001   0.000001   0.000000
    20  H   -0.002047   0.000012   0.000004  -0.000004  -0.000002   0.000000
    21  H   -0.005110  -0.002151  -0.002040   0.011799  -0.000384  -0.000476
    22  H   -0.042586   0.369088  -0.030783   0.004063  -0.000289   0.000094
    23  H   -0.000012   0.000020   0.001676   0.004878  -0.022704   0.397049
    24  H    0.000008   0.000062  -0.002294   0.001854  -0.029729   0.396274
    25  H    0.000053   0.000290  -0.003805  -0.003146  -0.023028   0.407200
    26  H   -0.000044   0.000018  -0.000060   0.005157  -0.017656  -0.008056
    27  H   -0.000004  -0.000087  -0.000128  -0.000242  -0.036161  -0.014089
    28  H   -0.000038  -0.000081  -0.000123  -0.000195  -0.036189   0.013670
    29  H    0.000034   0.000294  -0.003854  -0.003107  -0.023062  -0.010647
    30  H    0.000013   0.000060  -0.002311   0.001833  -0.029534   0.013243
    31  H   -0.000013   0.000021   0.001668   0.004885  -0.022690  -0.007123
              13         14         15         16         17         18
     1  Br  -0.000000  -0.000000  -0.000000  -0.071031  -0.005565   0.000021
     2  C   -0.000004   0.000001  -0.000011   0.579680  -0.009327  -0.000301
     3  C   -0.000016  -0.000003  -0.000009  -0.099925   0.386605   0.008000
     4  C   -0.000512   0.000040   0.000058   0.003987  -0.030212  -0.057885
     5  C    0.000222   0.000002  -0.000001  -0.001177  -0.000777   0.437235
     6  C    0.005302   0.000203  -0.000044  -0.081439   0.003175  -0.014192
     7  C    0.000966   0.000406  -0.001453   0.494767   0.001447   0.005695
     8  N    0.000417  -0.001879  -0.093471  -0.112547   0.000067  -0.000033
     9  C    0.003527  -0.007812   0.629424   0.001638   0.000004   0.000004
    10  O   -0.071689  -0.036725  -0.084614  -0.000060   0.000002  -0.000025
    11  C    0.293406   0.290222   0.046598   0.000022   0.000000  -0.000014
    12  C   -0.097868  -0.095857  -0.031445  -0.000001   0.000000  -0.000001
    13  C    5.229581  -0.096659   0.001520  -0.000002   0.000000   0.000102
    14  C   -0.096659   5.236475  -0.031442  -0.000001  -0.000000   0.000002
    15  O    0.001520  -0.031442   7.947382  -0.000225   0.000000  -0.000000
    16  N   -0.000002  -0.000001  -0.000225   6.542024   0.004717   0.000061
    17  H    0.000000  -0.000000   0.000000   0.004717   0.480202  -0.000133
    18  H    0.000102   0.000002  -0.000000   0.000061  -0.000133   0.526903
    19  H    0.000001   0.000000   0.000000   0.000086   0.000281  -0.026060
    20  H   -0.000003  -0.000000   0.000000   0.000141   0.000367  -0.024319
    21  H   -0.008890  -0.000766   0.000173   0.003905  -0.000148  -0.004327
    22  H    0.000014   0.000095   0.004639   0.012260  -0.000006   0.000000
    23  H   -0.012392  -0.007095   0.000762   0.000000  -0.000000  -0.000000
    24  H   -0.011195   0.013236  -0.000251  -0.000000   0.000000   0.000001
    25  H    0.011673  -0.010688   0.007896   0.000003  -0.000000  -0.000000
    26  H    0.399651  -0.007925   0.000060  -0.000000  -0.000000   0.000004
    27  H    0.412426   0.013563  -0.000011  -0.000001   0.000000  -0.000004
    28  H    0.411988  -0.014231  -0.000011  -0.000001   0.000000   0.000120
    29  H    0.011678   0.407219   0.007900   0.000003   0.000000   0.000000
    30  H   -0.011351   0.396227  -0.000251  -0.000000   0.000000  -0.000001
    31  H   -0.012465   0.397174   0.000767   0.000000  -0.000000   0.000000
              19         20         21         22         23         24
     1  Br  -0.000019   0.000024   0.000140  -0.000514   0.000000   0.000000
     2  C    0.001898  -0.000731   0.000806   0.000581  -0.000000   0.000000
     3  C   -0.015890  -0.000664   0.006338   0.001373   0.000000  -0.000000
     4  C   -0.050373  -0.015312  -0.026456  -0.000885  -0.000000  -0.000007
     5  C    0.426143   0.389658  -0.013882   0.000039   0.000000   0.000001
     6  C    0.014630  -0.010236   0.371211   0.010390   0.000008   0.000087
     7  C   -0.001314  -0.002047  -0.005110  -0.042586  -0.000012   0.000008
     8  N    0.000004   0.000012  -0.002151   0.369088   0.000020   0.000062
     9  C   -0.000002   0.000004  -0.002040  -0.030783   0.001676  -0.002294
    10  O    0.000001  -0.000004   0.011799   0.004063   0.004878   0.001854
    11  C    0.000001  -0.000002  -0.000384  -0.000289  -0.022704  -0.029729
    12  C    0.000000   0.000000  -0.000476   0.000094   0.397049   0.396274
    13  C    0.000001  -0.000003  -0.008890   0.000014  -0.012392  -0.011195
    14  C    0.000000  -0.000000  -0.000766   0.000095  -0.007095   0.013236
    15  O    0.000000   0.000000   0.000173   0.004639   0.000762  -0.000251
    16  N    0.000086   0.000141   0.003905   0.012260   0.000000  -0.000000
    17  H    0.000281   0.000367  -0.000148  -0.000006  -0.000000   0.000000
    18  H   -0.026060  -0.024319  -0.004327   0.000000  -0.000000   0.000001
    19  H    0.520385  -0.026712   0.000283  -0.000001   0.000000   0.000000
    20  H   -0.026712   0.518648   0.001154  -0.000001  -0.000000  -0.000000
    21  H    0.000283   0.001154   0.471096  -0.000343   0.000016  -0.000009
    22  H   -0.000001  -0.000001  -0.000343   0.406302  -0.000002  -0.000005
    23  H    0.000000  -0.000000   0.000016  -0.000002   0.526217  -0.021568
    24  H    0.000000  -0.000000  -0.000009  -0.000005  -0.021568   0.519059
    25  H    0.000000  -0.000000  -0.000012   0.000016  -0.018283  -0.020437
    26  H   -0.000000   0.000000   0.000649  -0.000001   0.001537   0.000672
    27  H    0.000001  -0.000005  -0.002521  -0.000000   0.000650   0.002659
    28  H   -0.000002   0.000001  -0.002257  -0.000000  -0.000073  -0.000332
    29  H   -0.000000   0.000000  -0.000014   0.000015   0.000350  -0.000119
    30  H   -0.000000   0.000000   0.000025  -0.000005  -0.000115  -0.000486
    31  H   -0.000000   0.000000   0.000023  -0.000002   0.000041  -0.000113
              25         26         27         28         29         30
     1  Br   0.000000   0.000000   0.000000   0.000000   0.000000   0.000000
     2  C    0.000000  -0.000000   0.000001  -0.000001  -0.000000   0.000000
     3  C   -0.000000   0.000000  -0.000010   0.000002   0.000000  -0.000000
     4  C   -0.000006   0.000013   0.000001   0.000144  -0.000003  -0.000011
     5  C    0.000000  -0.000003   0.000100  -0.000003  -0.000000   0.000001
     6  C   -0.000022  -0.000157   0.000822   0.000589  -0.000015   0.000064
     7  C    0.000053  -0.000044  -0.000004  -0.000038   0.000034   0.000013
     8  N    0.000290   0.000018  -0.000087  -0.000081   0.000294   0.000060
     9  C   -0.003805  -0.000060  -0.000128  -0.000123  -0.003854  -0.002311
    10  O   -0.003146   0.005157  -0.000242  -0.000195  -0.003107   0.001833
    11  C   -0.023028  -0.017656  -0.036161  -0.036189  -0.023062  -0.029534
    12  C    0.407200  -0.008056  -0.014089   0.013670  -0.010647   0.013243
    13  C    0.011673   0.399651   0.412426   0.411988   0.011678  -0.011351
    14  C   -0.010688  -0.007925   0.013563  -0.014231   0.407219   0.396227
    15  O    0.007896   0.000060  -0.000011  -0.000011   0.007900  -0.000251
    16  N    0.000003  -0.000000  -0.000001  -0.000001   0.000003  -0.000000
    17  H   -0.000000  -0.000000   0.000000   0.000000   0.000000   0.000000
    18  H   -0.000000   0.000004  -0.000004   0.000120   0.000000  -0.000001
    19  H    0.000000  -0.000000   0.000001  -0.000002  -0.000000  -0.000000
    20  H   -0.000000   0.000000  -0.000005   0.000001   0.000000   0.000000
    21  H   -0.000012   0.000649  -0.002521  -0.002257  -0.000014   0.000025
    22  H    0.000016  -0.000001  -0.000000  -0.000000   0.000015  -0.000005
    23  H   -0.018283   0.001537   0.000650  -0.000073   0.000350  -0.000115
    24  H   -0.020437   0.000672   0.002659  -0.000332  -0.000119  -0.000486
    25  H    0.461585  -0.000074  -0.000072  -0.000355   0.002231  -0.000118
    26  H   -0.000074   0.499245  -0.017479  -0.017768  -0.000079   0.000671
    27  H   -0.000072  -0.017479   0.506207  -0.027178  -0.000355  -0.000326
    28  H   -0.000355  -0.017768  -0.027178   0.508056  -0.000070   0.002671
    29  H    0.002231  -0.000079  -0.000355  -0.000070   0.461532  -0.020417
    30  H   -0.000118   0.000671  -0.000326   0.002671  -0.020417   0.519060
    31  H    0.000351   0.001478  -0.000073   0.000662  -0.018289  -0.021585
              31
     1  Br   0.000000
     2  C   -0.000000
     3  C    0.000000
     4  C    0.000000
     5  C   -0.000000
     6  C    0.000005
     7  C   -0.000013
     8  N    0.000021
     9  C    0.001668
    10  O    0.004885
    11  C   -0.022690
    12  C   -0.007123
    13  C   -0.012465
    14  C    0.397174
    15  O    0.000767
    16  N    0.000000
    17  H   -0.000000
    18  H    0.000000
    19  H   -0.000000
    20  H    0.000000
    21  H    0.000023
    22  H   -0.000002
    23  H    0.000041
    24  H   -0.000113
    25  H    0.000351
    26  H    0.001478
    27  H   -0.000073
    28  H    0.000662
    29  H   -0.018289
    30  H   -0.021585
    31  H    0.526218
 Mulliken charges:
               1
     1  Br  -0.100391
     2  C    0.130688
     3  C   -0.245944
     4  C    0.132209
     5  C   -0.479979
     6  C   -0.262726
     7  C    0.330424
     8  N   -0.347434
     9  C    0.499356
    10  O   -0.304074
    11  C    0.097459
    12  C   -0.443682
    13  C   -0.459429
    14  C   -0.443782
    15  O   -0.403940
    16  N   -0.276881
    17  H    0.169299
    18  H    0.149147
    19  H    0.156658
    20  H    0.170026
    21  H    0.202168
    22  H    0.266458
    23  H    0.149040
    24  H    0.152633
    25  H    0.188748
    26  H    0.160148
    27  H    0.162312
    28  H    0.161006
    29  H    0.188778
    30  H    0.152644
    31  H    0.149060
 Sum of Mulliken charges =  -0.00000
 Mulliken charges with hydrogens summed into heavy atoms:
               1
     1  Br  -0.100391
     2  C    0.130688
     3  C   -0.076645
     4  C    0.132209
     5  C   -0.004148
     6  C   -0.060558
     7  C    0.330424
     8  N   -0.080976
     9  C    0.499356
    10  O   -0.304074
    11  C    0.097459
    12  C    0.046739
    13  C    0.024037
    14  C    0.046700
    15  O   -0.403940
    16  N   -0.276881
 Electronic spatial extent (au):  <R**2>=           6991.7110
 Charge=              0.0000 electrons
 Dipole moment (field-independent basis, Debye):
    X=             -2.4872    Y=              4.5982    Z=             -0.0407  Tot=              5.2279
 Quadrupole moment (field-independent basis, Debye-Ang):
   XX=           -104.6728   YY=           -107.0983   ZZ=           -109.3655
   XY=             -3.2349   XZ=             -0.0320   YZ=             -0.1574
 Traceless Quadrupole moment (field-independent basis, Debye-Ang):
   XX=              2.3727   YY=             -0.0528   ZZ=             -2.3199
   XY=             -3.2349   XZ=             -0.0320   YZ=             -0.1574
 Octapole moment (field-independent basis, Debye-Ang**2):
  XXX=             35.5379  YYY=              3.9656  ZZZ=             -0.9290  XYY=             64.2445
  XXY=             26.5477  XXZ=              0.5943  XZZ=             30.6949  YZZ=            -11.4389
  YYZ=             -0.3920  XYZ=              0.0597
 Hexadecapole moment (field-independent basis, Debye-Ang**3):
 XXXX=          -6241.5288 YYYY=          -1470.8840 ZZZZ=           -305.4244 XXXY=           -156.9971
 XXXZ=              1.4000 YYYX=           -100.4257 YYYZ=             -1.1413 ZZZX=             -0.9926
 ZZZY=             -3.0834 XXYY=          -1384.6185 XXZZ=          -1161.8267 YYZZ=           -299.0997
 XXYZ=              2.5364 YYXZ=              0.3560 ZZXY=            -24.8803
 N-N= 1.413598102673D+03 E-N=-1.058278292227D+04  KE= 3.255416168721D+03
 Unable to Open any file for archive entry.
 1\1\GINC-COMPUTE-0-35\SP\RM062X\def2TZVP\C11H15Br1N2O2\ZTAN64\14-Aug-2
 024\0\\# M062X/def2tzvp int=(grid=ultrafine) nmr=giao guess=read geom=
 check\\pyrd6.xyz\\0,1\Br,0,4.9758134604,-0.7679961349,-3.1988470951\C,
 0,3.676017868,-0.5694607437,-1.7972413744\C,0,4.1193778892,-0.57298719
 32,-0.4795490574\C,0,3.1496899135,-0.4268849191,0.5183184371\C,0,3.545
 8126385,-0.3876938891,1.9713473242\C,0,1.8111346112,-0.2934617968,0.14
 5016991\C,0,1.491664333,-0.3054219144,-1.2185930417\N,0,0.207401019,-0
 .1841891575,-1.7524993275\C,0,-1.047880639,-0.0200733793,-1.1984255563
 \O,0,-1.0092705879,0.028304975,0.1433836916\C,0,-2.2512524075,0.200568
 1336,0.922659845\C,0,-2.8973768922,1.5414497079,0.5752360799\C,0,-1.73
 63173175,0.1983420066,2.3609180791\C,0,-3.1854478874,-0.9834234588,0.6
 74476643\O,0,-2.038516858,0.0645360669,-1.9006180044\N,0,2.4229406374,
 -0.4431549417,-2.1796099431\H,0,5.1699869626,-0.6857967325,-0.24472050
 77\H,0,2.7161429824,-0.6842821,2.6177286025\H,0,4.394752821,-1.0474610
 49,2.1695482312\H,0,3.8449963803,0.6269297956,2.2589955972\H,0,1.03618
 98078,-0.1848638235,0.8870321159\H,0,0.1911579297,-0.221009112,-2.7633
 068074\H,0,-3.7470356243,1.7176980183,1.241747847\H,0,-2.1792794279,2.
 3548529251,0.7151898895\H,0,-3.2486690981,1.5499400788,-0.4559717793\H
 ,0,-2.5713202765,0.321593868,3.0557814598\H,0,-1.0307035807,1.01882581
 91,2.5190650822\H,0,-1.2333946527,-0.7457458627,2.5888235919\H,0,-3.53
 90863697,-0.9923856228,-0.355916495\H,0,-2.6673298077,-1.9241481456,0.
 8829720515\H,0,-4.0467978266,-0.9121014183,1.3454574297\\Version=ES64L
 -G16RevC.01\State=1-A\HF=-3262.3711744\RMSD=3.696e-09\Dipole=-0.155257
 3,0.1176699,2.0475705\Quadrupole=-0.323692,-1.6880585,2.0117505,-0.178
 4382,-2.2492477,0.5011049\PG=C01 [X(C11H15Br1N2O2)]\\@
 The archive entry for this job was punched.


 ... UNTIL SCIENCE IS MIXED WITH EMOTION AND APPEALS TO THE HEART AND
 IMAGINATION , IT IS LIKE DEAD INORGANIC MATTER; AND WHEN IT IS SO MIXED
 AND SO TRANSFORMED IT IS LITERATURE.

                                  -- JOHN BURROUGHS
 Job cpu time:       0 days  1 hours 15 minutes 50.0 seconds.
 Elapsed time:       0 days  0 hours  5 minutes  5.2 seconds.
 File lengths (MBytes):  RWF=    204 Int=      0 D2E=      0 Chk=     34 Scr=      1
 Normal termination of Gaussian 16 at Wed Aug 14 19:39:30 2024.
 
 
-----Kestrel cluster job statistics-----
Time info:

real	32m47.504s
user	515m2.731s
sys	0m56.416s
 
Disk space usage:
34M	/scratch/362974.kestrel.chem.wisc.edu
