 Entering Gaussian System, Link 0=/share/apps/gaussian/g16/g16
 Initial command:
 /share/apps/gaussian/g16/l1.exe "/scratch/362978.kestrel.chem.wisc.edu/Gau-104086.inp" -scrdir="/scratch/362978.kestrel.chem.wisc.edu/"
 Entering Link 1 = /share/apps/gaussian/g16/l1.exe PID=    104087.
  
 Copyright (c) 1988-2019, Gaussian, Inc.  All Rights Reserved.
  
 This is part of the Gaussian(R) 16 program.  It is based on
 the Gaussian(R) 09 system (copyright 2009, Gaussian, Inc.),
 the Gaussian(R) 03 system (copyright 2003, Gaussian, Inc.),
 the Gaussian(R) 98 system (copyright 1998, Gaussian, Inc.),
 the Gaussian(R) 94 system (copyright 1995, Gaussian, Inc.),
 the Gaussian 92(TM) system (copyright 1992, Gaussian, Inc.),
 the Gaussian 90(TM) system (copyright 1990, Gaussian, Inc.),
 the Gaussian 88(TM) system (copyright 1988, Gaussian, Inc.),
 the Gaussian 86(TM) system (copyright 1986, Carnegie Mellon
 University), and the Gaussian 82(TM) system (copyright 1983,
 Carnegie Mellon University). Gaussian is a federally registered
 trademark of Gaussian, Inc.
  
 This software contains proprietary and confidential information,
 including trade secrets, belonging to Gaussian, Inc.
  
 This software is provided under written license and may be
 used, copied, transmitted, or stored only in accord with that
 written license.
  
 The following legend is applicable only to US Government
 contracts under FAR:
  
                    RESTRICTED RIGHTS LEGEND
  
 Use, reproduction and disclosure by the US Government is
 subject to restrictions as set forth in subparagraphs (a)
 and (c) of the Commercial Computer Software - Restricted
 Rights clause in FAR 52.227-19.
  
 Gaussian, Inc.
 340 Quinnipiac St., Bldg. 40, Wallingford CT 06492
  
  
 ---------------------------------------------------------------
 Warning -- This program may not be used in any manner that
 competes with the business of Gaussian, Inc. or will provide
 assistance to any competitor of Gaussian, Inc.  The licensee
 of this program is prohibited from giving any competitor of
 Gaussian, Inc. access to this program.  By using this program,
 the user acknowledges that Gaussian, Inc. is engaged in the
 business of creating and licensing software in the field of
 computational chemistry and represents and warrants to the
 licensee that it is not a competitor of Gaussian, Inc. and that
 it will not use this program in any manner prohibited above.
 ---------------------------------------------------------------
  

 Cite this work as:
 Gaussian 16, Revision C.01,
 M. J. Frisch, G. W. Trucks, H. B. Schlegel, G. E. Scuseria, 
 M. A. Robb, J. R. Cheeseman, G. Scalmani, V. Barone, 
 G. A. Petersson, H. Nakatsuji, X. Li, M. Caricato, A. V. Marenich, 
 J. Bloino, B. G. Janesko, R. Gomperts, B. Mennucci, H. P. Hratchian, 
 J. V. Ortiz, A. F. Izmaylov, J. L. Sonnenberg, D. Williams-Young, 
 F. Ding, F. Lipparini, F. Egidi, J. Goings, B. Peng, A. Petrone, 
 T. Henderson, D. Ranasinghe, V. G. Zakrzewski, J. Gao, N. Rega, 
 G. Zheng, W. Liang, M. Hada, M. Ehara, K. Toyota, R. Fukuda, 
 J. Hasegawa, M. Ishida, T. Nakajima, Y. Honda, O. Kitao, H. Nakai, 
 T. Vreven, K. Throssell, J. A. Montgomery, Jr., J. E. Peralta, 
 F. Ogliaro, M. J. Bearpark, J. J. Heyd, E. N. Brothers, K. N. Kudin, 
 V. N. Staroverov, T. A. Keith, R. Kobayashi, J. Normand, 
 K. Raghavachari, A. P. Rendell, J. C. Burant, S. S. Iyengar, 
 J. Tomasi, M. Cossi, J. M. Millam, M. Klene, C. Adamo, R. Cammi, 
 J. W. Ochterski, R. L. Martin, K. Morokuma, O. Farkas, 
 J. B. Foresman, and D. J. Fox, Gaussian, Inc., Wallingford CT, 2019.
 
 ******************************************
 Gaussian 16:  ES64L-G16RevC.01  3-Jul-2019
                14-Aug-2024 
 ******************************************
 %nprocs=16
 Will use up to   16 processors via shared memory.
 %mem=16GB
 %chk=pyrd8_conf-1.chk
 ----------------------------------------------------------------------
 # B3LYP/6-31G(d,p) symmetry=loose empiricaldispersion=GD3BJ int=(grid=
 ultrafine) opt freq=noraman
 ----------------------------------------------------------------------
 1/18=20,19=15,26=4,38=1/1,3;
 2/9=110,12=2,17=4,18=3,40=1/2;
 3/5=1,6=6,7=101,11=2,25=1,30=1,71=1,74=-5,75=-5,124=41/1,2,3;
 4//1;
 5/5=2,38=5/2;
 6/7=2,8=2,9=2,10=2,28=1/1;
 7//1,2,3,16;
 1/18=20,19=15,26=4/3(2);
 2/9=110/2;
 99//99;
 2/9=110/2;
 3/5=1,6=6,7=101,11=2,25=1,30=1,71=1,74=-5,75=-5,124=41/1,2,3;
 4/5=5,16=3,69=1/1;
 5/5=2,38=5/2;
 7//1,2,3,16;
 1/18=20,19=15,26=4/3(-5);
 2/9=110/2;
 6/7=2,8=2,9=2,10=2,19=2,28=1/1;
 99/9=1/99;
 ---------
 pyrd8.xyz
 ---------
 Symbolic Z-matrix:
 Charge =  0 Multiplicity = 1
 Br                   -1.1258   -4.0533   -0.8878 
 C                    -0.9122   -2.2111   -0.4629 
 N                     0.3427   -1.709    -0.3452 
 C                     0.4971   -0.3904   -0.0434 
 C                     1.899     0.1298    0.0763 
 C                     2.3673    1.4159    0.3745 
 N                     3.6722    1.594     0.4148 
 C                     4.3066    0.4834    0.1565 
 S                     3.3055   -0.8893   -0.1613 
 C                    -0.6028    0.4536    0.1482 
 C                    -1.893    -0.071     0.0304 
 C                    -3.1047    0.8209    0.2177 
 C                    -2.0496   -1.4231   -0.2841 
 H                     1.738     2.2698    0.5734 
 H                     5.3818    0.4038    0.1372 
 H                    -0.4568    1.4952    0.3852 
 H                    -3.377     0.88      1.2716 
 H                    -3.959     0.45     -0.3497 
 H                    -2.9022    1.8287   -0.1465 
 H                    -3.0296   -1.8633   -0.3883 
 

 GradGradGradGradGradGradGradGradGradGradGradGradGradGradGradGradGradGrad
 Berny optimization.
 Initialization pass.
                           ----------------------------
                           !    Initial Parameters    !
                           ! (Angstroms and Degrees)  !
 --------------------------                            --------------------------
 ! Name  Definition              Value          Derivative Info.                !
 --------------------------------------------------------------------------------
 ! R1    R(1,2)                  1.9026         estimate D2E/DX2                !
 ! R2    R(2,3)                  1.3567         estimate D2E/DX2                !
 ! R3    R(2,13)                 1.3952         estimate D2E/DX2                !
 ! R4    R(3,4)                  1.3615         estimate D2E/DX2                !
 ! R5    R(4,5)                  1.5001         estimate D2E/DX2                !
 ! R6    R(4,10)                 1.3996         estimate D2E/DX2                !
 ! R7    R(5,6)                  1.4008         estimate D2E/DX2                !
 ! R8    R(5,9)                  1.7531         estimate D2E/DX2                !
 ! R9    R(6,7)                  1.3176         estimate D2E/DX2                !
 ! R10   R(6,14)                 1.0792         estimate D2E/DX2                !
 ! R11   R(7,8)                  1.3048         estimate D2E/DX2                !
 ! R12   R(8,9)                  1.7284         estimate D2E/DX2                !
 ! R13   R(8,15)                 1.0783         estimate D2E/DX2                !
 ! R14   R(10,11)                1.3977         estimate D2E/DX2                !
 ! R15   R(10,16)                1.0782         estimate D2E/DX2                !
 ! R16   R(11,12)                1.5162         estimate D2E/DX2                !
 ! R17   R(11,13)                1.397          estimate D2E/DX2                !
 ! R18   R(12,17)                1.0901         estimate D2E/DX2                !
 ! R19   R(12,18)                1.0906         estimate D2E/DX2                !
 ! R20   R(12,19)                1.0906         estimate D2E/DX2                !
 ! R21   R(13,20)                1.0794         estimate D2E/DX2                !
 ! A1    A(1,2,3)              118.7865         estimate D2E/DX2                !
 ! A2    A(1,2,13)             118.9444         estimate D2E/DX2                !
 ! A3    A(3,2,13)             122.2691         estimate D2E/DX2                !
 ! A4    A(2,3,4)              118.8519         estimate D2E/DX2                !
 ! A5    A(3,4,5)              117.3567         estimate D2E/DX2                !
 ! A6    A(3,4,10)             121.6863         estimate D2E/DX2                !
 ! A7    A(5,4,10)             120.957          estimate D2E/DX2                !
 ! A8    A(4,5,6)              130.3753         estimate D2E/DX2                !
 ! A9    A(4,5,9)              122.5059         estimate D2E/DX2                !
 ! A10   A(6,5,9)              107.1188         estimate D2E/DX2                !
 ! A11   A(5,6,7)              117.4962         estimate D2E/DX2                !
 ! A12   A(5,6,14)             124.8005         estimate D2E/DX2                !
 ! A13   A(7,6,14)             117.7033         estimate D2E/DX2                !
 ! A14   A(6,7,8)              111.1245         estimate D2E/DX2                !
 ! A15   A(7,8,9)              115.5158         estimate D2E/DX2                !
 ! A16   A(7,8,15)             123.4464         estimate D2E/DX2                !
 ! A17   A(9,8,15)             121.0378         estimate D2E/DX2                !
 ! A18   A(5,9,8)               88.7447         estimate D2E/DX2                !
 ! A19   A(4,10,11)            119.1791         estimate D2E/DX2                !
 ! A20   A(4,10,16)            120.4153         estimate D2E/DX2                !
 ! A21   A(11,10,16)           120.4055         estimate D2E/DX2                !
 ! A22   A(10,11,12)           120.4307         estimate D2E/DX2                !
 ! A23   A(10,11,13)           119.0584         estimate D2E/DX2                !
 ! A24   A(12,11,13)           120.5024         estimate D2E/DX2                !
 ! A25   A(11,12,17)           110.5455         estimate D2E/DX2                !
 ! A26   A(11,12,18)           111.2049         estimate D2E/DX2                !
 ! A27   A(11,12,19)           110.7301         estimate D2E/DX2                !
 ! A28   A(17,12,18)           109.0116         estimate D2E/DX2                !
 ! A29   A(17,12,19)           108.6113         estimate D2E/DX2                !
 ! A30   A(18,12,19)           106.6184         estimate D2E/DX2                !
 ! A31   A(2,13,11)            118.9539         estimate D2E/DX2                !
 ! A32   A(2,13,20)            119.8321         estimate D2E/DX2                !
 ! A33   A(11,13,20)           121.2139         estimate D2E/DX2                !
 ! D1    D(1,2,3,4)            179.8907         estimate D2E/DX2                !
 ! D2    D(13,2,3,4)            -0.0616         estimate D2E/DX2                !
 ! D3    D(1,2,13,11)          179.8794         estimate D2E/DX2                !
 ! D4    D(1,2,13,20)           -0.0261         estimate D2E/DX2                !
 ! D5    D(3,2,13,11)           -0.1684         estimate D2E/DX2                !
 ! D6    D(3,2,13,20)          179.9261         estimate D2E/DX2                !
 ! D7    D(2,3,4,5)           -179.8961         estimate D2E/DX2                !
 ! D8    D(2,3,4,10)             0.0568         estimate D2E/DX2                !
 ! D9    D(3,4,5,6)           -179.807          estimate D2E/DX2                !
 ! D10   D(3,4,5,9)              0.1917         estimate D2E/DX2                !
 ! D11   D(10,4,5,6)             0.2397         estimate D2E/DX2                !
 ! D12   D(10,4,5,9)          -179.7616         estimate D2E/DX2                !
 ! D13   D(3,4,10,11)            0.1777         estimate D2E/DX2                !
 ! D14   D(3,4,10,16)         -179.914          estimate D2E/DX2                !
 ! D15   D(5,4,10,11)         -179.8711         estimate D2E/DX2                !
 ! D16   D(5,4,10,16)            0.0372         estimate D2E/DX2                !
 ! D17   D(4,5,6,7)           -179.9972         estimate D2E/DX2                !
 ! D18   D(4,5,6,14)             0.0127         estimate D2E/DX2                !
 ! D19   D(9,5,6,7)              0.004          estimate D2E/DX2                !
 ! D20   D(9,5,6,14)          -179.9862         estimate D2E/DX2                !
 ! D21   D(4,5,9,8)            179.9975         estimate D2E/DX2                !
 ! D22   D(6,5,9,8)             -0.0036         estimate D2E/DX2                !
 ! D23   D(5,6,7,8)             -0.0019         estimate D2E/DX2                !
 ! D24   D(14,6,7,8)           179.9889         estimate D2E/DX2                !
 ! D25   D(6,7,8,9)             -0.0012         estimate D2E/DX2                !
 ! D26   D(6,7,8,15)          -179.9979         estimate D2E/DX2                !
 ! D27   D(7,8,9,5)              0.003          estimate D2E/DX2                !
 ! D28   D(15,8,9,5)           179.9997         estimate D2E/DX2                !
 ! D29   D(4,10,11,12)        -179.35           estimate D2E/DX2                !
 ! D30   D(4,10,11,13)          -0.4032         estimate D2E/DX2                !
 ! D31   D(16,10,11,12)          0.7417         estimate D2E/DX2                !
 ! D32   D(16,10,11,13)        179.6885         estimate D2E/DX2                !
 ! D33   D(10,11,12,17)        -86.5199         estimate D2E/DX2                !
 ! D34   D(10,11,12,18)        152.2443         estimate D2E/DX2                !
 ! D35   D(10,11,12,19)         33.8955         estimate D2E/DX2                !
 ! D36   D(13,11,12,17)         94.5486         estimate D2E/DX2                !
 ! D37   D(13,11,12,18)        -26.6872         estimate D2E/DX2                !
 ! D38   D(13,11,12,19)       -145.036          estimate D2E/DX2                !
 ! D39   D(10,11,13,2)           0.3981         estimate D2E/DX2                !
 ! D40   D(10,11,13,20)       -179.6978         estimate D2E/DX2                !
 ! D41   D(12,11,13,2)         179.3441         estimate D2E/DX2                !
 ! D42   D(12,11,13,20)         -0.7518         estimate D2E/DX2                !
 --------------------------------------------------------------------------------
 Trust Radius=3.00D-01 FncErr=1.00D-07 GrdErr=1.00D-06 EigMax=2.50D+02 EigMin=1.00D-04
 Number of steps in this run=    106 maximum allowed number of steps=    120.
 GradGradGradGradGradGradGradGradGradGradGradGradGradGradGradGradGradGrad

                          Input orientation:                          
 ---------------------------------------------------------------------
 Center     Atomic      Atomic             Coordinates (Angstroms)
 Number     Number       Type             X           Y           Z
 ---------------------------------------------------------------------
      1         35           0       -1.125800   -4.053300   -0.887800
      2          6           0       -0.912200   -2.211100   -0.462900
      3          7           0        0.342700   -1.709000   -0.345200
      4          6           0        0.497100   -0.390400   -0.043400
      5          6           0        1.899000    0.129800    0.076300
      6          6           0        2.367300    1.415900    0.374500
      7          7           0        3.672200    1.594000    0.414800
      8          6           0        4.306600    0.483400    0.156500
      9         16           0        3.305500   -0.889300   -0.161300
     10          6           0       -0.602800    0.453600    0.148200
     11          6           0       -1.893000   -0.071000    0.030400
     12          6           0       -3.104700    0.820900    0.217700
     13          6           0       -2.049600   -1.423100   -0.284100
     14          1           0        1.738000    2.269800    0.573400
     15          1           0        5.381800    0.403800    0.137200
     16          1           0       -0.456800    1.495200    0.385200
     17          1           0       -3.377000    0.880000    1.271600
     18          1           0       -3.959000    0.450000   -0.349700
     19          1           0       -2.902200    1.828700   -0.146500
     20          1           0       -3.029600   -1.863300   -0.388300
 ---------------------------------------------------------------------
                    Distance matrix (angstroms):
                    1          2          3          4          5
     1  Br   0.000000
     2  C    1.902594   0.000000
     3  N    2.818980   1.356736   0.000000
     4  C    4.094344   2.340311   1.361480   0.000000
     5  C    5.251403   3.697755   2.445591   1.500087   0.000000
     6  C    6.611149   4.960997   3.792357   2.633440   1.400815
     7  N    7.523933   6.022115   4.751103   3.772141   2.324371
     8  C    7.154242   5.905917   4.557502   3.913538   2.434749
     9  S    5.493188   4.430250   3.079596   2.854805   1.753072
    10  C    4.653920   2.751327   2.411276   1.399581   2.523692
    11  C    4.158173   2.405274   2.796869   2.412476   3.797590
    12  C    5.375500   3.803064   4.312982   3.808987   5.053180
    13  C    2.852335   1.395203   2.410098   2.758639   4.258266
    14  H    7.093522   5.308102   4.315268   2.999490   2.202868
    15  H    7.953944   6.841948   5.485359   4.952137   3.494092
    16  H    5.731836   3.829272   3.382245   2.156180   2.740352
    17  H    5.836811   4.317248   4.811770   4.283899   5.461476
    18  H    5.347549   4.046882   4.813099   4.544988   5.882191
    19  H    6.188946   4.514443   4.804600   4.060822   5.097786
    20  H    2.944496   2.147071   3.376103   3.837447   5.336609
                    6          7          8          9         10
     6  C    0.000000
     7  N    1.317614   0.000000
     8  C    2.162860   1.304843   0.000000
     9  S    2.545830   2.575488   1.728440   0.000000
    10  C    3.130292   4.432518   4.909497   4.144150   0.000000
    11  C    4.525421   5.821635   6.225616   5.266001   1.397747
    12  C    5.506487   6.823702   7.419233   6.645231   2.529673
    13  C    5.291756   6.506178   6.650575   5.383040   2.408758
    14  H    1.079224   2.054991   3.156380   3.602326   2.993112
    15  H    3.188709   2.101516   1.078315   2.464190   5.984817
    16  H    2.825233   4.130288   4.875041   4.487695   1.078154
    17  H    5.838575   7.136885   7.774217   7.059705   3.023248
    18  H    6.440458   7.754251   8.281153   7.389329   3.392933
    19  H    5.311259   6.602490   7.339512   6.776672   2.695364
    20  H    6.360939   7.583668   7.721634   6.413556   3.397825
                   11         12         13         14         15
    11  C    0.000000
    12  C    1.516174   0.000000
    13  C    1.397000   2.529936   0.000000
    14  H    4.354119   5.067305   5.358986   0.000000
    15  H    7.291060   8.497125   7.664252   4.116978   0.000000
    16  H    2.154422   2.737537   3.391379   2.335074   5.944906
    17  H    2.155745   1.090113   3.080010   5.346237   8.844784
    18  H    2.164318   1.090568   2.675559   6.051413   9.353596
    19  H    2.158388   1.090554   3.364530   4.716384   8.410439
    20  H    2.163217   2.752781   1.079367   6.382585   8.727402
                   16         17         18         19         20
    16  H    0.000000
    17  H    3.113157   0.000000
    18  H    3.727992   1.775454   0.000000
    19  H    2.524660   1.771009   1.748980   0.000000
    20  H    4.300828   3.225159   2.493317   3.702102   0.000000
 Stoichiometry    C9H7BrN2S
 Framework group  C1[X(C9H7BrN2S)]
 Deg. of freedom    54
 Full point group                 C1      NOp   1
 Largest Abelian subgroup         C1      NOp   1
 Largest concise Abelian subgroup C1      NOp   1
                         Standard orientation:                         
 ---------------------------------------------------------------------
 Center     Atomic      Atomic             Coordinates (Angstroms)
 Number     Number       Type             X           Y           Z
 ---------------------------------------------------------------------
      1         35           0       -2.903854   -1.393104   -0.000266
      2          6           0       -1.570194   -0.036192    0.002604
      3          7           0       -0.264194   -0.403744    0.003388
      4          6           0        0.691272    0.566160    0.003166
      5          6           0        2.124166    0.122233    0.001635
      6          6           0        3.306769    0.873047    0.004672
      7          7           0        4.446788    0.212397    0.002214
      8          6           0        4.243378   -1.076484   -0.002780
      9         16           0        2.586524   -1.568756   -0.004782
     10          6           0        0.358768    1.925670    0.003335
     11          6           0       -0.988556    2.297692    0.007528
     12          6           0       -1.380913    3.762147   -0.007009
     13          6           0       -1.967637    1.301205    0.002847
     14          1           0        3.351765    1.951324    0.009024
     15          1           0        5.039479   -1.803794   -0.005490
     16          1           0        1.132248    2.676764    0.001758
     17          1           0       -1.413627    4.159541    1.007561
     18          1           0       -2.355063    3.904891   -0.476045
     19          1           0       -0.666644    4.347408   -0.587179
     20          1           0       -3.018133    1.549173    0.000990
 ---------------------------------------------------------------------
 Rotational constants (GHZ):           0.8098713           0.2915713           0.2146790
 Standard basis: 6-31G(d,p) (6D, 7F)
 There are   249 symmetry adapted cartesian basis functions of A   symmetry.
 There are   249 symmetry adapted basis functions of A   symmetry.
   249 basis functions,   492 primitive gaussians,   249 cartesian basis functions
    63 alpha electrons       63 beta electrons
       nuclear repulsion energy      1089.7115817765 Hartrees.
 NAtoms=   20 NActive=   20 NUniq=   20 SFac= 1.00D+00 NAtFMM=   60 NAOKFM=F Big=F
 Integral buffers will be    131072 words long.
 Raffenetti 2 integral format.
 Two-electron integral symmetry is turned on.
 Nuclear repulsion after empirical dispersion term =     1089.6648008748 Hartrees.
 One-electron integrals computed using PRISM.
 NBasis=   249 RedAO= T EigKep=  6.88D-04  NBF=   249
 NBsUse=   249 1.00D-06 EigRej= -1.00D+00 NBFU=   249
 ExpMin= 1.17D-01 ExpMax= 5.74D+05 ExpMxC= 5.74D+03 IAcc=3 IRadAn=         5 AccDes= 0.00D+00
 Harris functional with IExCor=  402 and IRadAn=       5 diagonalized for initial guess.
 HarFok:  IExCor=  402 AccDes= 0.00D+00 IRadAn=         5 IDoV= 1 UseB2=F ITyADJ=14
 ICtDFT=  3500011 ScaDFX=  1.000000  1.000000  1.000000  1.000000
 FoFCou: FMM=F IPFlag=           0 FMFlag=      100000 FMFlg1=           0
         NFxFlg=           0 DoJE=T BraDBF=F KetDBF=T FulRan=T
         wScrn=  0.000000 ICntrl=       500 IOpCl=  0 I1Cent=   200000004 NGrid=           0
         NMat0=    1 NMatS0=      1 NMatT0=    0 NMatD0=    1 NMtDS0=    0 NMtDT0=    0
 Petite list used in FoFCou.
 Requested convergence on RMS density matrix=1.00D-08 within 128 cycles.
 Requested convergence on MAX density matrix=1.00D-06.
 Requested convergence on             energy=1.00D-06.
 No special actions if energy rises.
 Integral accuracy reduced to 1.0D-05 until final iterations.
 Initial convergence to 1.0D-05 achieved.  Increase integral accuracy.
 SCF Done:  E(RB3LYP) =  -3426.62185669     A.U. after   15 cycles
            NFock= 15  Conv=0.93D-08     -V/T= 2.0063

 **********************************************************************

            Population analysis using the SCF Density.

 **********************************************************************

 Orbital symmetries:
       Occupied  (A) (A) (A) (A) (A) (A) (A) (A) (A) (A) (A) (A)
                 (A) (A) (A) (A) (A) (A) (A) (A) (A) (A) (A) (A)
                 (A) (A) (A) (A) (A) (A) (A) (A) (A) (A) (A) (A)
                 (A) (A) (A) (A) (A) (A) (A) (A) (A) (A) (A) (A)
                 (A) (A) (A) (A) (A) (A) (A) (A) (A) (A) (A) (A)
                 (A) (A) (A)
       Virtual   (A) (A) (A) (A) (A) (A) (A) (A) (A) (A) (A) (A)
                 (A) (A) (A) (A) (A) (A) (A) (A) (A) (A) (A) (A)
                 (A) (A) (A) (A) (A) (A) (A) (A) (A) (A) (A) (A)
                 (A) (A) (A) (A) (A) (A) (A) (A) (A) (A) (A) (A)
                 (A) (A) (A) (A) (A) (A) (A) (A) (A) (A) (A) (A)
                 (A) (A) (A) (A) (A) (A) (A) (A) (A) (A) (A) (A)
                 (A) (A) (A) (A) (A) (A) (A) (A) (A) (A) (A) (A)
                 (A) (A) (A) (A) (A) (A) (A) (A) (A) (A) (A) (A)
                 (A) (A) (A) (A) (A) (A) (A) (A) (A) (A) (A) (A)
                 (A) (A) (A) (A) (A) (A) (A) (A) (A) (A) (A) (A)
                 (A) (A) (A) (A) (A) (A) (A) (A) (A) (A) (A) (A)
                 (A) (A) (A) (A) (A) (A) (A) (A) (A) (A) (A) (A)
                 (A) (A) (A) (A) (A) (A) (A) (A) (A) (A) (A) (A)
                 (A) (A) (A) (A) (A) (A) (A) (A) (A) (A) (A) (A)
                 (A) (A) (A) (A) (A) (A) (A) (A) (A) (A) (A) (A)
                 (A) (A) (A) (A) (A) (A)
 The electronic state is 1-A.
 Alpha  occ. eigenvalues -- -482.91497 -88.92227 -61.87703 -56.39828 -56.39418
 Alpha  occ. eigenvalues --  -56.39412 -14.35021 -14.33848 -10.28702 -10.26252
 Alpha  occ. eigenvalues --  -10.25244 -10.23792 -10.23318 -10.22722 -10.21330
 Alpha  occ. eigenvalues --  -10.21147 -10.20482  -8.58875  -7.98326  -6.54283
 Alpha  occ. eigenvalues --   -6.53013  -6.52943  -5.94687  -5.94344  -5.94084
 Alpha  occ. eigenvalues --   -2.65856  -2.65503  -2.65448  -2.64435  -2.64434
 Alpha  occ. eigenvalues --   -0.97890  -0.95764  -0.83562  -0.83001  -0.79872
 Alpha  occ. eigenvalues --   -0.76401  -0.73151  -0.72564  -0.65427  -0.61603
 Alpha  occ. eigenvalues --   -0.58062  -0.57011  -0.52181  -0.51018  -0.49745
 Alpha  occ. eigenvalues --   -0.45275  -0.44821  -0.43142  -0.42813  -0.42577
 Alpha  occ. eigenvalues --   -0.41299  -0.40530  -0.39556  -0.37511  -0.36622
 Alpha  occ. eigenvalues --   -0.33087  -0.29906  -0.29160  -0.28462  -0.28289
 Alpha  occ. eigenvalues --   -0.26916  -0.26812  -0.23195
 Alpha virt. eigenvalues --   -0.06468  -0.03698   0.00000   0.00512   0.02540
 Alpha virt. eigenvalues --    0.05863   0.08600   0.09858   0.11166   0.12703
 Alpha virt. eigenvalues --    0.13426   0.14375   0.15442   0.17449   0.17571
 Alpha virt. eigenvalues --    0.19295   0.22231   0.23391   0.24449   0.26681
 Alpha virt. eigenvalues --    0.29035   0.29426   0.30976   0.32643   0.35468
 Alpha virt. eigenvalues --    0.35772   0.38222   0.40545   0.41732   0.43742
 Alpha virt. eigenvalues --    0.44464   0.45655   0.46226   0.46311   0.47497
 Alpha virt. eigenvalues --    0.48701   0.49501   0.50832   0.51679   0.52917
 Alpha virt. eigenvalues --    0.53515   0.54360   0.55512   0.55862   0.57628
 Alpha virt. eigenvalues --    0.58908   0.59530   0.61174   0.62302   0.62924
 Alpha virt. eigenvalues --    0.66672   0.67327   0.68939   0.70121   0.71062
 Alpha virt. eigenvalues --    0.74417   0.74868   0.75015   0.76033   0.77852
 Alpha virt. eigenvalues --    0.78998   0.79933   0.82137   0.82957   0.83723
 Alpha virt. eigenvalues --    0.84071   0.84948   0.85475   0.86932   0.87806
 Alpha virt. eigenvalues --    0.88429   0.89446   0.89891   0.91224   0.92352
 Alpha virt. eigenvalues --    0.95384   0.98046   1.00102   1.02203   1.03317
 Alpha virt. eigenvalues --    1.06043   1.08797   1.10191   1.13918   1.18222
 Alpha virt. eigenvalues --    1.19977   1.22410   1.25564   1.26559   1.28880
 Alpha virt. eigenvalues --    1.29798   1.35628   1.38071   1.38459   1.39380
 Alpha virt. eigenvalues --    1.41728   1.43703   1.45799   1.49321   1.51241
 Alpha virt. eigenvalues --    1.53090   1.56876   1.57569   1.59908   1.67786
 Alpha virt. eigenvalues --    1.69100   1.69972   1.70517   1.74444   1.78050
 Alpha virt. eigenvalues --    1.79089   1.81485   1.83964   1.87725   1.88818
 Alpha virt. eigenvalues --    1.90087   1.94653   1.97261   2.00309   2.01750
 Alpha virt. eigenvalues --    2.02626   2.02947   2.06091   2.06718   2.08724
 Alpha virt. eigenvalues --    2.11345   2.12502   2.13570   2.16992   2.21206
 Alpha virt. eigenvalues --    2.21815   2.22970   2.27785   2.28591   2.30730
 Alpha virt. eigenvalues --    2.32077   2.32624   2.38459   2.40945   2.44418
 Alpha virt. eigenvalues --    2.47741   2.49071   2.51035   2.52012   2.52640
 Alpha virt. eigenvalues --    2.56405   2.57361   2.61054   2.63086   2.63406
 Alpha virt. eigenvalues --    2.65185   2.67041   2.70009   2.71032   2.76965
 Alpha virt. eigenvalues --    2.81883   2.82857   2.84262   2.86887   2.93996
 Alpha virt. eigenvalues --    2.98988   3.02920   3.10888   3.15396   3.18126
 Alpha virt. eigenvalues --    3.24688   3.36634   3.38489   3.41258   3.44797
 Alpha virt. eigenvalues --    3.51261   3.66740   3.94916   4.04320   4.06146
 Alpha virt. eigenvalues --    4.09348   4.13987   4.18941   4.28052   4.32586
 Alpha virt. eigenvalues --    4.35257   4.43832   4.54248   4.73073   8.60082
 Alpha virt. eigenvalues --   72.77894
          Condensed to atoms (all electrons):
               1          2          3          4          5          6
     1  Br  34.936520   0.279383  -0.063541   0.003728  -0.000181   0.000001
     2  C    0.279383   4.742024   0.398848  -0.026363   0.005666  -0.000069
     3  N   -0.063541   0.398848   6.960209   0.428120  -0.078758   0.002611
     4  C    0.003728  -0.026363   0.428120   4.666952   0.287690  -0.009932
     5  C   -0.000181   0.005666  -0.078758   0.287690   5.439729   0.516256
     6  C    0.000001  -0.000069   0.002611  -0.009932   0.516256   4.734074
     7  N   -0.000000   0.000001  -0.000064   0.006136  -0.051173   0.476504
     8  C   -0.000000  -0.000002   0.000166   0.004897  -0.050052  -0.116141
     9  S   -0.000088  -0.000108   0.018784  -0.035934   0.307291  -0.096785
    10  C    0.000663  -0.047670  -0.067443   0.457041  -0.084617  -0.011701
    11  C    0.004080  -0.020451  -0.035791  -0.010185   0.005105   0.000154
    12  C   -0.000157   0.006709   0.000258   0.005667  -0.000227   0.000005
    13  C   -0.070755   0.458556  -0.041297  -0.040744   0.001185  -0.000006
    14  H   -0.000000   0.000002  -0.000039  -0.002741  -0.058868   0.384740
    15  H    0.000000   0.000000  -0.000001  -0.000042   0.002284   0.006084
    16  H    0.000015   0.000192   0.004834  -0.032302  -0.008979   0.003223
    17  H    0.000003  -0.000184   0.000014  -0.000168   0.000005  -0.000000
    18  H   -0.000009   0.000173   0.000006  -0.000155   0.000003  -0.000000
    19  H    0.000002  -0.000201   0.000011   0.000201   0.000001  -0.000002
    20  H    0.000010  -0.040335   0.004858   0.000284   0.000022   0.000000
               7          8          9         10         11         12
     1  Br  -0.000000  -0.000000  -0.000088   0.000663   0.004080  -0.000157
     2  C    0.000001  -0.000002  -0.000108  -0.047670  -0.020451   0.006709
     3  N   -0.000064   0.000166   0.018784  -0.067443  -0.035791   0.000258
     4  C    0.006136   0.004897  -0.035934   0.457041  -0.010185   0.005667
     5  C   -0.051173  -0.050052   0.307291  -0.084617   0.005105  -0.000227
     6  C    0.476504  -0.116141  -0.096785  -0.011701   0.000154   0.000005
     7  N    6.602536   0.503971  -0.084002  -0.000091  -0.000004   0.000000
     8  C    0.503971   5.056480   0.288911  -0.000005   0.000001  -0.000000
     9  S   -0.084002   0.288911  15.345696   0.006756  -0.000100   0.000003
    10  C   -0.000091  -0.000005   0.006756   5.073181   0.522601  -0.056007
    11  C   -0.000004   0.000001  -0.000100   0.522601   4.696955   0.353473
    12  C    0.000000  -0.000000   0.000003  -0.056007   0.353473   5.014581
    13  C   -0.000000   0.000000   0.000125  -0.034253   0.513758  -0.056509
    14  H   -0.046432   0.008864   0.004572   0.000382   0.000049  -0.000001
    15  H   -0.034795   0.381267  -0.051694   0.000001  -0.000000   0.000000
    16  H    0.000043   0.000008  -0.000155   0.359731  -0.043562  -0.007837
    17  H   -0.000000   0.000000  -0.000000  -0.002087  -0.024991   0.374846
    18  H    0.000000   0.000000  -0.000000   0.002835  -0.028308   0.377745
    19  H   -0.000000  -0.000000  -0.000000  -0.003960  -0.028555   0.377723
    20  H    0.000000  -0.000000  -0.000003   0.005878  -0.040994  -0.008846
              13         14         15         16         17         18
     1  Br  -0.070755  -0.000000   0.000000   0.000015   0.000003  -0.000009
     2  C    0.458556   0.000002   0.000000   0.000192  -0.000184   0.000173
     3  N   -0.041297  -0.000039  -0.000001   0.004834   0.000014   0.000006
     4  C   -0.040744  -0.002741  -0.000042  -0.032302  -0.000168  -0.000155
     5  C    0.001185  -0.058868   0.002284  -0.008979   0.000005   0.000003
     6  C   -0.000006   0.384740   0.006084   0.003223  -0.000000  -0.000000
     7  N   -0.000000  -0.046432  -0.034795   0.000043  -0.000000   0.000000
     8  C    0.000000   0.008864   0.381267   0.000008   0.000000   0.000000
     9  S    0.000125   0.004572  -0.051694  -0.000155  -0.000000  -0.000000
    10  C   -0.034253   0.000382   0.000001   0.359731  -0.002087   0.002835
    11  C    0.513758   0.000049  -0.000000  -0.043562  -0.024991  -0.028308
    12  C   -0.056509  -0.000001   0.000000  -0.007837   0.374846   0.377745
    13  C    5.016843   0.000002  -0.000000   0.006031  -0.001210  -0.003178
    14  H    0.000002   0.603721  -0.000168   0.002618  -0.000000  -0.000000
    15  H   -0.000000  -0.000168   0.558122   0.000000  -0.000000  -0.000000
    16  H    0.006031   0.002618   0.000000   0.616261   0.000725   0.000030
    17  H   -0.001210  -0.000000  -0.000000   0.000725   0.564905  -0.026696
    18  H   -0.003178  -0.000000  -0.000000   0.000030  -0.026696   0.576852
    19  H    0.002586  -0.000001   0.000000   0.004103  -0.027560  -0.029861
    20  H    0.366318   0.000000  -0.000000  -0.000107   0.000502   0.004525
              19         20
     1  Br   0.000002   0.000010
     2  C   -0.000201  -0.040335
     3  N    0.000011   0.004858
     4  C    0.000201   0.000284
     5  C    0.000001   0.000022
     6  C   -0.000002   0.000000
     7  N   -0.000000   0.000000
     8  C   -0.000000  -0.000000
     9  S   -0.000000  -0.000003
    10  C   -0.003960   0.005878
    11  C   -0.028555  -0.040994
    12  C    0.377723  -0.008846
    13  C    0.002586   0.366318
    14  H   -0.000001   0.000000
    15  H    0.000000  -0.000000
    16  H    0.004103  -0.000107
    17  H   -0.027560   0.000502
    18  H   -0.029861   0.004525
    19  H    0.578499   0.000065
    20  H    0.000065   0.601293
 Mulliken charges:
               1
     1  Br  -0.089674
     2  C    0.243829
     3  N   -0.531786
     4  C    0.297851
     5  C   -0.232380
     6  C    0.110984
     7  N   -0.372629
     8  C   -0.078366
     9  S    0.296731
    10  C   -0.121233
    11  C    0.136765
    12  C   -0.381425
    13  C   -0.117453
    14  H    0.103301
    15  H    0.138942
    16  H    0.095128
    17  H    0.141897
    18  H    0.126039
    19  H    0.126948
    20  H    0.106530
 Sum of Mulliken charges =  -0.00000
 Mulliken charges with hydrogens summed into heavy atoms:
               1
     1  Br  -0.089674
     2  C    0.243829
     3  N   -0.531786
     4  C    0.297851
     5  C   -0.232380
     6  C    0.214285
     7  N   -0.372629
     8  C    0.060577
     9  S    0.296731
    10  C   -0.026105
    11  C    0.136765
    12  C    0.013460
    13  C   -0.010923
 Electronic spatial extent (au):  <R**2>=           4477.1997
 Charge=             -0.0000 electrons
 Dipole moment (field-independent basis, Debye):
    X=             -0.8852    Y=              2.8311    Z=              0.0235  Tot=              2.9664
 Quadrupole moment (field-independent basis, Debye-Ang):
   XX=            -96.3859   YY=            -81.6683   ZZ=            -95.6801
   XY=             -8.6003   XZ=             -0.0414   YZ=              0.1073
 Traceless Quadrupole moment (field-independent basis, Debye-Ang):
   XX=             -5.1412   YY=              9.5765   ZZ=             -4.4353
   XY=             -8.6003   XZ=             -0.0414   YZ=              0.1073
 Octapole moment (field-independent basis, Debye-Ang**2):
  XXX=           -134.0856  YYY=            -19.8188  ZZZ=              0.5701  XYY=            -22.5914
  XXY=            -43.8226  XXZ=             -0.6426  XZZ=            -31.8077  YZZ=            -15.3197
  YYZ=              0.2359  XYZ=             -0.1054
 Hexadecapole moment (field-independent basis, Debye-Ang**3):
 XXXX=          -3932.0775 YYYY=          -1494.7102 ZZZZ=           -107.9133 XXXY=            -71.1977
 XXXZ=              1.5744 YYYX=             96.7115 YYYZ=              0.6869 ZZZX=             -0.8647
 ZZZY=              2.5179 XXYY=           -772.1324 XXZZ=           -661.8974 YYZZ=           -289.6080
 XXYZ=             -1.4498 YYXZ=             -1.1970 ZZXY=             40.6470
 N-N= 1.089664800875D+03 E-N=-1.031778390159D+04  KE= 3.405154730432D+03
 Calling FoFJK, ICntrl=      2127 FMM=F ISym2X=0 I1Cent= 0 IOpClX= 0 NMat=1 NMatS=1 NMatT=0.
 ***** Axes restored to original set *****
 -------------------------------------------------------------------
 Center     Atomic                   Forces (Hartrees/Bohr)
 Number     Number              X              Y              Z
 -------------------------------------------------------------------
      1       35           0.003200484    0.000034964   -0.000054190
      2        6           0.028292355    0.031503011    0.007913135
      3        7          -0.016739051   -0.007267662   -0.002047160
      4        6           0.013433666   -0.007454944   -0.001055731
      5        6          -0.009659657    0.001040379    0.000156397
      6        6          -0.049261568   -0.016718820   -0.003834314
      7        7           0.039788283    0.007989104    0.001815013
      8        6           0.005424161   -0.003036389   -0.000705492
      9       16          -0.009126828   -0.001709746   -0.000405263
     10        6          -0.002224617   -0.007215091   -0.000743268
     11        6          -0.002717275    0.006972695   -0.001726375
     12        6           0.005474410   -0.003463313   -0.005177484
     13        6           0.002198553   -0.005129303   -0.000347532
     14        1          -0.005794111    0.001119060    0.000269468
     15        1           0.003387027   -0.001110841   -0.000251716
     16        1          -0.000043188    0.004120056    0.000564857
     17        1          -0.002028678    0.000768240    0.002691555
     18        1          -0.001869112   -0.002603966    0.001534021
     19        1           0.001550379    0.002453889    0.001829063
     20        1          -0.003285232   -0.000291321   -0.000424983
 -------------------------------------------------------------------
 Cartesian Forces:  Max     0.049261568 RMS     0.011075617

 GradGradGradGradGradGradGradGradGradGradGradGradGradGradGradGradGradGrad
 Berny optimization.
 FormGI is forming the generalized inverse of G from B-inverse, IUseBI=4.
 Internal  Forces:  Max     0.043711286 RMS     0.007720866
 Search for a local minimum.
 Step number   1 out of a maximum of  106
 All quantities printed in internal units (Hartrees-Bohrs-Radians)
 Mixed Optimization -- RFO/linear search
 Second derivative matrix not updated -- first step.
 ITU=  0
     Eigenvalues ---    0.00552   0.00765   0.01341   0.01483   0.01622
     Eigenvalues ---    0.01650   0.02106   0.02117   0.02126   0.02139
     Eigenvalues ---    0.02140   0.02187   0.02210   0.02288   0.02581
     Eigenvalues ---    0.07098   0.07196   0.16000   0.16000   0.16000
     Eigenvalues ---    0.16000   0.16000   0.16000   0.16000   0.18125
     Eigenvalues ---    0.23227   0.23488   0.23521   0.23682   0.24996
     Eigenvalues ---    0.25000   0.25000   0.25000   0.25000   0.29774
     Eigenvalues ---    0.30738   0.31807   0.32368   0.34747   0.34749
     Eigenvalues ---    0.34800   0.36071   0.36088   0.36199   0.36218
     Eigenvalues ---    0.42279   0.43597   0.43839   0.45905   0.46234
     Eigenvalues ---    0.51280   0.52679   0.60076   0.63124
 RFO step:  Lambda=-1.29934477D-02 EMin= 5.51995677D-03
 Linear search not attempted -- first point.
 Iteration  1 RMS(Cart)=  0.05302780 RMS(Int)=  0.00052803
 Iteration  2 RMS(Cart)=  0.00081949 RMS(Int)=  0.00007181
 Iteration  3 RMS(Cart)=  0.00000018 RMS(Int)=  0.00007181
 Variable       Old X    -DE/DX   Delta X   Delta X   Delta X     New X
                                 (Linear)    (Quad)   (Total)
    R1        3.59538  -0.00038   0.00000  -0.00196  -0.00196   3.59342
    R2        2.56386  -0.03510   0.00000  -0.06609  -0.06606   2.49780
    R3        2.63655  -0.00119   0.00000  -0.00311  -0.00301   2.63354
    R4        2.57282  -0.01863   0.00000  -0.03624  -0.03633   2.53650
    R5        2.83475  -0.02814   0.00000  -0.08357  -0.08357   2.75118
    R6        2.64482   0.00102   0.00000   0.00266   0.00256   2.64738
    R7        2.64716  -0.01658   0.00000  -0.03550  -0.03546   2.61169
    R8        3.31283  -0.00334   0.00000  -0.01598  -0.01593   3.29690
    R9        2.48993   0.04371   0.00000   0.07091   0.07089   2.56082
   R10        2.03944   0.00431   0.00000   0.01154   0.01154   2.05098
   R11        2.46580   0.00701   0.00000   0.01244   0.01238   2.47817
   R12        3.26628   0.00403   0.00000   0.01053   0.01051   3.27678
   R13        2.03772   0.00346   0.00000   0.00924   0.00924   2.04696
   R14        2.64136  -0.00516   0.00000  -0.00839  -0.00841   2.63295
   R15        2.03742   0.00410   0.00000   0.01092   0.01092   2.04834
   R16        2.86515  -0.00406   0.00000  -0.01269  -0.01269   2.85247
   R17        2.63995  -0.00230   0.00000  -0.00289  -0.00281   2.63714
   R18        2.06001   0.00315   0.00000   0.00873   0.00873   2.06874
   R19        2.06087   0.00155   0.00000   0.00430   0.00430   2.06518
   R20        2.06085   0.00194   0.00000   0.00539   0.00539   2.06624
   R21        2.03971   0.00314   0.00000   0.00841   0.00841   2.04812
    A1        2.07322  -0.01250   0.00000  -0.04518  -0.04525   2.02797
    A2        2.07597  -0.00108   0.00000  -0.00173  -0.00180   2.07417
    A3        2.13400   0.01358   0.00000   0.04691   0.04704   2.18103
    A4        2.07436  -0.00635   0.00000  -0.03517  -0.03523   2.03913
    A5        2.04826  -0.00962   0.00000  -0.03565  -0.03557   2.01269
    A6        2.12383   0.00684   0.00000   0.02418   0.02401   2.14784
    A7        2.11110   0.00278   0.00000   0.01147   0.01155   2.12265
    A8        2.27548  -0.00224   0.00000  -0.00535  -0.00540   2.27008
    A9        2.13813  -0.00626   0.00000  -0.02064  -0.02069   2.11744
   A10        1.86958   0.00849   0.00000   0.02600   0.02609   1.89567
   A11        2.05070  -0.00629   0.00000  -0.02074  -0.02072   2.02997
   A12        2.17818  -0.00097   0.00000  -0.01342  -0.01343   2.16475
   A13        2.05431   0.00726   0.00000   0.03416   0.03415   2.08846
   A14        1.93949  -0.00436   0.00000  -0.00031  -0.00042   1.93907
   A15        2.01613  -0.00345   0.00000  -0.01062  -0.01069   2.00544
   A16        2.15455   0.00262   0.00000   0.01048   0.01052   2.16506
   A17        2.11251   0.00083   0.00000   0.00014   0.00017   2.11268
   A18        1.54889   0.00560   0.00000   0.00567   0.00574   1.55463
   A19        2.08007  -0.00170   0.00000  -0.00001  -0.00012   2.07995
   A20        2.10164   0.00146   0.00000   0.00356   0.00361   2.10526
   A21        2.10147   0.00024   0.00000  -0.00355  -0.00349   2.09798
   A22        2.10191   0.00472   0.00000   0.01353   0.01339   2.11530
   A23        2.07796  -0.00824   0.00000  -0.02209  -0.02210   2.05586
   A24        2.10316   0.00353   0.00000   0.00897   0.00884   2.11200
   A25        1.92938   0.00123   0.00000   0.00198   0.00196   1.93135
   A26        1.94089  -0.00055   0.00000  -0.00134  -0.00138   1.93951
   A27        1.93261  -0.00006   0.00000   0.00292   0.00289   1.93549
   A28        1.90261  -0.00166   0.00000  -0.01565  -0.01567   1.88695
   A29        1.89563  -0.00140   0.00000  -0.01170  -0.01170   1.88392
   A30        1.86084   0.00241   0.00000   0.02387   0.02381   1.88465
   A31        2.07614  -0.00412   0.00000  -0.01379  -0.01359   2.06255
   A32        2.09146   0.00311   0.00000   0.01298   0.01288   2.10434
   A33        2.11558   0.00101   0.00000   0.00081   0.00071   2.11629
    D1        3.13968  -0.00002   0.00000   0.00028   0.00028   3.13997
    D2       -0.00108   0.00012   0.00000   0.00407   0.00404   0.00297
    D3        3.13949   0.00010   0.00000   0.00341   0.00342  -3.14028
    D4       -0.00046   0.00009   0.00000   0.00282   0.00282   0.00237
    D5       -0.00294  -0.00005   0.00000  -0.00040  -0.00045  -0.00339
    D6        3.14030  -0.00006   0.00000  -0.00099  -0.00105   3.13925
    D7       -3.13978  -0.00001   0.00000  -0.00070  -0.00068  -3.14046
    D8        0.00099  -0.00010   0.00000  -0.00372  -0.00367  -0.00268
    D9       -3.13822  -0.00003   0.00000  -0.00087  -0.00085  -3.13907
   D10        0.00335  -0.00004   0.00000  -0.00103  -0.00100   0.00234
   D11        0.00418   0.00006   0.00000   0.00211   0.00209   0.00627
   D12       -3.13743   0.00006   0.00000   0.00196   0.00193  -3.13550
   D13        0.00310   0.00002   0.00000  -0.00025  -0.00019   0.00291
   D14       -3.14009   0.00005   0.00000   0.00101   0.00105  -3.13904
   D15       -3.13934  -0.00009   0.00000  -0.00339  -0.00339   3.14045
   D16        0.00065  -0.00005   0.00000  -0.00213  -0.00215  -0.00150
   D17       -3.14154  -0.00001   0.00000  -0.00027  -0.00027   3.14137
   D18        0.00022  -0.00000   0.00000  -0.00007  -0.00007   0.00015
   D19        0.00007  -0.00000   0.00000  -0.00013  -0.00013  -0.00006
   D20       -3.14135   0.00000   0.00000   0.00007   0.00006  -3.14129
   D21        3.14155   0.00001   0.00000   0.00029   0.00029  -3.14134
   D22       -0.00006   0.00000   0.00000   0.00017   0.00017   0.00011
   D23       -0.00003  -0.00000   0.00000  -0.00001  -0.00001  -0.00004
   D24        3.14140  -0.00001   0.00000  -0.00019  -0.00020   3.14120
   D25       -0.00002   0.00001   0.00000   0.00015   0.00015   0.00013
   D26       -3.14156   0.00001   0.00000   0.00020   0.00020  -3.14136
   D27        0.00005  -0.00001   0.00000  -0.00019  -0.00019  -0.00014
   D28        3.14159  -0.00001   0.00000  -0.00024  -0.00024   3.14135
   D29       -3.13025  -0.00066   0.00000  -0.02126  -0.02120   3.13173
   D30       -0.00704   0.00009   0.00000   0.00400   0.00389  -0.00314
   D31        0.01295  -0.00069   0.00000  -0.02253  -0.02244  -0.00950
   D32        3.13616   0.00006   0.00000   0.00273   0.00265   3.13881
   D33       -1.51006   0.00011   0.00000   0.01057   0.01072  -1.49934
   D34        2.65716   0.00174   0.00000   0.02994   0.03010   2.68727
   D35        0.59159  -0.00087   0.00000  -0.00089  -0.00078   0.59081
   D36        1.65019  -0.00052   0.00000  -0.01473  -0.01486   1.63533
   D37       -0.46578   0.00111   0.00000   0.00465   0.00452  -0.46126
   D38       -2.53136  -0.00151   0.00000  -0.02619  -0.02636  -2.55771
   D39        0.00695  -0.00008   0.00000  -0.00372  -0.00364   0.00331
   D40       -3.13632  -0.00007   0.00000  -0.00311  -0.00302  -3.13934
   D41        3.13015   0.00068   0.00000   0.02161   0.02146  -3.13158
   D42       -0.01312   0.00069   0.00000   0.02222   0.02208   0.00896
         Item               Value     Threshold  Converged?
 Maximum Force            0.043711     0.000450     NO 
 RMS     Force            0.007721     0.000300     NO 
 Maximum Displacement     0.264025     0.001800     NO 
 RMS     Displacement     0.053353     0.001200     NO 
 Predicted change in Energy=-6.738089D-03
 GradGradGradGradGradGradGradGradGradGradGradGradGradGradGradGradGradGrad

                          Input orientation:                          
 ---------------------------------------------------------------------
 Center     Atomic      Atomic             Coordinates (Angstroms)
 Number     Number       Type             X           Y           Z
 ---------------------------------------------------------------------
      1         35           0       -0.986084   -3.995511   -0.867885
      2          6           0       -0.844553   -2.146416   -0.447488
      3          7           0        0.381610   -1.666109   -0.333809
      4          6           0        0.496449   -0.361634   -0.039174
      5          6           0        1.860904    0.132698    0.076743
      6          6           0        2.325764    1.401405    0.367172
      7          7           0        3.671759    1.553755    0.405329
      8          6           0        4.282444    0.421918    0.148891
      9         16           0        3.230641   -0.921550   -0.160232
     10          6           0       -0.607921    0.480916    0.142735
     11          6           0       -1.891799   -0.045878    0.018564
     12          6           0       -3.113846    0.817533    0.217540
     13          6           0       -2.011840   -1.401952   -0.288219
     14          1           0        1.683023    2.254349    0.560335
     15          1           0        5.359112    0.305479    0.125309
     16          1           0       -0.469278    1.529983    0.377576
     17          1           0       -3.384946    0.864836    1.277116
     18          1           0       -3.969810    0.421929   -0.334852
     19          1           0       -2.930847    1.838236   -0.129189
     20          1           0       -2.983282   -1.869386   -0.399862
 ---------------------------------------------------------------------
                    Distance matrix (angstroms):
                    1          2          3          4          5
     1  Br   0.000000
     2  C    1.901556   0.000000
     3  N    2.753532   1.321777   0.000000
     4  C    4.011200   2.269461   1.342257   0.000000
     5  C    5.102918   3.576126   2.364862   1.455864   0.000000
     6  C    6.451388   4.827174   3.698749   2.572900   1.382049
     7  N    7.356013   5.900477   4.662502   3.734821   2.325202
     8  C    6.950173   5.765250   4.450771   3.870798   2.439817
     9  S    5.266003   4.264976   2.949826   2.793558   1.744642
    10  C    4.604645   2.703189   2.411634   1.400933   2.494135
    11  C    4.147977   2.392946   2.813841   2.409722   3.757400
    12  C    5.373166   3.791695   4.323272   3.806648   5.023641
    13  C    2.848638   1.393611   2.408414   2.726866   4.181685
    14  H    6.944400   5.174078   4.226483   2.934405   2.183324
    15  H    7.729584   6.695173   5.373404   4.910966   3.502809
    16  H    5.687649   3.786485   3.383058   2.164376   2.733616
    17  H    5.829112   4.300639   4.815362   4.278093   5.431010
    18  H    5.357286   4.046766   4.826464   4.544102   5.852374
    19  H    6.193575   4.509034   4.826455   4.073559   5.090397
    20  H    2.954362   2.157122   3.371674   3.809454   5.263234
                    6          7          8          9         10
     6  C    0.000000
     7  N    1.355127   0.000000
     8  C    2.199009   1.311393   0.000000
     9  S    2.548151   2.577126   1.733999   0.000000
    10  C    3.082885   4.419910   4.890725   4.097958   0.000000
    11  C    4.472582   5.801860   6.193310   5.199823   1.393295
    12  C    5.472902   6.828010   7.407181   6.589358   2.529539
    13  C    5.206068   6.443640   6.567768   5.266002   2.387864
    14  H    1.085330   2.114221   3.206880   3.605644   2.927094
    15  H    3.234309   2.117491   1.083203   2.473363   5.969638
    16  H    2.798018   4.141199   4.884565   4.470868   1.083935
    17  H    5.807591   7.143648   7.762599   7.001653   3.024250
    18  H    6.409872   7.760313   8.266420   7.326795   3.396154
    19  H    5.298033   6.630312   7.356279   6.751393   2.704116
    20  H    6.282705   7.527005   7.638192   6.290362   3.385361
                   11         12         13         14         15
    11  C    0.000000
    12  C    1.509460   0.000000
    13  C    1.395515   2.529095   0.000000
    14  H    4.285313   5.019154   5.266933   0.000000
    15  H    7.260204   8.488919   7.577418   4.183417   0.000000
    16  H    2.153089   2.743526   3.379204   2.278269   5.960972
    17  H    2.154726   1.094731   3.077990   5.303662   8.837313
    18  H    2.159138   1.092846   2.676259   6.009463   9.340990
    19  H    2.156695   1.093409   3.371747   4.683630   8.434307
    20  H    2.166010   2.760030   1.083817   6.300919   8.637210
                   16         17         18         19         20
    16  H    0.000000
    17  H    3.122933   0.000000
    18  H    3.740195   1.771066   0.000000
    19  H    2.532025   1.769578   1.768521   0.000000
    20  H    4.298876   3.232578   2.495514   3.717859   0.000000
 Stoichiometry    C9H7BrN2S
 Framework group  C1[X(C9H7BrN2S)]
 Deg. of freedom    54
 Full point group                 C1      NOp   1
 Largest Abelian subgroup         C1      NOp   1
 Largest concise Abelian subgroup C1      NOp   1
                         Standard orientation:                         
 ---------------------------------------------------------------------
 Center     Atomic      Atomic             Coordinates (Angstroms)
 Number     Number       Type             X           Y           Z
 ---------------------------------------------------------------------
      1         35           0       -2.784922   -1.435616    0.000499
      2          6           0       -1.509572   -0.025156    0.001574
      3          7           0       -0.238529   -0.387846    0.002450
      4          6           0        0.672758    0.597652    0.001268
      5          6           0        2.061690    0.161296    0.000791
      6          6           0        3.227388    0.903730    0.002297
      7          7           0        4.386540    0.201779    0.001588
      8          6           0        4.156617   -1.089299   -0.000415
      9         16           0        2.480191   -1.532406   -0.001777
     10          6           0        0.329616    1.955901   -0.003945
     11          6           0       -1.016239    2.316377   -0.004602
     12          6           0       -1.437471    3.765853    0.002596
     13          6           0       -1.964162    1.292217   -0.003852
     14          1           0        3.256516    1.988667    0.004301
     15          1           0        4.933880   -1.843747   -0.001106
     16          1           0        1.098739    2.719678   -0.007096
     17          1           0       -1.477029    4.151467    1.026399
     18          1           0       -2.426101    3.890956   -0.446038
     19          1           0       -0.730539    4.380215   -0.561630
     20          1           0       -3.026100    1.508876   -0.006394
 ---------------------------------------------------------------------
 Rotational constants (GHZ):           0.7974063           0.3088908           0.2229556
 Standard basis: 6-31G(d,p) (6D, 7F)
 There are   249 symmetry adapted cartesian basis functions of A   symmetry.
 There are   249 symmetry adapted basis functions of A   symmetry.
   249 basis functions,   492 primitive gaussians,   249 cartesian basis functions
    63 alpha electrons       63 beta electrons
       nuclear repulsion energy      1101.5889221839 Hartrees.
 NAtoms=   20 NActive=   20 NUniq=   20 SFac= 1.00D+00 NAtFMM=   60 NAOKFM=F Big=F
 Integral buffers will be    131072 words long.
 Raffenetti 2 integral format.
 Two-electron integral symmetry is turned on.
 Nuclear repulsion after empirical dispersion term =     1101.5416173692 Hartrees.
 One-electron integrals computed using PRISM.
 NBasis=   249 RedAO= T EigKep=  6.70D-04  NBF=   249
 NBsUse=   249 1.00D-06 EigRej= -1.00D+00 NBFU=   249
 Initial guess from the checkpoint file:  "pyrd8_conf-1.chk"
 B after Tr=     0.000000    0.000000   -0.000000
         Rot=    0.999986   -0.000060   -0.000012   -0.005355 Ang=  -0.61 deg.
 ExpMin= 1.17D-01 ExpMax= 5.74D+05 ExpMxC= 5.74D+03 IAcc=3 IRadAn=         5 AccDes= 0.00D+00
 Harris functional with IExCor=  402 and IRadAn=       5 diagonalized for initial guess.
 HarFok:  IExCor=  402 AccDes= 0.00D+00 IRadAn=         5 IDoV= 1 UseB2=F ITyADJ=14
 ICtDFT=  3500011 ScaDFX=  1.000000  1.000000  1.000000  1.000000
 FoFCou: FMM=F IPFlag=           0 FMFlag=      100000 FMFlg1=           0
         NFxFlg=           0 DoJE=T BraDBF=F KetDBF=T FulRan=T
         wScrn=  0.000000 ICntrl=       500 IOpCl=  0 I1Cent=   200000004 NGrid=           0
         NMat0=    1 NMatS0=      1 NMatT0=    0 NMatD0=    1 NMtDS0=    0 NMtDT0=    0
 Petite list used in FoFCou.
 Requested convergence on RMS density matrix=1.00D-08 within 128 cycles.
 Requested convergence on MAX density matrix=1.00D-06.
 Requested convergence on             energy=1.00D-06.
 No special actions if energy rises.
 Integral accuracy reduced to 1.0D-05 until final iterations.
 Initial convergence to 1.0D-05 achieved.  Increase integral accuracy.
 SCF Done:  E(RB3LYP) =  -3426.62829658     A.U. after   13 cycles
            NFock= 13  Conv=0.35D-08     -V/T= 2.0063
 Calling FoFJK, ICntrl=      2127 FMM=F ISym2X=0 I1Cent= 0 IOpClX= 0 NMat=1 NMatS=1 NMatT=0.
 ***** Axes restored to original set *****
 -------------------------------------------------------------------
 Center     Atomic                   Forces (Hartrees/Bohr)
 Number     Number              X              Y              Z
 -------------------------------------------------------------------
      1       35          -0.000976308   -0.005004937   -0.001106915
      2        6           0.003217897    0.004608984    0.001019643
      3        7          -0.008084896   -0.005494607   -0.001179289
      4        6           0.005376133    0.006256589    0.001458611
      5        6           0.004675693    0.005581286    0.001259273
      6        6          -0.010481574   -0.006342047   -0.001454878
      7        7           0.014537529    0.003122490    0.000757695
      8        6          -0.005801786    0.004633015    0.001033646
      9       16          -0.001597933   -0.004214247   -0.000940932
     10        6          -0.000001850   -0.001280537    0.000093644
     11        6          -0.002402019    0.002734951    0.000001050
     12        6           0.001842218   -0.000938748   -0.002300270
     13        6          -0.002156890   -0.003594535   -0.000433349
     14        1           0.001796694   -0.000219628   -0.000043205
     15        1          -0.000195153    0.000400500    0.000083120
     16        1           0.000288638   -0.000114263   -0.000256710
     17        1          -0.000393164    0.000124365    0.000455799
     18        1          -0.000303505   -0.000416434    0.000869750
     19        1           0.000087411    0.000217929    0.000919925
     20        1           0.000572862   -0.000060126   -0.000236607
 -------------------------------------------------------------------
 Cartesian Forces:  Max     0.014537529 RMS     0.003608795

 GradGradGradGradGradGradGradGradGradGradGradGradGradGradGradGradGradGrad
 Berny optimization.
 Using GEDIIS/GDIIS optimizer.
 FormGI is forming the generalized inverse of G from B-inverse, IUseBI=4.
 Internal  Forces:  Max     0.008886484 RMS     0.001974745
 Search for a local minimum.
 Step number   2 out of a maximum of  106
 All quantities printed in internal units (Hartrees-Bohrs-Radians)
 Mixed Optimization -- RFO/linear search
 Update second derivatives using D2CorX and points    1    2
 DE= -6.44D-03 DEPred=-6.74D-03 R= 9.56D-01
 TightC=F SS=  1.41D+00  RLast= 1.92D-01 DXNew= 5.0454D-01 5.7690D-01
 Trust test= 9.56D-01 RLast= 1.92D-01 DXMaxT set to 5.05D-01
 ITU=  1  0
 Use linear search instead of GDIIS.
     Eigenvalues ---    0.00552   0.00765   0.01351   0.01472   0.01616
     Eigenvalues ---    0.01663   0.02106   0.02116   0.02133   0.02139
     Eigenvalues ---    0.02140   0.02186   0.02209   0.02297   0.02578
     Eigenvalues ---    0.07061   0.07160   0.15977   0.16000   0.16000
     Eigenvalues ---    0.16000   0.16000   0.16000   0.16128   0.17991
     Eigenvalues ---    0.22526   0.23463   0.23505   0.23686   0.24909
     Eigenvalues ---    0.24999   0.25000   0.25000   0.27015   0.29604
     Eigenvalues ---    0.30634   0.31604   0.34569   0.34748   0.34777
     Eigenvalues ---    0.34837   0.36072   0.36157   0.36208   0.36528
     Eigenvalues ---    0.41770   0.43072   0.43882   0.45899   0.46222
     Eigenvalues ---    0.50224   0.55767   0.56391   0.64141
 RFO step:  Lambda=-1.11068106D-03 EMin= 5.51997928D-03
 Quartic linear search produced a step of -0.02318.
 Iteration  1 RMS(Cart)=  0.01091435 RMS(Int)=  0.00006406
 Iteration  2 RMS(Cart)=  0.00008644 RMS(Int)=  0.00001495
 Iteration  3 RMS(Cart)=  0.00000000 RMS(Int)=  0.00001495
 Variable       Old X    -DE/DX   Delta X   Delta X   Delta X     New X
                                 (Linear)    (Quad)   (Total)
    R1        3.59342   0.00518   0.00005   0.02754   0.02759   3.62101
    R2        2.49780  -0.00164   0.00153  -0.01028  -0.00876   2.48904
    R3        2.63354  -0.00059   0.00007  -0.00187  -0.00182   2.63173
    R4        2.53650   0.00746   0.00084   0.01001   0.01086   2.54736
    R5        2.75118   0.00381   0.00194   0.00230   0.00424   2.75542
    R6        2.64738   0.00048  -0.00006   0.00161   0.00157   2.64895
    R7        2.61169  -0.00221   0.00082  -0.00808  -0.00728   2.60442
    R8        3.29690  -0.00090   0.00037  -0.00480  -0.00445   3.29244
    R9        2.56082   0.00889  -0.00164   0.02192   0.02028   2.58109
   R10        2.05098  -0.00124  -0.00027  -0.00209  -0.00236   2.04862
   R11        2.47817  -0.00397  -0.00029  -0.00462  -0.00489   2.47329
   R12        3.27678   0.00316  -0.00024   0.00976   0.00953   3.28632
   R13        2.04696  -0.00024  -0.00021   0.00037   0.00015   2.04711
   R14        2.63295   0.00303   0.00020   0.00562   0.00582   2.63877
   R15        2.04834  -0.00013  -0.00025   0.00085   0.00059   2.04893
   R16        2.85247  -0.00159   0.00029  -0.00641  -0.00612   2.84635
   R17        2.63714   0.00288   0.00007   0.00559   0.00565   2.64279
   R18        2.06874   0.00054  -0.00020   0.00248   0.00227   2.07102
   R19        2.06518  -0.00005  -0.00010   0.00033   0.00023   2.06541
   R20        2.06624  -0.00007  -0.00013   0.00038   0.00026   2.06650
   R21        2.04812  -0.00046  -0.00019  -0.00033  -0.00053   2.04759
    A1        2.02797   0.00114   0.00105  -0.00018   0.00088   2.02885
    A2        2.07417  -0.00099   0.00004  -0.00366  -0.00361   2.07056
    A3        2.18103  -0.00015  -0.00109   0.00384   0.00274   2.18377
    A4        2.03913   0.00405   0.00082   0.01200   0.01283   2.05196
    A5        2.01269   0.00368   0.00082   0.00998   0.01079   2.02348
    A6        2.14784  -0.00532  -0.00056  -0.01722  -0.01775   2.13009
    A7        2.12265   0.00164  -0.00027   0.00725   0.00697   2.12962
    A8        2.27008   0.00110   0.00013   0.00356   0.00370   2.27378
    A9        2.11744  -0.00189   0.00048  -0.00978  -0.00928   2.10816
   A10        1.89567   0.00079  -0.00060   0.00622   0.00558   1.90125
   A11        2.02997   0.00158   0.00048   0.00604   0.00650   2.03647
   A12        2.16475   0.00056   0.00031   0.00250   0.00283   2.16758
   A13        2.08846  -0.00214  -0.00079  -0.00855  -0.00933   2.07914
   A14        1.93907  -0.00517   0.00001  -0.01996  -0.01992   1.91915
   A15        2.00544   0.00425   0.00025   0.01578   0.01606   2.02151
   A16        2.16506  -0.00252  -0.00024  -0.00971  -0.00997   2.15510
   A17        2.11268  -0.00173  -0.00000  -0.00607  -0.00610   2.10658
   A18        1.55463  -0.00145  -0.00013  -0.00809  -0.00823   1.54640
   A19        2.07995   0.00135   0.00000   0.00683   0.00686   2.08681
   A20        2.10526  -0.00099  -0.00008  -0.00492  -0.00502   2.10024
   A21        2.09798  -0.00036   0.00008  -0.00191  -0.00184   2.09614
   A22        2.11530  -0.00035  -0.00031   0.00013  -0.00021   2.11509
   A23        2.05586   0.00109   0.00051   0.00165   0.00213   2.05798
   A24        2.11200  -0.00074  -0.00020  -0.00187  -0.00212   2.10989
   A25        1.93135  -0.00003  -0.00005  -0.00251  -0.00255   1.92879
   A26        1.93951   0.00025   0.00003   0.00241   0.00241   1.94192
   A27        1.93549   0.00041  -0.00007   0.00431   0.00422   1.93972
   A28        1.88695  -0.00059   0.00036  -0.00817  -0.00781   1.87913
   A29        1.88392  -0.00054   0.00027  -0.00662  -0.00635   1.87757
   A30        1.88465   0.00047  -0.00055   0.01032   0.00972   1.89437
   A31        2.06255  -0.00103   0.00031  -0.00709  -0.00679   2.05576
   A32        2.10434   0.00015  -0.00030   0.00203   0.00174   2.10608
   A33        2.11629   0.00088  -0.00002   0.00506   0.00505   2.12134
    D1        3.13997   0.00000  -0.00001   0.00082   0.00081   3.14078
    D2        0.00297  -0.00004  -0.00009  -0.00124  -0.00134   0.00163
    D3       -3.14028  -0.00004  -0.00008  -0.00072  -0.00080  -3.14108
    D4        0.00237  -0.00007  -0.00007  -0.00222  -0.00229   0.00008
    D5       -0.00339   0.00002   0.00001   0.00140   0.00141  -0.00198
    D6        3.13925  -0.00001   0.00002  -0.00011  -0.00008   3.13917
    D7       -3.14046   0.00002   0.00002   0.00031   0.00032  -3.14014
    D8       -0.00268   0.00005   0.00009   0.00105   0.00113  -0.00155
    D9       -3.13907   0.00001   0.00002   0.00120   0.00122  -3.13785
   D10        0.00234  -0.00000   0.00002   0.00029   0.00032   0.00266
   D11        0.00627   0.00001  -0.00005   0.00052   0.00047   0.00674
   D12       -3.13550  -0.00001  -0.00004  -0.00038  -0.00043  -3.13593
   D13        0.00291  -0.00001   0.00000  -0.00101  -0.00100   0.00190
   D14       -3.13904   0.00002  -0.00002   0.00078   0.00075  -3.13829
   D15        3.14045   0.00002   0.00008  -0.00022  -0.00014   3.14031
   D16       -0.00150   0.00005   0.00005   0.00157   0.00162   0.00012
   D17        3.14137  -0.00000   0.00001  -0.00013  -0.00013   3.14124
   D18        0.00015  -0.00000   0.00000  -0.00031  -0.00031  -0.00016
   D19       -0.00006   0.00001   0.00000   0.00069   0.00069   0.00063
   D20       -3.14129   0.00001  -0.00000   0.00051   0.00051  -3.14078
   D21       -3.14134  -0.00000  -0.00001  -0.00001  -0.00001  -3.14136
   D22        0.00011  -0.00001  -0.00000  -0.00074  -0.00074  -0.00063
   D23       -0.00004  -0.00000   0.00000  -0.00018  -0.00018  -0.00022
   D24        3.14120   0.00000   0.00000  -0.00001  -0.00000   3.14120
   D25        0.00013  -0.00001  -0.00000  -0.00044  -0.00045  -0.00032
   D26       -3.14136  -0.00000  -0.00000  -0.00017  -0.00017  -3.14153
   D27       -0.00014   0.00001   0.00000   0.00070   0.00071   0.00057
   D28        3.14135   0.00001   0.00001   0.00044   0.00045  -3.14139
   D29        3.13173  -0.00024   0.00049  -0.01528  -0.01479   3.11694
   D30       -0.00314  -0.00003  -0.00009   0.00104   0.00096  -0.00218
   D31       -0.00950  -0.00027   0.00052  -0.01705  -0.01655  -0.02605
   D32        3.13881  -0.00006  -0.00006  -0.00074  -0.00079   3.13802
   D33       -1.49934   0.00005  -0.00025   0.00726   0.00700  -1.49234
   D34        2.68727   0.00065  -0.00070   0.01762   0.01693   2.70420
   D35        0.59081  -0.00038   0.00002   0.00012   0.00011   0.59093
   D36        1.63533  -0.00016   0.00034  -0.00957  -0.00921   1.62612
   D37       -0.46126   0.00044  -0.00010   0.00080   0.00072  -0.46054
   D38       -2.55771  -0.00059   0.00061  -0.01670  -0.01610  -2.57381
   D39        0.00331   0.00002   0.00008  -0.00123  -0.00115   0.00216
   D40       -3.13934   0.00005   0.00007   0.00028   0.00035  -3.13899
   D41       -3.13158   0.00023  -0.00050   0.01504   0.01455  -3.11703
   D42        0.00896   0.00026  -0.00051   0.01655   0.01605   0.02500
         Item               Value     Threshold  Converged?
 Maximum Force            0.008886     0.000450     NO 
 RMS     Force            0.001975     0.000300     NO 
 Maximum Displacement     0.038343     0.001800     NO 
 RMS     Displacement     0.010904     0.001200     NO 
 Predicted change in Energy=-5.609853D-04
 GradGradGradGradGradGradGradGradGradGradGradGradGradGradGradGradGradGrad

                          Input orientation:                          
 ---------------------------------------------------------------------
 Center     Atomic      Atomic             Coordinates (Angstroms)
 Number     Number       Type             X           Y           Z
 ---------------------------------------------------------------------
      1         35           0       -0.988813   -4.009018   -0.864107
      2          6           0       -0.848833   -2.143787   -0.448206
      3          7           0        0.371890   -1.662967   -0.331981
      4          6           0        0.501408   -0.353198   -0.040695
      5          6           0        1.867833    0.141676    0.077844
      6          6           0        2.335897    1.405708    0.365195
      7          7           0        3.692049    1.562523    0.407906
      8          6           0        4.281874    0.421986    0.154412
      9         16           0        3.225876   -0.924870   -0.154010
     10          6           0       -0.609758    0.483301    0.133999
     11          6           0       -1.896275   -0.044599    0.007242
     12          6           0       -3.115841    0.813769    0.218366
     13          6           0       -2.019078   -1.404403   -0.295519
     14          1           0        1.699420    2.262514    0.554954
     15          1           0        5.357763    0.297566    0.132345
     16          1           0       -0.473393    1.533890    0.364789
     17          1           0       -3.378051    0.853529    1.281728
     18          1           0       -3.978901    0.415857   -0.321421
     19          1           0       -2.938892    1.839565   -0.116707
     20          1           0       -2.988677   -1.874442   -0.409533
 ---------------------------------------------------------------------
                    Distance matrix (angstroms):
                    1          2          3          4          5
     1  Br   0.000000
     2  C    1.916156   0.000000
     3  N    2.763806   1.317141   0.000000
     4  C    4.032838   2.279347   1.348005   0.000000
     5  C    5.126008   3.588920   2.379610   1.458105   0.000000
     6  C    6.471795   4.837669   3.709467   2.573684   1.378198
     7  N    7.387188   5.923620   4.687716   3.748522   2.335703
     8  C    6.960698   5.768058   4.457755   3.864052   2.431466
     9  S    5.270656   4.263281   2.953253   2.786104   1.742285
    10  C    4.617448   2.701427   2.405667   1.401763   2.501664
    11  C    4.159249   2.389802   2.806912   2.417936   3.769376
    12  C    5.381010   3.785601   4.312930   3.809647   5.030752
    13  C    2.858104   1.392651   2.405184   2.742775   4.199743
    14  H    6.969393   5.188006   4.237735   2.938023   2.180356
    15  H    7.734249   6.694705   5.377567   4.902818   3.493835
    16  H    5.700848   3.785131   3.379332   2.162349   2.738966
    17  H    5.827300   4.286434   4.795713   4.272609   5.429122
    18  H    5.367928   4.045389   4.821929   4.554494   5.866761
    19  H    6.210260   4.510579   4.824453   4.080398   5.101498
    20  H    2.960153   2.157075   3.368107   3.825038   5.280905
                    6          7          8          9         10
     6  C    0.000000
     7  N    1.365856   0.000000
     8  C    2.190653   1.308807   0.000000
     9  S    2.548181   2.592333   1.739044   0.000000
    10  C    3.095347   4.443568   4.892059   4.096094   0.000000
    11  C    4.488073   5.828614   6.197490   5.199741   1.396378
    12  C    5.485745   6.851564   7.408358   6.586267   2.529185
    13  C    5.224852   6.474135   6.575723   5.268731   2.394596
    14  H    1.084080   2.117117   3.196412   3.604458   2.945354
    15  H    3.227053   2.109657   1.083285   2.474124   5.970412
    16  H    2.812213   4.165764   4.888062   4.472052   1.084249
    17  H    5.813272   7.159088   7.754451   6.988269   3.019568
    18  H    6.428680   7.790394   8.274470   7.330375   3.400452
    19  H    5.314496   6.657428   7.363592   6.756320   2.706874
    20  H    6.301641   7.557317   7.645425   6.291872   3.393174
                   11         12         13         14         15
    11  C    0.000000
    12  C    1.506224   0.000000
    13  C    1.398502   2.527301   0.000000
    14  H    4.307178   5.039731   5.291201   0.000000
    15  H    7.263181   8.489749   7.582714   4.174099   0.000000
    16  H    2.155008   2.742726   3.385072   2.299603   5.965309
    17  H    2.150955   1.095934   3.071281   5.319224   8.828625
    18  H    2.158094   1.092967   2.674869   6.035023   9.348433
    19  H    2.156963   1.093546   3.376589   4.705736   8.442409
    20  H    2.171490   2.763496   1.083539   6.326365   8.641430
                   16         17         18         19         20
    16  H    0.000000
    17  H    3.121010   0.000000
    18  H    3.742922   1.767106   0.000000
    19  H    2.530604   1.766563   1.774956   0.000000
    20  H    4.306153   3.233234   2.496754   3.725865   0.000000
 Stoichiometry    C9H7BrN2S
 Framework group  C1[X(C9H7BrN2S)]
 Deg. of freedom    54
 Full point group                 C1      NOp   1
 Largest Abelian subgroup         C1      NOp   1
 Largest concise Abelian subgroup C1      NOp   1
                         Standard orientation:                         
 ---------------------------------------------------------------------
 Center     Atomic      Atomic             Coordinates (Angstroms)
 Number     Number       Type             X           Y           Z
 ---------------------------------------------------------------------
      1         35           0       -2.796052   -1.435685    0.001512
      2          6           0       -1.509521   -0.015656   -0.001688
      3          7           0       -0.242972   -0.377191    0.001055
      4          6           0        0.684937    0.600609   -0.002071
      5          6           0        2.075068    0.160606   -0.000791
      6          6           0        3.241822    0.894168    0.000763
      7          7           0        4.410616    0.187427    0.002119
      8          6           0        4.156374   -1.096449    0.001892
      9         16           0        2.473659   -1.535473    0.000507
     10          6           0        0.335042    1.957978   -0.009864
     11          6           0       -1.013054    2.321985   -0.012284
     12          6           0       -1.430233    3.769094    0.011160
     13          6           0       -1.967266    1.299595   -0.009429
     14          1           0        3.280310    1.977565    0.001129
     15          1           0        4.926651   -1.858144    0.002855
     16          1           0        1.104536    2.721815   -0.015301
     17          1           0       -1.466135    4.141759    1.041161
     18          1           0       -2.423682    3.902333   -0.424595
     19          1           0       -0.721800    4.392722   -0.541156
     20          1           0       -3.029122    1.515241   -0.013483
 ---------------------------------------------------------------------
 Rotational constants (GHZ):           0.7958524           0.3072575           0.2219816
 Standard basis: 6-31G(d,p) (6D, 7F)
 There are   249 symmetry adapted cartesian basis functions of A   symmetry.
 There are   249 symmetry adapted basis functions of A   symmetry.
   249 basis functions,   492 primitive gaussians,   249 cartesian basis functions
    63 alpha electrons       63 beta electrons
       nuclear repulsion energy      1099.4726476478 Hartrees.
 NAtoms=   20 NActive=   20 NUniq=   20 SFac= 1.00D+00 NAtFMM=   60 NAOKFM=F Big=F
 Integral buffers will be    131072 words long.
 Raffenetti 2 integral format.
 Two-electron integral symmetry is turned on.
 Nuclear repulsion after empirical dispersion term =     1099.4254048538 Hartrees.
 One-electron integrals computed using PRISM.
 NBasis=   249 RedAO= T EigKep=  6.73D-04  NBF=   249
 NBsUse=   249 1.00D-06 EigRej= -1.00D+00 NBFU=   249
 Initial guess from the checkpoint file:  "pyrd8_conf-1.chk"
 B after Tr=    -0.000000   -0.000000    0.000000
         Rot=    0.999999   -0.000066   -0.000007    0.001136 Ang=  -0.13 deg.
 ExpMin= 1.17D-01 ExpMax= 5.74D+05 ExpMxC= 5.74D+03 IAcc=3 IRadAn=         5 AccDes= 0.00D+00
 Harris functional with IExCor=  402 and IRadAn=       5 diagonalized for initial guess.
 HarFok:  IExCor=  402 AccDes= 0.00D+00 IRadAn=         5 IDoV= 1 UseB2=F ITyADJ=14
 ICtDFT=  3500011 ScaDFX=  1.000000  1.000000  1.000000  1.000000
 FoFCou: FMM=F IPFlag=           0 FMFlag=      100000 FMFlg1=           0
         NFxFlg=           0 DoJE=T BraDBF=F KetDBF=T FulRan=T
         wScrn=  0.000000 ICntrl=       500 IOpCl=  0 I1Cent=   200000004 NGrid=           0
         NMat0=    1 NMatS0=      1 NMatT0=    0 NMatD0=    1 NMtDS0=    0 NMtDT0=    0
 Petite list used in FoFCou.
 Requested convergence on RMS density matrix=1.00D-08 within 128 cycles.
 Requested convergence on MAX density matrix=1.00D-06.
 Requested convergence on             energy=1.00D-06.
 No special actions if energy rises.
 Integral accuracy reduced to 1.0D-05 until final iterations.
 Initial convergence to 1.0D-05 achieved.  Increase integral accuracy.
 SCF Done:  E(RB3LYP) =  -3426.62892924     A.U. after   11 cycles
            NFock= 11  Conv=0.92D-08     -V/T= 2.0063
 Calling FoFJK, ICntrl=      2127 FMM=F ISym2X=0 I1Cent= 0 IOpClX= 0 NMat=1 NMatS=1 NMatT=0.
 ***** Axes restored to original set *****
 -------------------------------------------------------------------
 Center     Atomic                   Forces (Hartrees/Bohr)
 Number     Number              X              Y              Z
 -------------------------------------------------------------------
      1       35          -0.000552074   -0.000762802   -0.000177147
      2        6           0.002209028    0.000990613    0.000234306
      3        7          -0.001455579   -0.001404344   -0.000272651
      4        6          -0.000573442    0.002350237    0.000440368
      5        6           0.001075718    0.002206871    0.000557687
      6        6          -0.005388448   -0.001027687   -0.000281994
      7        7           0.003628900   -0.001540337   -0.000343592
      8        6          -0.000256419    0.001842791    0.000455765
      9       16           0.001126047   -0.001382188   -0.000344895
     10        6           0.000304926   -0.000894162   -0.000244094
     11        6          -0.000012653   -0.000306880    0.000478683
     12        6           0.000292689    0.000073774   -0.000664887
     13        6          -0.001304278   -0.000317095   -0.000121592
     14        1           0.000788193    0.000132327    0.000033131
     15        1           0.000043828   -0.000166173   -0.000037495
     16        1          -0.000106996   -0.000053523   -0.000097711
     17        1           0.000017220   -0.000009080    0.000067296
     18        1           0.000036226    0.000172907    0.000178310
     19        1          -0.000226768   -0.000123999    0.000187520
     20        1           0.000353884    0.000218749   -0.000047007
 -------------------------------------------------------------------
 Cartesian Forces:  Max     0.005388448 RMS     0.001160794

 GradGradGradGradGradGradGradGradGradGradGradGradGradGradGradGradGradGrad
 Berny optimization.
 Using GEDIIS/GDIIS optimizer.
 FormGI is forming the generalized inverse of G from B-inverse, IUseBI=4.
 Internal  Forces:  Max     0.003230689 RMS     0.000559081
[...]

 Orbital symmetries:
       Occupied  (A) (A) (A) (A) (A) (A) (A) (A) (A) (A) (A) (A)
                 (A) (A) (A) (A) (A) (A) (A) (A) (A) (A) (A) (A)
                 (A) (A) (A) (A) (A) (A) (A) (A) (A) (A) (A) (A)
                 (A) (A) (A) (A) (A) (A) (A) (A) (A) (A) (A) (A)
                 (A) (A) (A) (A) (A) (A) (A) (A) (A) (A) (A) (A)
                 (A) (A) (A)
       Virtual   (A) (A) (A) (A) (A) (A) (A) (A) (A) (A) (A) (A)
                 (A) (A) (A) (A) (A) (A) (A) (A) (A) (A) (A) (A)
                 (A) (A) (A) (A) (A) (A) (A) (A) (A) (A) (A) (A)
                 (A) (A) (A) (A) (A) (A) (A) (A) (A) (A) (A) (A)
                 (A) (A) (A) (A) (A) (A) (A) (A) (A) (A) (A) (A)
                 (A) (A) (A) (A) (A) (A) (A) (A) (A) (A) (A) (A)
                 (A) (A) (A) (A) (A) (A) (A) (A) (A) (A) (A) (A)
                 (A) (A) (A) (A) (A) (A) (A) (A) (A) (A) (A) (A)
                 (A) (A) (A) (A) (A) (A) (A) (A) (A) (A) (A) (A)
                 (A) (A) (A) (A) (A) (A) (A) (A) (A) (A) (A) (A)
                 (A) (A) (A) (A) (A) (A) (A) (A) (A) (A) (A) (A)
                 (A) (A) (A) (A) (A) (A) (A) (A) (A) (A) (A) (A)
                 (A) (A) (A) (A) (A) (A) (A) (A) (A) (A) (A) (A)
                 (A) (A) (A) (A) (A) (A) (A) (A) (A) (A) (A) (A)
                 (A) (A) (A) (A) (A) (A) (A) (A) (A) (A) (A) (A)
                 (A) (A) (A) (A) (A) (A) (A) (A) (A) (A) (A) (A)
                 (A) (A) (A) (A) (A) (A) (A) (A) (A) (A) (A) (A)
                 (A) (A) (A) (A) (A) (A) (A) (A) (A) (A) (A) (A)
                 (A) (A) (A) (A) (A) (A) (A) (A) (A) (A) (A) (A)
                 (A) (A) (A) (A) (A) (A) (A) (A) (A) (A) (A) (A)
                 (A) (A) (A) (A) (A) (A) (A) (A) (A) (A) (A) (A)
                 (A) (A) (A) (A) (A) (A) (A) (A) (A) (A) (A) (A)
                 (A) (A) (A) (A) (A) (A) (A) (A) (A) (A) (A) (A)
                 (A) (A) (A) (A) (A) (A) (A) (A) (A) (A) (A) (A)
                 (A) (A) (A) (A) (A) (A) (A) (A) (A) (A) (A) (A)
                 (A) (A) (A) (A) (A) (A) (A) (A) (A) (A) (A) (A)
                 (A) (A) (A) (A) (A) (A) (A) (A) (A) (A) (A) (A)
                 (A) (A) (A) (A) (A) (A) (A) (A) (A) (A) (A) (A)
                 (A) (A) (A) (A) (A) (A) (A) (A) (A) (A) (A) (A)
                 (A) (A) (A) (A) (A) (A) (A) (A) (A) (A) (A) (A)
                 (A) (A) (A) (A) (A) (A) (A) (A) (A) (A) (A) (A)
                 (A) (A) (A) (A) (A) (A) (A) (A) (A) (A) (A) (A)
                 (A) (A) (A) (A) (A) (A) (A) (A) (A) (A) (A) (A)
                 (A) (A) (A) (A) (A) (A) (A) (A) (A)
 The electronic state is 1-A.
 Alpha  occ. eigenvalues -- -485.37492 -89.94573 -63.35984 -57.17927 -57.17694
 Alpha  occ. eigenvalues --  -57.17680 -14.77148 -14.76174 -10.64446 -10.61769
 Alpha  occ. eigenvalues --  -10.61195 -10.59132 -10.58994 -10.58509 -10.56949
 Alpha  occ. eigenvalues --  -10.56829 -10.55871  -9.02634  -8.30309  -6.85041
 Alpha  occ. eigenvalues --   -6.84176  -6.84129  -6.22192  -6.22008  -6.21894
 Alpha  occ. eigenvalues --   -2.88417  -2.88111  -2.88061  -2.87258  -2.87257
 Alpha  occ. eigenvalues --   -1.09056  -1.07599  -0.94556  -0.93535  -0.88880
 Alpha  occ. eigenvalues --   -0.85819  -0.82583  -0.82354  -0.74958  -0.70136
 Alpha  occ. eigenvalues --   -0.66168  -0.64758  -0.60524  -0.59070  -0.57389
 Alpha  occ. eigenvalues --   -0.52789  -0.51721  -0.50183  -0.49554  -0.49393
 Alpha  occ. eigenvalues --   -0.48340  -0.48182  -0.46687  -0.43509  -0.43017
 Alpha  occ. eigenvalues --   -0.39728  -0.36316  -0.36219  -0.35171  -0.34165
 Alpha  occ. eigenvalues --   -0.33815  -0.33020  -0.28781
 Alpha virt. eigenvalues --   -0.04360  -0.01251   0.02678   0.03305   0.05398
 Alpha virt. eigenvalues --    0.06040   0.07742   0.08818   0.10414   0.10718
 Alpha virt. eigenvalues --    0.10956   0.13024   0.13336   0.14394   0.14846
 Alpha virt. eigenvalues --    0.15167   0.16409   0.17247   0.18272   0.20305
 Alpha virt. eigenvalues --    0.20654   0.21712   0.22087   0.22691   0.23938
 Alpha virt. eigenvalues --    0.24162   0.24737   0.25820   0.26363   0.27157
 Alpha virt. eigenvalues --    0.28117   0.28970   0.30042   0.30803   0.31108
 Alpha virt. eigenvalues --    0.31315   0.31666   0.31911   0.32524   0.33198
 Alpha virt. eigenvalues --    0.34601   0.34865   0.35633   0.36807   0.37225
 Alpha virt. eigenvalues --    0.37250   0.38070   0.38295   0.38905   0.40622
 Alpha virt. eigenvalues --    0.41196   0.41738   0.41876   0.42643   0.43010
 Alpha virt. eigenvalues --    0.44940   0.45271   0.46754   0.47777   0.48441
 Alpha virt. eigenvalues --    0.48862   0.49597   0.49976   0.51498   0.52312
 Alpha virt. eigenvalues --    0.52646   0.54033   0.55207   0.55650   0.56448
 Alpha virt. eigenvalues --    0.57559   0.58402   0.58760   0.59940   0.61430
 Alpha virt. eigenvalues --    0.62439   0.63994   0.64366   0.64776   0.65443
 Alpha virt. eigenvalues --    0.66287   0.66630   0.66865   0.69092   0.69523
 Alpha virt. eigenvalues --    0.70511   0.71091   0.72671   0.73752   0.74940
 Alpha virt. eigenvalues --    0.76849   0.77400   0.78484   0.80361   0.81610
 Alpha virt. eigenvalues --    0.82300   0.82714   0.82890   0.84678   0.86672
 Alpha virt. eigenvalues --    0.88081   0.88825   0.91072   0.92215   0.94047
 Alpha virt. eigenvalues --    0.95244   0.97346   0.98626   0.99908   1.01318
 Alpha virt. eigenvalues --    1.01749   1.02908   1.05110   1.05566   1.08001
 Alpha virt. eigenvalues --    1.08962   1.09333   1.11812   1.12162   1.14540
 Alpha virt. eigenvalues --    1.15331   1.15947   1.18837   1.19047   1.21127
 Alpha virt. eigenvalues --    1.22741   1.25182   1.26473   1.27936   1.29397
 Alpha virt. eigenvalues --    1.31453   1.33538   1.34348   1.35543   1.36373
 Alpha virt. eigenvalues --    1.38028   1.38857   1.40616   1.40944   1.42529
 Alpha virt. eigenvalues --    1.44045   1.45151   1.45449   1.46392   1.48395
 Alpha virt. eigenvalues --    1.49818   1.49999   1.51011   1.52104   1.52938
 Alpha virt. eigenvalues --    1.53396   1.54489   1.54910   1.55678   1.56400
 Alpha virt. eigenvalues --    1.57054   1.57448   1.57729   1.57972   1.58411
 Alpha virt. eigenvalues --    1.59832   1.60804   1.61444   1.62658   1.62904
 Alpha virt. eigenvalues --    1.63454   1.64953   1.65803   1.67005   1.67550
 Alpha virt. eigenvalues --    1.68716   1.70495   1.70890   1.72470   1.73862
 Alpha virt. eigenvalues --    1.74970   1.75137   1.76664   1.77836   1.79328
 Alpha virt. eigenvalues --    1.80692   1.81338   1.81585   1.84087   1.85435
 Alpha virt. eigenvalues --    1.86012   1.87023   1.87928   1.91487   1.91997
 Alpha virt. eigenvalues --    1.94583   1.96706   1.97168   1.97682   1.99896
 Alpha virt. eigenvalues --    2.00693   2.00967   2.02389   2.03815   2.05104
 Alpha virt. eigenvalues --    2.05735   2.07525   2.08677   2.09995   2.11642
 Alpha virt. eigenvalues --    2.13435   2.15689   2.16945   2.18746   2.19878
 Alpha virt. eigenvalues --    2.20481   2.21881   2.24144   2.25493   2.27694
 Alpha virt. eigenvalues --    2.30210   2.31761   2.35723   2.36253   2.37118
 Alpha virt. eigenvalues --    2.39756   2.41383   2.41934   2.44716   2.47426
 Alpha virt. eigenvalues --    2.48899   2.49817   2.51740   2.53116   2.53676
 Alpha virt. eigenvalues --    2.57442   2.58122   2.59041   2.60251   2.62762
 Alpha virt. eigenvalues --    2.64321   2.65402   2.68004   2.68682   2.69663
 Alpha virt. eigenvalues --    2.70802   2.71777   2.74888   2.76921   2.77978
 Alpha virt. eigenvalues --    2.78188   2.80800   2.83040   2.83608   2.85399
 Alpha virt. eigenvalues --    2.87571   2.88561   2.89518   2.90577   2.91828
 Alpha virt. eigenvalues --    2.92378   2.94801   2.95448   2.96359   2.98163
 Alpha virt. eigenvalues --    2.99483   3.00449   3.01168   3.01555   3.02548
 Alpha virt. eigenvalues --    3.04184   3.04746   3.05718   3.06470   3.07378
 Alpha virt. eigenvalues --    3.09066   3.09868   3.11221   3.14208   3.14536
 Alpha virt. eigenvalues --    3.16102   3.16886   3.18970   3.20573   3.22421
 Alpha virt. eigenvalues --    3.23313   3.24002   3.25660   3.26378   3.28232
 Alpha virt. eigenvalues --    3.29004   3.30005   3.31533   3.31848   3.32080
 Alpha virt. eigenvalues --    3.33294   3.33712   3.35387   3.35585   3.36865
 Alpha virt. eigenvalues --    3.39021   3.39833   3.41861   3.43818   3.44142
 Alpha virt. eigenvalues --    3.44566   3.45859   3.48433   3.50618   3.52563
 Alpha virt. eigenvalues --    3.54557   3.55145   3.57091   3.58265   3.59530
 Alpha virt. eigenvalues --    3.62803   3.64663   3.66762   3.68256   3.69287
 Alpha virt. eigenvalues --    3.70391   3.73448   3.75778   3.78687   3.79781
 Alpha virt. eigenvalues --    3.81060   3.82655   3.85534   3.87779   3.92074
 Alpha virt. eigenvalues --    3.96514   3.96870   4.00781   4.01323   4.02956
 Alpha virt. eigenvalues --    4.03761   4.04804   4.05953   4.07038   4.10479
 Alpha virt. eigenvalues --    4.13349   4.14498   4.17109   4.19323   4.20319
 Alpha virt. eigenvalues --    4.21399   4.25927   4.27341   4.29744   4.32784
 Alpha virt. eigenvalues --    4.34657   4.37184   4.39071   4.43170   4.44684
 Alpha virt. eigenvalues --    4.47389   4.48271   4.51002   4.53639   4.56290
 Alpha virt. eigenvalues --    4.57395   4.58165   4.66974   4.71325   4.74223
 Alpha virt. eigenvalues --    4.76078   4.79918   4.82405   4.88315   4.88855
 Alpha virt. eigenvalues --    4.89689   4.91259   4.98450   5.03022   5.04786
 Alpha virt. eigenvalues --    5.06296   5.10739   5.16747   5.19041   5.19482
 Alpha virt. eigenvalues --    5.21871   5.22037   5.27645   5.29316   5.37749
 Alpha virt. eigenvalues --    5.42078   5.46888   5.50269   5.56239   5.64533
 Alpha virt. eigenvalues --    5.72861   5.74012   5.77655   6.07307   7.83641
 Alpha virt. eigenvalues --    8.93682   9.44799   9.54024  20.24436  22.43756
 Alpha virt. eigenvalues --   22.49299  22.54397  22.74452  22.82889  22.93341
 Alpha virt. eigenvalues --   23.01327  23.14954  23.26427  32.38561  32.71184
          Condensed to atoms (all electrons):
               1          2          3          4          5          6
     1  Br  34.915760   0.330695  -0.069205  -0.002047  -0.004334   0.000081
     2  C    0.330695   4.655145   0.587610  -0.081133  -0.006342   0.000634
     3  N   -0.069205   0.587610   6.558337   0.441165  -0.077867   0.004211
     4  C   -0.002047  -0.081133   0.441165   4.972126   0.132203  -0.059901
     5  C   -0.004334  -0.006342  -0.077867   0.132203   5.271098   0.575180
     6  C    0.000081   0.000634   0.004211  -0.059901   0.575180   4.914743
     7  N   -0.000001   0.000043  -0.000147   0.016889  -0.098097   0.474125
     8  C   -0.000012  -0.000017   0.001181  -0.003419  -0.119317  -0.127181
     9  S   -0.000155   0.000902   0.005547  -0.085890   0.439144  -0.078205
    10  C    0.003928  -0.027839  -0.108003   0.481904  -0.046568  -0.025935
    11  C    0.017522  -0.054260  -0.002281  -0.050569   0.007417   0.004182
    12  C   -0.000760   0.004395  -0.001530   0.013433  -0.000265   0.000106
    13  C   -0.091717   0.479742  -0.085374  -0.045075   0.004875  -0.001256
    14  H   -0.000001  -0.000015  -0.000046   0.005768  -0.062143   0.418299
    15  H   -0.000000   0.000001  -0.000004   0.000427   0.004744   0.005821
    16  H    0.000156   0.001586   0.004255  -0.002567  -0.010246   0.005511
    17  H    0.000022  -0.000987   0.000122  -0.002407   0.000048  -0.000027
    18  H   -0.000022   0.002776   0.000080  -0.001387  -0.000025   0.000001
    19  H    0.000020  -0.000373   0.000102   0.004943  -0.000305   0.000067
    20  H   -0.004959  -0.012925   0.004827   0.000970   0.000375  -0.000002
               7          8          9         10         11         12
     1  Br  -0.000001  -0.000012  -0.000155   0.003928   0.017522  -0.000760
     2  C    0.000043  -0.000017   0.000902  -0.027839  -0.054260   0.004395
     3  N   -0.000147   0.001181   0.005547  -0.108003  -0.002281  -0.001530
     4  C    0.016889  -0.003419  -0.085890   0.481904  -0.050569   0.013433
     5  C   -0.098097  -0.119317   0.439144  -0.046568   0.007417  -0.000265
     6  C    0.474125  -0.127181  -0.078205  -0.025935   0.004182   0.000106
     7  N    6.443660   0.537988  -0.105170  -0.002982  -0.000305  -0.000002
     8  C    0.537988   4.935525   0.460629   0.001172   0.000160  -0.000000
     9  S   -0.105170   0.460629  15.287984   0.008932  -0.001402   0.000016
    10  C   -0.002982   0.001172   0.008932   5.300308   0.437128  -0.066982
    11  C   -0.000305   0.000160  -0.001402   0.437128   5.004899   0.265792
    12  C   -0.000002  -0.000000   0.000016  -0.066982   0.265792   5.082762
    13  C    0.000012   0.000020   0.000996  -0.072124   0.432857  -0.059733
    14  H   -0.025880   0.008129   0.006872  -0.000560   0.000832   0.000075
    15  H   -0.025316   0.405496  -0.043043  -0.000037  -0.000003   0.000000
    16  H    0.000009  -0.000147   0.000209   0.351459  -0.009892  -0.005928
    17  H    0.000000  -0.000000  -0.000000  -0.006234  -0.016366   0.387351
    18  H    0.000000   0.000000  -0.000000   0.015572  -0.055911   0.431732
    19  H    0.000000  -0.000000  -0.000000  -0.017484  -0.052469   0.433824
    20  H    0.000000  -0.000000  -0.000003   0.007188  -0.036089  -0.004289
              13         14         15         16         17         18
     1  Br  -0.091717  -0.000001  -0.000000   0.000156   0.000022  -0.000022
     2  C    0.479742  -0.000015   0.000001   0.001586  -0.000987   0.002776
     3  N   -0.085374  -0.000046  -0.000004   0.004255   0.000122   0.000080
     4  C   -0.045075   0.005768   0.000427  -0.002567  -0.002407  -0.001387
     5  C    0.004875  -0.062143   0.004744  -0.010246   0.000048  -0.000025
     6  C   -0.001256   0.418299   0.005821   0.005511  -0.000027   0.000001
     7  N    0.000012  -0.025880  -0.025316   0.000009   0.000000   0.000000
     8  C    0.000020   0.008129   0.405496  -0.000147  -0.000000   0.000000
     9  S    0.000996   0.006872  -0.043043   0.000209  -0.000000  -0.000000
    10  C   -0.072124  -0.000560  -0.000037   0.351459  -0.006234   0.015572
    11  C    0.432857   0.000832  -0.000003  -0.009892  -0.016366  -0.055911
    12  C   -0.059733   0.000075   0.000000  -0.005928   0.387351   0.431732
    13  C    5.271154   0.000005   0.000000   0.005099  -0.000954  -0.016956
    14  H    0.000005   0.500762  -0.000067   0.003062  -0.000003  -0.000002
    15  H    0.000000  -0.000067   0.482735   0.000002   0.000000  -0.000000
    16  H    0.005099   0.003062   0.000002   0.495738   0.001013   0.000081
    17  H   -0.000954  -0.000003   0.000000   0.001013   0.515936  -0.023761
    18  H   -0.016956  -0.000002  -0.000000   0.000081  -0.023761   0.518084
    19  H    0.007884   0.000034  -0.000000  -0.001050  -0.026376  -0.026019
    20  H    0.390013   0.000001   0.000000  -0.000184   0.000489   0.000754
              19         20
     1  Br   0.000020  -0.004959
     2  C   -0.000373  -0.012925
     3  N    0.000102   0.004827
     4  C    0.004943   0.000970
     5  C   -0.000305   0.000375
     6  C    0.000067  -0.000002
     7  N    0.000000   0.000000
     8  C   -0.000000  -0.000000
     9  S   -0.000000  -0.000003
    10  C   -0.017484   0.007188
    11  C   -0.052469  -0.036089
    12  C    0.433824  -0.004289
    13  C    0.007884   0.390013
    14  H    0.000034   0.000001
    15  H   -0.000000   0.000000
    16  H   -0.001050  -0.000184
    17  H   -0.026376   0.000489
    18  H   -0.026019   0.000754
    19  H    0.521750  -0.000108
    20  H   -0.000108   0.483585
 Mulliken charges:
               1
     1  Br  -0.094972
     2  C    0.120361
     3  N   -0.262982
     4  C    0.264568
     5  C   -0.009578
     6  C   -0.110455
     7  N   -0.214828
     8  C   -0.100206
     9  S    0.102638
    10  C   -0.232845
    11  C    0.108757
    12  C   -0.479997
    13  C   -0.219470
    14  H    0.144878
    15  H    0.169243
    16  H    0.161833
    17  H    0.172134
    18  H    0.155002
    19  H    0.155560
    20  H    0.170358
 Sum of Mulliken charges =  -0.00000
 Mulliken charges with hydrogens summed into heavy atoms:
               1
     1  Br  -0.094972
     2  C    0.120361
     3  N   -0.262982
     4  C    0.264568
     5  C   -0.009578
     6  C    0.034423
     7  N   -0.214828
     8  C    0.069037
     9  S    0.102638
    10  C   -0.071012
    11  C    0.108757
    12  C    0.002699
    13  C   -0.049112
 Electronic spatial extent (au):  <R**2>=           4354.5259
 Charge=              0.0000 electrons
 Dipole moment (field-independent basis, Debye):
    X=             -0.9778    Y=              3.0153    Z=              0.0375  Tot=              3.1701
 Quadrupole moment (field-independent basis, Debye-Ang):
   XX=            -99.9198   YY=            -81.5625   ZZ=            -97.8268
   XY=             -9.8502   XZ=             -0.0589   YZ=              0.1476
 Traceless Quadrupole moment (field-independent basis, Debye-Ang):
   XX=             -6.8168   YY=             11.5406   ZZ=             -4.7238
   XY=             -9.8502   XZ=             -0.0589   YZ=              0.1476
 Octapole moment (field-independent basis, Debye-Ang**2):
  XXX=           -138.5229  YYY=            -18.4326  ZZZ=              0.9278  XYY=            -19.4847
  XXY=            -41.9158  XXZ=             -0.5767  XZZ=            -31.6669  YZZ=            -16.8578
  YYZ=              0.4847  XYZ=             -0.4023
 Hexadecapole moment (field-independent basis, Debye-Ang**3):
 XXXX=          -3908.9308 YYYY=          -1523.0994 ZZZZ=           -118.8918 XXXY=            -93.0439
 XXXZ=              2.7178 YYYX=             88.0217 YYYZ=              0.9512 ZZZX=             -1.4322
 ZZZY=              3.4616 XXYY=           -756.2049 XXZZ=           -654.4935 YYZZ=           -301.7016
 XXYZ=             -2.0780 YYXZ=             -2.2039 ZZXY=             39.5790
 N-N= 1.098864538982D+03 E-N=-1.035785550436D+04  KE= 3.422715857310D+03
 Unable to Open any file for archive entry.
 1\1\GINC-COMPUTE-0-35\SP\RM062X\def2TZVP\C9H7Br1N2S1\ZTAN64\14-Aug-202
 4\0\\# M062X/def2tzvp int=(grid=ultrafine) nmr=giao guess=read geom=ch
 eck\\pyrd8.xyz\\0,1\Br,0,-0.992188983,-4.0102689738,-0.863920726\C,0,-
 0.8461644248,-2.1421948596,-0.4466831169\N,0,0.3716199366,-1.660612982
 6,-0.329363467\C,0,0.500713888,-0.3479708891,-0.0391961781\C,0,1.86871
 85483,0.1462933073,0.0790447965\C,0,2.3362156063,1.4077061023,0.365712
 4145\N,0,3.6985381889,1.5602561106,0.4073681832\C,0,4.2845468883,0.420
 7948585,0.1540556881\S,0,3.2265960215,-0.9266968259,-0.1547900787\C,0,
 -0.6122473009,0.4836196753,0.1334383123\C,0,-1.8985642886,-0.046927348
 8,0.0076728741\C,0,-3.1177763433,0.8117978781,0.2175608422\C,0,-2.0202
 012367,-1.4059539385,-0.2958279178\H,0,1.7092041281,2.270200898,0.5571
 497313\H,0,5.3602052311,0.2925651928,0.1310505\H,0,-0.4799147599,1.535
 352607,0.3614222599\H,0,-3.3802788098,0.8498772427,1.2811430253\H,0,-3
 .981528967,0.4156259174,-0.321852542\H,0,-2.9419864108,1.8384224554,-0
 .1144572273\H,0,-2.9880069126,-1.8772864272,-0.4129273735\\Version=ES6
 4L-G16RevC.01\State=1-A\HF=-3429.0388658\RMSD=3.539e-09\Dipole=-1.0329
 499,0.6797284,0.1629372\Quadrupole=7.1964683,-3.6853081,-3.5111602,-8.
 1874288,-1.8926218,-0.0159459\PG=C01 [X(C9H7Br1N2S1)]\\@
 The archive entry for this job was punched.


 THERE ONCE WAS A GIRL NAMED IRENE,
 WHO LIVED ON DISTILLED KEROSENE,
      BUT SHE STARTED ABSORBIN'
      A NEW HYDROCARBON,
 AND SINCE THEN HAS NEVER BENZENE.
 Job cpu time:       0 days  0 hours 39 minutes 58.9 seconds.
 Elapsed time:       0 days  0 hours  2 minutes 38.3 seconds.
 File lengths (MBytes):  RWF=    126 Int=      0 D2E=      0 Chk=     21 Scr=      1
 Normal termination of Gaussian 16 at Wed Aug 14 19:52:52 2024.
 
 
-----Kestrel cluster job statistics-----
Time info:

real	13m19.607s
user	209m36.069s
sys	0m16.762s
 
Disk space usage:
21M	/scratch/362978.kestrel.chem.wisc.edu
