 Entering Gaussian System, Link 0=/share/apps/gaussian/g16/g16
 Initial command:
 /share/apps/gaussian/g16/l1.exe "/scratch/362989.kestrel.chem.wisc.edu/Gau-175356.inp" -scrdir="/scratch/362989.kestrel.chem.wisc.edu/"
 Entering Link 1 = /share/apps/gaussian/g16/l1.exe PID=    175357.
  
 Copyright (c) 1988-2019, Gaussian, Inc.  All Rights Reserved.
  
 This is part of the Gaussian(R) 16 program.  It is based on
 the Gaussian(R) 09 system (copyright 2009, Gaussian, Inc.),
 the Gaussian(R) 03 system (copyright 2003, Gaussian, Inc.),
 the Gaussian(R) 98 system (copyright 1998, Gaussian, Inc.),
 the Gaussian(R) 94 system (copyright 1995, Gaussian, Inc.),
 the Gaussian 92(TM) system (copyright 1992, Gaussian, Inc.),
 the Gaussian 90(TM) system (copyright 1990, Gaussian, Inc.),
 the Gaussian 88(TM) system (copyright 1988, Gaussian, Inc.),
 the Gaussian 86(TM) system (copyright 1986, Carnegie Mellon
 University), and the Gaussian 82(TM) system (copyright 1983,
 Carnegie Mellon University). Gaussian is a federally registered
 trademark of Gaussian, Inc.
  
 This software contains proprietary and confidential information,
 including trade secrets, belonging to Gaussian, Inc.
  
 This software is provided under written license and may be
 used, copied, transmitted, or stored only in accord with that
 written license.
  
 The following legend is applicable only to US Government
 contracts under FAR:
  
                    RESTRICTED RIGHTS LEGEND
  
 Use, reproduction and disclosure by the US Government is
 subject to restrictions as set forth in subparagraphs (a)
 and (c) of the Commercial Computer Software - Restricted
 Rights clause in FAR 52.227-19.
  
 Gaussian, Inc.
 340 Quinnipiac St., Bldg. 40, Wallingford CT 06492
  
  
 ---------------------------------------------------------------
 Warning -- This program may not be used in any manner that
 competes with the business of Gaussian, Inc. or will provide
 assistance to any competitor of Gaussian, Inc.  The licensee
 of this program is prohibited from giving any competitor of
 Gaussian, Inc. access to this program.  By using this program,
 the user acknowledges that Gaussian, Inc. is engaged in the
 business of creating and licensing software in the field of
 computational chemistry and represents and warrants to the
 licensee that it is not a competitor of Gaussian, Inc. and that
 it will not use this program in any manner prohibited above.
 ---------------------------------------------------------------
  

 Cite this work as:
 Gaussian 16, Revision C.01,
 M. J. Frisch, G. W. Trucks, H. B. Schlegel, G. E. Scuseria, 
 M. A. Robb, J. R. Cheeseman, G. Scalmani, V. Barone, 
 G. A. Petersson, H. Nakatsuji, X. Li, M. Caricato, A. V. Marenich, 
 J. Bloino, B. G. Janesko, R. Gomperts, B. Mennucci, H. P. Hratchian, 
 J. V. Ortiz, A. F. Izmaylov, J. L. Sonnenberg, D. Williams-Young, 
 F. Ding, F. Lipparini, F. Egidi, J. Goings, B. Peng, A. Petrone, 
 T. Henderson, D. Ranasinghe, V. G. Zakrzewski, J. Gao, N. Rega, 
 G. Zheng, W. Liang, M. Hada, M. Ehara, K. Toyota, R. Fukuda, 
 J. Hasegawa, M. Ishida, T. Nakajima, Y. Honda, O. Kitao, H. Nakai, 
 T. Vreven, K. Throssell, J. A. Montgomery, Jr., J. E. Peralta, 
 F. Ogliaro, M. J. Bearpark, J. J. Heyd, E. N. Brothers, K. N. Kudin, 
 V. N. Staroverov, T. A. Keith, R. Kobayashi, J. Normand, 
 K. Raghavachari, A. P. Rendell, J. C. Burant, S. S. Iyengar, 
 J. Tomasi, M. Cossi, J. M. Millam, M. Klene, C. Adamo, R. Cammi, 
 J. W. Ochterski, R. L. Martin, K. Morokuma, O. Farkas, 
 J. B. Foresman, and D. J. Fox, Gaussian, Inc., Wallingford CT, 2019.
 
 ******************************************
 Gaussian 16:  ES64L-G16RevC.01  3-Jul-2019
                14-Aug-2024 
 ******************************************
 %nprocs=16
 Will use up to   16 processors via shared memory.
 %mem=16GB
 %chk=pyrmd2_conf-1.chk
 ----------------------------------------------------------------------
 # B3LYP/6-31G(d,p) symmetry=loose empiricaldispersion=GD3BJ int=(grid=
 ultrafine) opt freq=noraman
 ----------------------------------------------------------------------
 1/18=20,19=15,26=4,38=1/1,3;
 2/9=110,12=2,17=4,18=3,40=1/2;
 3/5=1,6=6,7=101,11=2,25=1,30=1,71=1,74=-5,75=-5,124=41/1,2,3;
 4//1;
 5/5=2,38=5/2;
 6/7=2,8=2,9=2,10=2,28=1/1;
 7//1,2,3,16;
 1/18=20,19=15,26=4/3(2);
 2/9=110/2;
 99//99;
 2/9=110/2;
 3/5=1,6=6,7=101,11=2,25=1,30=1,71=1,74=-5,75=-5,124=41/1,2,3;
 4/5=5,16=3,69=1/1;
 5/5=2,38=5/2;
 7//1,2,3,16;
 1/18=20,19=15,26=4/3(-5);
 2/9=110/2;
 6/7=2,8=2,9=2,10=2,19=2,28=1/1;
 99/9=1/99;
 ----------
 pyrmd2.xyz
 ----------
 Symbolic Z-matrix:
 Charge =  0 Multiplicity = 1
 Cl                    2.5479    2.9094    1.2728 
 C                     2.448     1.3949    0.454 
 C                     3.4968    1.0013   -0.3804 
 C                     3.3778   -0.2329   -1.0237 
 Cl                    4.6468   -0.7652   -2.063 
 N                     2.2911   -1.0309   -0.8563 
 C                     1.3218   -0.5598   -0.0293 
 C                     0.1184   -1.4583    0.2034 
 C                     0.2937   -2.4173    1.373 
 C                    -0.1161   -2.0372    2.6538 
 C                     0.0236   -2.9229    3.7194 
 C                     0.5677   -4.1869    3.4995 
 C                     0.9737   -4.5733    2.2236 
 C                     0.8341   -3.688     1.1577 
 N                     1.3478    0.6205    0.6428 
 H                     4.3655    1.625    -0.5208 
 H                    -0.093    -2.0231   -0.7058 
 H                    -0.7677   -0.8422    0.3633 
 H                    -0.5331   -1.0551    2.8261 
 H                    -0.2865   -2.63      4.7122 
 H                     0.6778   -4.8733    4.3268 
 H                     1.3969   -5.5543    2.0619 
 H                     1.1542   -3.9863    0.1694 
 

 GradGradGradGradGradGradGradGradGradGradGradGradGradGradGradGradGradGrad
 Berny optimization.
 Initialization pass.
                           ----------------------------
                           !    Initial Parameters    !
                           ! (Angstroms and Degrees)  !
 --------------------------                            --------------------------
 ! Name  Definition              Value          Derivative Info.                !
 --------------------------------------------------------------------------------
 ! R1    R(1,2)                  1.7246         estimate D2E/DX2                !
 ! R2    R(2,3)                  1.3968         estimate D2E/DX2                !
 ! R3    R(2,15)                 1.3586         estimate D2E/DX2                !
 ! R4    R(3,4)                  1.3969         estimate D2E/DX2                !
 ! R5    R(3,16)                 1.0786         estimate D2E/DX2                !
 ! R6    R(4,5)                  1.7245         estimate D2E/DX2                !
 ! R7    R(4,6)                  1.3586         estimate D2E/DX2                !
 ! R8    R(6,7)                  1.3585         estimate D2E/DX2                !
 ! R9    R(7,8)                  1.5197         estimate D2E/DX2                !
 ! R10   R(7,15)                 1.3585         estimate D2E/DX2                !
 ! R11   R(8,9)                  1.5226         estimate D2E/DX2                !
 ! R12   R(8,17)                 1.091          estimate D2E/DX2                !
 ! R13   R(8,18)                 1.091          estimate D2E/DX2                !
 ! R14   R(9,10)                 1.3974         estimate D2E/DX2                !
 ! R15   R(9,14)                 1.3975         estimate D2E/DX2                !
 ! R16   R(10,11)                1.3927         estimate D2E/DX2                !
 ! R17   R(10,19)                1.0808         estimate D2E/DX2                !
 ! R18   R(11,12)                1.3936         estimate D2E/DX2                !
 ! R19   R(11,20)                1.0806         estimate D2E/DX2                !
 ! R20   R(12,13)                1.3936         estimate D2E/DX2                !
 ! R21   R(12,21)                1.0806         estimate D2E/DX2                !
 ! R22   R(13,14)                1.3926         estimate D2E/DX2                !
 ! R23   R(13,22)                1.0806         estimate D2E/DX2                !
 ! R24   R(14,23)                1.0808         estimate D2E/DX2                !
 ! A1    A(1,2,3)              119.1816         estimate D2E/DX2                !
 ! A2    A(1,2,15)             118.7835         estimate D2E/DX2                !
 ! A3    A(3,2,15)             122.0349         estimate D2E/DX2                !
 ! A4    A(2,3,4)              117.3937         estimate D2E/DX2                !
 ! A5    A(2,3,16)             121.302          estimate D2E/DX2                !
 ! A6    A(4,3,16)             121.3042         estimate D2E/DX2                !
 ! A7    A(3,4,5)              119.182          estimate D2E/DX2                !
 ! A8    A(3,4,6)              122.0306         estimate D2E/DX2                !
 ! A9    A(5,4,6)              118.7874         estimate D2E/DX2                !
 ! A10   A(4,6,7)              116.2349         estimate D2E/DX2                !
 ! A11   A(6,7,8)              116.9486         estimate D2E/DX2                !
 ! A12   A(6,7,15)             126.0742         estimate D2E/DX2                !
 ! A13   A(8,7,15)             116.9408         estimate D2E/DX2                !
 ! A14   A(7,8,9)              113.5045         estimate D2E/DX2                !
 ! A15   A(7,8,17)             109.3836         estimate D2E/DX2                !
 ! A16   A(7,8,18)             109.3718         estimate D2E/DX2                !
 ! A17   A(9,8,17)             109.657          estimate D2E/DX2                !
 ! A18   A(9,8,18)             109.6696         estimate D2E/DX2                !
 ! A19   A(17,8,18)            104.898          estimate D2E/DX2                !
 ! A20   A(8,9,10)             119.9309         estimate D2E/DX2                !
 ! A21   A(8,9,14)             119.9245         estimate D2E/DX2                !
 ! A22   A(10,9,14)            120.1262         estimate D2E/DX2                !
 ! A23   A(9,10,11)            119.9265         estimate D2E/DX2                !
 ! A24   A(9,10,19)            120.4256         estimate D2E/DX2                !
 ! A25   A(11,10,19)           119.6454         estimate D2E/DX2                !
 ! A26   A(10,11,12)           119.6874         estimate D2E/DX2                !
 ! A27   A(10,11,20)           120.1216         estimate D2E/DX2                !
 ! A28   A(12,11,20)           120.1909         estimate D2E/DX2                !
 ! A29   A(11,12,13)           120.6441         estimate D2E/DX2                !
 ! A30   A(11,12,21)           119.677          estimate D2E/DX2                !
 ! A31   A(13,12,21)           119.6788         estimate D2E/DX2                !
 ! A32   A(12,13,14)           119.689          estimate D2E/DX2                !
 ! A33   A(12,13,22)           120.1877         estimate D2E/DX2                !
 ! A34   A(14,13,22)           120.1231         estimate D2E/DX2                !
 ! A35   A(9,14,13)            119.9251         estimate D2E/DX2                !
 ! A36   A(9,14,23)            120.4203         estimate D2E/DX2                !
 ! A37   A(13,14,23)           119.652          estimate D2E/DX2                !
 ! A38   A(2,15,7)             116.2303         estimate D2E/DX2                !
 ! D1    D(1,2,3,4)            179.9207         estimate D2E/DX2                !
 ! D2    D(1,2,3,16)             0.0497         estimate D2E/DX2                !
 ! D3    D(15,2,3,4)            -0.0524         estimate D2E/DX2                !
 ! D4    D(15,2,3,16)         -179.9234         estimate D2E/DX2                !
 ! D5    D(1,2,15,7)           179.8561         estimate D2E/DX2                !
 ! D6    D(3,2,15,7)            -0.1708         estimate D2E/DX2                !
 ! D7    D(2,3,4,5)           -179.9223         estimate D2E/DX2                !
 ! D8    D(2,3,4,6)              0.051          estimate D2E/DX2                !
 ! D9    D(16,3,4,5)            -0.0513         estimate D2E/DX2                !
 ! D10   D(16,3,4,6)           179.922          estimate D2E/DX2                !
 ! D11   D(3,4,6,7)              0.1733         estimate D2E/DX2                !
 ! D12   D(5,4,6,7)           -179.8532         estimate D2E/DX2                !
 ! D13   D(4,6,7,8)           -178.1671         estimate D2E/DX2                !
 ! D14   D(4,6,7,15)            -0.4393         estimate D2E/DX2                !
 ! D15   D(6,7,8,9)             89.0412         estimate D2E/DX2                !
 ! D16   D(6,7,8,17)           -33.7707         estimate D2E/DX2                !
 ! D17   D(6,7,8,18)          -148.1395         estimate D2E/DX2                !
 ! D18   D(15,7,8,9)           -88.8988         estimate D2E/DX2                !
 ! D19   D(15,7,8,17)          148.2894         estimate D2E/DX2                !
 ! D20   D(15,7,8,18)           33.9205         estimate D2E/DX2                !
 ! D21   D(6,7,15,2)             0.438          estimate D2E/DX2                !
 ! D22   D(8,7,15,2)           178.1659         estimate D2E/DX2                !
 ! D23   D(7,8,9,10)            90.9186         estimate D2E/DX2                !
 ! D24   D(7,8,9,14)           -90.6364         estimate D2E/DX2                !
 ! D25   D(17,8,9,10)         -146.4204         estimate D2E/DX2                !
 ! D26   D(17,8,9,14)           32.0246         estimate D2E/DX2                !
 ! D27   D(18,8,9,10)          -31.7365         estimate D2E/DX2                !
 ! D28   D(18,8,9,14)          146.7085         estimate D2E/DX2                !
 ! D29   D(8,9,10,11)          178.9211         estimate D2E/DX2                !
 ! D30   D(8,9,10,19)           -1.6633         estimate D2E/DX2                !
 ! D31   D(14,9,10,11)           0.4793         estimate D2E/DX2                !
 ! D32   D(14,9,10,19)         179.8949         estimate D2E/DX2                !
 ! D33   D(8,9,14,13)         -178.9264         estimate D2E/DX2                !
 ! D34   D(8,9,14,23)            1.6668         estimate D2E/DX2                !
 ! D35   D(10,9,14,13)          -0.4845         estimate D2E/DX2                !
 ! D36   D(10,9,14,23)        -179.8913         estimate D2E/DX2                !
 ! D37   D(9,10,11,12)          -0.243          estimate D2E/DX2                !
 ! D38   D(9,10,11,20)         179.6161         estimate D2E/DX2                !
 ! D39   D(19,10,11,12)       -179.6632         estimate D2E/DX2                !
 ! D40   D(19,10,11,20)          0.196          estimate D2E/DX2                !
 ! D41   D(10,11,12,13)          0.0128         estimate D2E/DX2                !
 ! D42   D(10,11,12,21)        179.8812         estimate D2E/DX2                !
 ! D43   D(20,11,12,13)       -179.8462         estimate D2E/DX2                !
 ! D44   D(20,11,12,21)          0.0221         estimate D2E/DX2                !
 ! D45   D(11,12,13,14)         -0.0179         estimate D2E/DX2                !
 ! D46   D(11,12,13,22)        179.8487         estimate D2E/DX2                !
 ! D47   D(21,12,13,14)       -179.8863         estimate D2E/DX2                !
 ! D48   D(21,12,13,22)         -0.0197         estimate D2E/DX2                !
 ! D49   D(12,13,14,9)           0.2532         estimate D2E/DX2                !
 ! D50   D(12,13,14,23)        179.6646         estimate D2E/DX2                !
 ! D51   D(22,13,14,9)        -179.6135         estimate D2E/DX2                !
 ! D52   D(22,13,14,23)         -0.2021         estimate D2E/DX2                !
 --------------------------------------------------------------------------------
 Trust Radius=3.00D-01 FncErr=1.00D-07 GrdErr=1.00D-06 EigMax=2.50D+02 EigMin=1.00D-04
 Number of steps in this run=    124 maximum allowed number of steps=    138.
 GradGradGradGradGradGradGradGradGradGradGradGradGradGradGradGradGradGrad

                          Input orientation:                          
 ---------------------------------------------------------------------
 Center     Atomic      Atomic             Coordinates (Angstroms)
 Number     Number       Type             X           Y           Z
 ---------------------------------------------------------------------
      1         17           0        2.547900    2.909400    1.272800
      2          6           0        2.448000    1.394900    0.454000
      3          6           0        3.496800    1.001300   -0.380400
      4          6           0        3.377800   -0.232900   -1.023700
      5         17           0        4.646800   -0.765200   -2.063000
      6          7           0        2.291100   -1.030900   -0.856300
      7          6           0        1.321800   -0.559800   -0.029300
      8          6           0        0.118400   -1.458300    0.203400
      9          6           0        0.293700   -2.417300    1.373000
     10          6           0       -0.116100   -2.037200    2.653800
     11          6           0        0.023600   -2.922900    3.719400
     12          6           0        0.567700   -4.186900    3.499500
     13          6           0        0.973700   -4.573300    2.223600
     14          6           0        0.834100   -3.688000    1.157700
     15          7           0        1.347800    0.620500    0.642800
     16          1           0        4.365500    1.625000   -0.520800
     17          1           0       -0.093000   -2.023100   -0.705800
     18          1           0       -0.767700   -0.842200    0.363300
     19          1           0       -0.533100   -1.055100    2.826100
     20          1           0       -0.286500   -2.630000    4.712200
     21          1           0        0.677800   -4.873300    4.326800
     22          1           0        1.396900   -5.554300    2.061900
     23          1           0        1.154200   -3.986300    0.169400
 ---------------------------------------------------------------------
                    Distance matrix (angstroms):
                    1          2          3          4          5
     1  Cl   0.000000
     2  C    1.724565   0.000000
     3  C    2.697096   1.396827   0.000000
     4  C    3.979535   2.387019   1.396870   0.000000
     5  Cl   5.388472   3.979453   2.697066   1.724485   0.000000
     6  N    4.486087   2.761523   2.410400   1.358581   2.660083
     7  C    3.903093   2.307110   2.700172   2.307126   3.903044
     8  C    5.111056   3.691962   4.219484   3.692028   5.111102
     9  C    5.784911   4.474197   5.002108   4.475204   5.786623
    10  C    5.785578   4.815915   5.611764   5.383943   6.822859
    11  C    6.809821   5.931606   6.653632   6.401856   7.711407
    12  C    7.696548   6.630768   7.109899   6.632505   7.699902
    13  C    7.705383   6.397223   6.650039   5.929901   6.809422
    14  C    6.817334   5.379195   5.607607   4.813173   5.783801
    15  N    2.660113   1.358595   2.410425   2.761596   4.486081
    16  H    2.858383   2.163328   1.078589   2.163389   2.858420
    17  H    5.934540   4.414130   4.705268   3.918205   5.088223
    18  H    5.088703   3.918363   4.705055   4.413636   5.933774
    19  H    5.255717   4.529494   5.545315   5.549064   7.128724
    20  H    7.109729   6.466033   7.309875   7.216213   8.585934
    21  H    8.567065   7.577765   8.038372   7.579655   8.570822
    22  H    8.577977   7.209822   7.304129   6.462367   7.107189
    23  H    7.121135   5.541862   5.537708   4.522819   5.249509
                    6          7          8          9         10
     6  N    0.000000
     7  C    1.358457   0.000000
     8  C    2.454844   1.519744   0.000000
     9  C    3.298710   2.544355   1.522621   0.000000
    10  C    4.373563   3.383680   2.528750   1.397448   0.000000
    11  C    5.445939   4.617609   3.810026   2.415404   1.392654
    12  C    5.648313   5.116342   4.302488   2.780029   2.409149
    13  C    4.875441   4.615725   3.809983   2.415421   2.793661
    14  C    3.638575   3.381191   2.528730   1.397521   2.422052
    15  N    2.421619   1.358493   2.454772   3.297355   3.640123
    16  H    3.386665   3.778761   5.298024   6.042038   6.601101
    17  H    2.586705   2.144891   1.091024   2.150893   3.359709
    18  H    3.298377   2.144737   1.091018   2.151047   2.664394
    19  H    4.640772   3.440826   2.732321   2.156545   1.080785
    20  H    6.341083   5.417950   4.676120   3.395899   2.148827
    21  H    6.650662   6.164140   5.383083   3.860622   3.387133
    22  H    5.456797   5.415144   4.676088   3.395939   3.874211
    23  H    3.328512   3.436346   2.732183   2.156589   3.403659
                   11         12         13         14         15
    11  C    0.000000
    12  C    1.393591   0.000000
    13  C    2.421555   1.393579   0.000000
    14  C    2.793671   2.409128   1.392619   0.000000
    15  N    4.875926   5.646272   5.441915   4.369460   0.000000
    16  H    7.583850   8.022735   7.579905   6.596675   3.386665
    17  H    4.517259   4.775259   4.027748   2.665340   3.298977
    18  H    4.027266   4.775569   4.518218   3.360865   2.587074
    19  H    2.143963   3.387241   3.874427   3.403668   3.333500
    20  H    1.080557   2.150404   3.399654   3.874220   5.458636
    21  H    2.144988   1.080598   2.144996   3.387117   6.648503
    22  H    3.399636   2.150360   1.080558   2.148813   6.335962
    23  H    3.874478   3.387298   2.144035   1.080826   4.635105
                   16         17         18         19         20
    16  H    0.000000
    17  H    5.763773   0.000000
    18  H    5.763545   1.729948   0.000000
    19  H    6.510066   3.688500   2.483092   0.000000
    20  H    8.193315   5.455318   4.726596   2.469513   0.000000
    21  H    8.906529   5.834795   5.835115   4.277503   2.472004
    22  H    8.186896   4.727509   5.456613   4.954967   4.290624
    23  H    6.501962   2.485083   3.690076   4.300810   4.955017
                   21         22         23
    21  H    0.000000
    22  H    2.471970   0.000000
    23  H    4.277581   2.469632   0.000000
 Stoichiometry    C11H8Cl2N2
 Framework group  C1[X(C11H8Cl2N2)]
 Deg. of freedom    63
 Full point group                 C1      NOp   1
 Largest Abelian subgroup         C1      NOp   1
 Largest concise Abelian subgroup C1      NOp   1
                         Standard orientation:                         
 ---------------------------------------------------------------------
 Center     Atomic      Atomic             Coordinates (Angstroms)
 Number     Number       Type             X           Y           Z
 ---------------------------------------------------------------------
      1         17           0       -2.729328    2.695814   -0.437470
      2          6           0       -1.986495    1.194410   -0.027460
      3          6           0       -2.624479    0.001473   -0.375316
      4          6           0       -1.988981   -1.192607   -0.026663
      5         17           0       -2.734941   -2.692655   -0.435624
      6          7           0       -0.797636   -1.210892    0.626105
      7          6           0       -0.258243   -0.000567    0.925396
      8          6           0        1.094803   -0.001659    1.617415
      9          6           0        2.271250   -0.001421    0.650799
     10          6           0        2.822824    1.209582    0.224069
     11          6           0        3.913134    1.209415   -0.642365
     12          6           0        4.450932   -0.001331   -1.074759
     13          6           0        3.908162   -1.212126   -0.648805
     14          6           0        2.817945   -1.212456    0.217690
     15          7           0       -0.795115    1.210726    0.625327
     16          1           0       -3.569781    0.002315   -0.894696
     17          1           0        1.162874   -0.867170    2.278165
     18          1           0        1.163342    0.862777    2.279512
     19          1           0        2.402844    2.148957    0.554657
     20          1           0        4.338221    2.143991   -0.979223
     21          1           0        5.295722   -0.001259   -1.748571
     22          1           0        4.329471   -2.146609   -0.990632
     23          1           0        2.394038   -2.151829    0.543367
 ---------------------------------------------------------------------
 Rotational constants (GHZ):           0.6413065           0.2814106           0.2146313
 Standard basis: 6-31G(d,p) (6D, 7F)
 There are   273 symmetry adapted cartesian basis functions of A   symmetry.
 There are   273 symmetry adapted basis functions of A   symmetry.
   273 basis functions,   524 primitive gaussians,   273 cartesian basis functions
    61 alpha electrons       61 beta electrons
       nuclear repulsion energy      1075.6783118010 Hartrees.
 NAtoms=   23 NActive=   23 NUniq=   23 SFac= 1.00D+00 NAtFMM=   60 NAOKFM=F Big=F
 Integral buffers will be    131072 words long.
 Raffenetti 2 integral format.
 Two-electron integral symmetry is turned on.
 Nuclear repulsion after empirical dispersion term =     1075.6255747311 Hartrees.
 One-electron integrals computed using PRISM.
 NBasis=   273 RedAO= T EigKep=  4.67D-04  NBF=   273
 NBsUse=   273 1.00D-06 EigRej= -1.00D+00 NBFU=   273
 ExpMin= 1.43D-01 ExpMax= 2.52D+04 ExpMxC= 3.78D+03 IAcc=3 IRadAn=         5 AccDes= 0.00D+00
 Harris functional with IExCor=  402 and IRadAn=       5 diagonalized for initial guess.
 HarFok:  IExCor=  402 AccDes= 0.00D+00 IRadAn=         5 IDoV= 1 UseB2=F ITyADJ=14
 ICtDFT=  3500011 ScaDFX=  1.000000  1.000000  1.000000  1.000000
 FoFCou: FMM=F IPFlag=           0 FMFlag=      100000 FMFlg1=           0
         NFxFlg=           0 DoJE=T BraDBF=F KetDBF=T FulRan=T
         wScrn=  0.000000 ICntrl=       500 IOpCl=  0 I1Cent=   200000004 NGrid=           0
         NMat0=    1 NMatS0=      1 NMatT0=    0 NMatD0=    1 NMtDS0=    0 NMtDT0=    0
 Petite list used in FoFCou.
 Requested convergence on RMS density matrix=1.00D-08 within 128 cycles.
 Requested convergence on MAX density matrix=1.00D-06.
 Requested convergence on             energy=1.00D-06.
 No special actions if energy rises.
 Integral accuracy reduced to 1.0D-05 until final iterations.
 Initial convergence to 1.0D-05 achieved.  Increase integral accuracy.
 SCF Done:  E(RB3LYP) =  -1453.95055045     A.U. after   14 cycles
            NFock= 14  Conv=0.57D-08     -V/T= 2.0056

 **********************************************************************

            Population analysis using the SCF Density.

 **********************************************************************

 Orbital symmetries:
       Occupied  (A) (A) (A) (A) (A) (A) (A) (A) (A) (A) (A) (A)
                 (A) (A) (A) (A) (A) (A) (A) (A) (A) (A) (A) (A)
                 (A) (A) (A) (A) (A) (A) (A) (A) (A) (A) (A) (A)
                 (A) (A) (A) (A) (A) (A) (A) (A) (A) (A) (A) (A)
                 (A) (A) (A) (A) (A) (A) (A) (A) (A) (A) (A) (A)
                 (A)
       Virtual   (A) (A) (A) (A) (A) (A) (A) (A) (A) (A) (A) (A)
                 (A) (A) (A) (A) (A) (A) (A) (A) (A) (A) (A) (A)
                 (A) (A) (A) (A) (A) (A) (A) (A) (A) (A) (A) (A)
                 (A) (A) (A) (A) (A) (A) (A) (A) (A) (A) (A) (A)
                 (A) (A) (A) (A) (A) (A) (A) (A) (A) (A) (A) (A)
                 (A) (A) (A) (A) (A) (A) (A) (A) (A) (A) (A) (A)
                 (A) (A) (A) (A) (A) (A) (A) (A) (A) (A) (A) (A)
                 (A) (A) (A) (A) (A) (A) (A) (A) (A) (A) (A) (A)
                 (A) (A) (A) (A) (A) (A) (A) (A) (A) (A) (A) (A)
                 (A) (A) (A) (A) (A) (A) (A) (A) (A) (A) (A) (A)
                 (A) (A) (A) (A) (A) (A) (A) (A) (A) (A) (A) (A)
                 (A) (A) (A) (A) (A) (A) (A) (A) (A) (A) (A) (A)
                 (A) (A) (A) (A) (A) (A) (A) (A) (A) (A) (A) (A)
                 (A) (A) (A) (A) (A) (A) (A) (A) (A) (A) (A) (A)
                 (A) (A) (A) (A) (A) (A) (A) (A) (A) (A) (A) (A)
                 (A) (A) (A) (A) (A) (A) (A) (A) (A) (A) (A) (A)
                 (A) (A) (A) (A) (A) (A) (A) (A) (A) (A) (A) (A)
                 (A) (A) (A) (A) (A) (A) (A) (A)
 The electronic state is 1-A.
 Alpha  occ. eigenvalues -- -101.57334-101.57332 -14.36391 -14.36390 -10.31713
 Alpha  occ. eigenvalues --  -10.31713 -10.29191 -10.23544 -10.20250 -10.20119
 Alpha  occ. eigenvalues --  -10.18903 -10.18892 -10.18788 -10.18784 -10.18761
 Alpha  occ. eigenvalues --   -9.49032  -9.49030  -7.25433  -7.25431  -7.24474
 Alpha  occ. eigenvalues --   -7.24472  -7.24384  -7.24382  -1.00882  -0.93459
 Alpha  occ. eigenvalues --   -0.89446  -0.85692  -0.85525  -0.80236  -0.77219
 Alpha  occ. eigenvalues --   -0.74531  -0.71313  -0.64686  -0.64140  -0.60551
 Alpha  occ. eigenvalues --   -0.58400  -0.55388  -0.52442  -0.51201  -0.48372
 Alpha  occ. eigenvalues --   -0.46754  -0.46193  -0.45271  -0.44966  -0.43215
 Alpha  occ. eigenvalues --   -0.42175  -0.41275  -0.39587  -0.38447  -0.36174
 Alpha  occ. eigenvalues --   -0.35851  -0.34199  -0.34178  -0.33898  -0.33343
 Alpha  occ. eigenvalues --   -0.32292  -0.30155  -0.28511  -0.28024  -0.25067
 Alpha  occ. eigenvalues --   -0.24460
 Alpha virt. eigenvalues --   -0.06468  -0.05085  -0.00119  -0.00073   0.00779
 Alpha virt. eigenvalues --    0.04335   0.08854   0.10194   0.12792   0.13364
 Alpha virt. eigenvalues --    0.13723   0.15860   0.16308   0.16840   0.18878
 Alpha virt. eigenvalues --    0.19095   0.20574   0.21986   0.24248   0.25724
 Alpha virt. eigenvalues --    0.26246   0.27576   0.30643   0.31965   0.32917
 Alpha virt. eigenvalues --    0.33839   0.34075   0.37488   0.37505   0.39386
 Alpha virt. eigenvalues --    0.40701   0.42213   0.42271   0.43543   0.44991
 Alpha virt. eigenvalues --    0.45555   0.48328   0.49065   0.51340   0.52450
 Alpha virt. eigenvalues --    0.53736   0.55128   0.55161   0.55596   0.56422
 Alpha virt. eigenvalues --    0.56864   0.58881   0.59374   0.59562   0.59871
 Alpha virt. eigenvalues --    0.60383   0.61105   0.61686   0.62115   0.63734
 Alpha virt. eigenvalues --    0.63794   0.66305   0.67735   0.69245   0.72675
 Alpha virt. eigenvalues --    0.73579   0.75515   0.76726   0.78106   0.79635
 Alpha virt. eigenvalues --    0.80427   0.81821   0.82038   0.82188   0.82475
 Alpha virt. eigenvalues --    0.83412   0.84001   0.84195   0.84730   0.84752
 Alpha virt. eigenvalues --    0.86722   0.88716   0.89068   0.90669   0.91738
 Alpha virt. eigenvalues --    0.92663   0.94012   0.94796   0.95247   0.96349
 Alpha virt. eigenvalues --    0.98157   0.98426   1.01190   1.01372   1.06648
 Alpha virt. eigenvalues --    1.07917   1.09445   1.10680   1.13584   1.13956
 Alpha virt. eigenvalues --    1.15157   1.17368   1.19785   1.23533   1.26835
 Alpha virt. eigenvalues --    1.27091   1.30124   1.32488   1.34597   1.37548
 Alpha virt. eigenvalues --    1.38834   1.40257   1.41990   1.43246   1.44140
 Alpha virt. eigenvalues --    1.45561   1.46752   1.47718   1.49918   1.51312
 Alpha virt. eigenvalues --    1.55430   1.57810   1.60469   1.63339   1.74140
 Alpha virt. eigenvalues --    1.76539   1.76976   1.78828   1.82440   1.84749
 Alpha virt. eigenvalues --    1.85539   1.87427   1.88754   1.89961   1.92383
 Alpha virt. eigenvalues --    1.92681   1.94012   1.97129   1.97241   1.97769
 Alpha virt. eigenvalues --    1.99706   2.02182   2.02588   2.06052   2.08429
 Alpha virt. eigenvalues --    2.08498   2.13153   2.14823   2.15317   2.16172
 Alpha virt. eigenvalues --    2.21222   2.24296   2.25990   2.28720   2.29085
 Alpha virt. eigenvalues --    2.29608   2.30685   2.31901   2.35862   2.37167
 Alpha virt. eigenvalues --    2.38350   2.39042   2.40864   2.41984   2.44177
 Alpha virt. eigenvalues --    2.45128   2.47763   2.49583   2.51229   2.53219
 Alpha virt. eigenvalues --    2.53251   2.54793   2.59768   2.60525   2.62010
 Alpha virt. eigenvalues --    2.63693   2.65150   2.66680   2.67687   2.69808
 Alpha virt. eigenvalues --    2.74402   2.78324   2.79517   2.80646   2.81593
 Alpha virt. eigenvalues --    2.85672   2.88204   2.93751   3.03483   3.06928
 Alpha virt. eigenvalues --    3.14954   3.17554   3.20483   3.25109   3.26028
 Alpha virt. eigenvalues --    3.31378   3.36693   3.44429   3.50739   3.50784
 Alpha virt. eigenvalues --    3.52161   3.91136   4.02035   4.04924   4.10968
 Alpha virt. eigenvalues --    4.11474   4.13614   4.16232   4.18347   4.27527
 Alpha virt. eigenvalues --    4.30404   4.32307   4.44334   4.45775   4.53942
 Alpha virt. eigenvalues --    4.61099   4.85152
          Condensed to atoms (all electrons):
               1          2          3          4          5          6
     1  Cl  16.815684   0.277879  -0.083501   0.004505  -0.000172  -0.000137
     2  C    0.277879   4.890420   0.456956  -0.033616   0.004506  -0.032580
     3  C   -0.083501   0.456956   5.054599   0.456957  -0.083505  -0.039617
     4  C    0.004505  -0.033616   0.456957   4.890474   0.277884   0.400332
     5  Cl  -0.000172   0.004506  -0.083505   0.277884  16.815644  -0.068616
     6  N   -0.000137  -0.032580  -0.039617   0.400332  -0.068616   6.905799
     7  C    0.004369  -0.044548  -0.032837  -0.044543   0.004368   0.412887
     8  C   -0.000191   0.004978   0.000705   0.004981  -0.000190  -0.085433
     9  C    0.000005   0.000132  -0.000035   0.000131   0.000005  -0.002904
    10  C    0.000004  -0.000048  -0.000004   0.000009   0.000000   0.000114
    11  C   -0.000000  -0.000001   0.000000  -0.000000   0.000000   0.000004
    12  C   -0.000000   0.000000   0.000000   0.000000  -0.000000   0.000001
    13  C    0.000000  -0.000000   0.000000  -0.000001  -0.000000  -0.000008
    14  C    0.000000   0.000010  -0.000004  -0.000048   0.000004   0.001872
    15  N   -0.068615   0.400402  -0.039615  -0.032578  -0.000137  -0.069775
    16  H   -0.000510  -0.034816   0.369380  -0.034819  -0.000509   0.003855
    17  H    0.000004  -0.000193  -0.000006   0.000319  -0.000009   0.000451
    18  H   -0.000009   0.000318  -0.000006  -0.000194   0.000004   0.003937
    19  H   -0.000003   0.000029   0.000002  -0.000000   0.000000   0.000024
    20  H   -0.000000   0.000000  -0.000000   0.000000  -0.000000   0.000000
    21  H    0.000000  -0.000000   0.000000  -0.000000   0.000000  -0.000000
    22  H   -0.000000   0.000000  -0.000000   0.000000  -0.000000   0.000000
    23  H    0.000000  -0.000000   0.000002   0.000029  -0.000003   0.002012
               7          8          9         10         11         12
     1  Cl   0.004369  -0.000191   0.000005   0.000004  -0.000000  -0.000000
     2  C   -0.044548   0.004978   0.000132  -0.000048  -0.000001   0.000000
     3  C   -0.032837   0.000705  -0.000035  -0.000004   0.000000   0.000000
     4  C   -0.044543   0.004981   0.000131   0.000009  -0.000000   0.000000
     5  Cl   0.004368  -0.000190   0.000005   0.000000   0.000000  -0.000000
     6  N    0.412887  -0.085433  -0.002904   0.000114   0.000004   0.000001
     7  C    4.619756   0.357120  -0.038702  -0.003574   0.000065   0.000020
     8  C    0.357120   5.136122   0.354266  -0.057076   0.006173   0.000444
     9  C   -0.038702   0.354266   4.700458   0.551726  -0.026394  -0.036012
    10  C   -0.003574  -0.057076   0.551726   4.882739   0.519706  -0.039873
    11  C    0.000065   0.006173  -0.026394   0.519706   4.822404   0.550382
    12  C    0.000020   0.000444  -0.036012  -0.039873   0.550382   4.803408
    13  C    0.000066   0.006166  -0.026385  -0.044828  -0.029527   0.550352
    14  C   -0.003583  -0.057208   0.551528  -0.041461  -0.044834  -0.039872
    15  N    0.412921  -0.085459  -0.002870   0.001883  -0.000008   0.000001
    16  H    0.000443   0.000018  -0.000000  -0.000000  -0.000000   0.000000
    17  H   -0.028796   0.361518  -0.026103   0.004136  -0.000204   0.000014
    18  H   -0.028755   0.361485  -0.026105  -0.006838   0.000256   0.000014
    19  H    0.000103  -0.010500  -0.041495   0.368726  -0.042725   0.004895
    20  H   -0.000001  -0.000193   0.003977  -0.037997   0.366610  -0.041818
    21  H    0.000000   0.000007   0.000732   0.005040  -0.042758   0.369259
    22  H   -0.000001  -0.000193   0.003976   0.000883   0.004609  -0.041819
    23  H    0.000108  -0.010494  -0.041508   0.005581   0.000374   0.004893
              13         14         15         16         17         18
     1  Cl   0.000000   0.000000  -0.068615  -0.000510   0.000004  -0.000009
     2  C   -0.000000   0.000010   0.400402  -0.034816  -0.000193   0.000318
     3  C    0.000000  -0.000004  -0.039615   0.369380  -0.000006  -0.000006
     4  C   -0.000001  -0.000048  -0.032578  -0.034819   0.000319  -0.000194
     5  Cl  -0.000000   0.000004  -0.000137  -0.000509  -0.000009   0.000004
     6  N   -0.000008   0.001872  -0.069775   0.003855   0.000451   0.003937
     7  C    0.000066  -0.003583   0.412921   0.000443  -0.028796  -0.028755
     8  C    0.006166  -0.057208  -0.085459   0.000018   0.361518   0.361485
     9  C   -0.026385   0.551528  -0.002870  -0.000000  -0.026103  -0.026105
    10  C   -0.044828  -0.041461   0.001883  -0.000000   0.004136  -0.006838
    11  C   -0.029527  -0.044834  -0.000008  -0.000000  -0.000204   0.000256
    12  C    0.550352  -0.039872   0.000001   0.000000   0.000014   0.000014
    13  C    4.822299   0.519777   0.000004  -0.000000   0.000255  -0.000204
    14  C    0.519777   4.883034   0.000114  -0.000000  -0.006831   0.004158
    15  N    0.000004   0.000114   6.905658   0.003855   0.003942   0.000432
    16  H   -0.000000  -0.000000   0.003855   0.556625  -0.000001  -0.000001
    17  H    0.000255  -0.006831   0.003942  -0.000001   0.591524  -0.034589
    18  H   -0.000204   0.004158   0.000432  -0.000001  -0.034589   0.591572
    19  H    0.000374   0.005584   0.001975  -0.000000   0.000085   0.004438
    20  H    0.004609   0.000882   0.000000   0.000000   0.000003  -0.000008
    21  H   -0.042759   0.005041  -0.000000  -0.000000  -0.000000  -0.000000
    22  H    0.366615  -0.038003   0.000000   0.000000  -0.000008   0.000003
    23  H   -0.042690   0.368719   0.000025  -0.000000   0.004415   0.000085
              19         20         21         22         23
     1  Cl  -0.000003  -0.000000   0.000000  -0.000000   0.000000
     2  C    0.000029   0.000000  -0.000000   0.000000  -0.000000
     3  C    0.000002  -0.000000   0.000000  -0.000000   0.000002
     4  C   -0.000000   0.000000  -0.000000   0.000000   0.000029
     5  Cl   0.000000  -0.000000   0.000000  -0.000000  -0.000003
     6  N    0.000024   0.000000  -0.000000   0.000000   0.002012
     7  C    0.000103  -0.000001   0.000000  -0.000001   0.000108
     8  C   -0.010500  -0.000193   0.000007  -0.000193  -0.010494
     9  C   -0.041495   0.003977   0.000732   0.003976  -0.041508
    10  C    0.368726  -0.037997   0.005040   0.000883   0.005581
    11  C   -0.042725   0.366610  -0.042758   0.004609   0.000374
    12  C    0.004895  -0.041818   0.369259  -0.041819   0.004893
    13  C    0.000374   0.004609  -0.042759   0.366615  -0.042690
    14  C    0.005584   0.000882   0.005041  -0.038003   0.368719
    15  N    0.001975   0.000000  -0.000000   0.000000   0.000025
    16  H   -0.000000   0.000000  -0.000000   0.000000  -0.000000
    17  H    0.000085   0.000003  -0.000000  -0.000008   0.004415
    18  H    0.004438  -0.000008  -0.000000   0.000003   0.000085
    19  H    0.619928  -0.005943  -0.000195   0.000017  -0.000165
    20  H   -0.005943   0.629155  -0.006446  -0.000193   0.000017
    21  H   -0.000195  -0.006446   0.635056  -0.006446  -0.000195
    22  H    0.000017  -0.000193  -0.006446   0.629156  -0.005940
    23  H   -0.000165   0.000017  -0.000195  -0.005940   0.619791
 Mulliken charges:
               1
     1  Cl   0.050688
     2  C    0.110172
     3  C   -0.059471
     4  C    0.110177
     5  Cl   0.050729
     6  N   -0.432219
     7  C    0.413114
     8  C   -0.287047
     9  C    0.101579
    10  C   -0.108848
    11  C   -0.084134
    12  C   -0.084289
    13  C   -0.084114
    14  C   -0.108879
    15  N   -0.432156
    16  H    0.136480
    17  H    0.130074
    18  H    0.130006
    19  H    0.094845
    20  H    0.087343
    21  H    0.083664
    22  H    0.087343
    23  H    0.094944
 Sum of Mulliken charges =  -0.00000
 Mulliken charges with hydrogens summed into heavy atoms:
               1
     1  Cl   0.050688
     2  C    0.110172
     3  C    0.077009
     4  C    0.110177
     5  Cl   0.050729
     6  N   -0.432219
     7  C    0.413114
     8  C   -0.026967
     9  C    0.101579
    10  C   -0.014003
    11  C    0.003209
    12  C   -0.000626
    13  C    0.003229
    14  C   -0.013935
    15  N   -0.432156
 Electronic spatial extent (au):  <R**2>=           4804.8321
 Charge=             -0.0000 electrons
 Dipole moment (field-independent basis, Debye):
    X=             -0.1408    Y=             -0.0000    Z=             -0.3023  Tot=              0.3335
 Quadrupole moment (field-independent basis, Debye-Ang):
   XX=            -90.9831   YY=           -100.3394   ZZ=            -97.2290
   XY=              0.0046   XZ=             -0.5821   YZ=              0.0186
 Traceless Quadrupole moment (field-independent basis, Debye-Ang):
   XX=              5.2007   YY=             -4.1556   ZZ=             -1.0452
   XY=              0.0046   XZ=             -0.5821   YZ=              0.0186
 Octapole moment (field-independent basis, Debye-Ang**2):
  XXX=            -30.2953  YYY=              0.0045  ZZZ=              2.7235  XYY=              6.2258
  XXY=              0.1112  XXZ=            -28.1958  XZZ=             -6.8463  YZZ=             -0.0022
  YYZ=             -7.3756  XYZ=              0.0580
 Hexadecapole moment (field-independent basis, Debye-Ang**3):
 XXXX=          -4218.0831 YYYY=          -1582.7775 ZZZZ=           -408.8242 XXXY=              0.6168
 XXXZ=            -91.0075 YYYX=              0.0752 YYYZ=              0.0561 ZZZX=             14.1894
 ZZZY=              0.0008 XXYY=           -933.2921 XXZZ=           -776.6371 YYZZ=           -342.2682
 XXYZ=              0.1965 YYXZ=              6.7512 ZZXY=             -0.0726
 N-N= 1.075625574731D+03 E-N=-5.574960053865D+03  KE= 1.445842290372D+03
 Calling FoFJK, ICntrl=      2127 FMM=F ISym2X=0 I1Cent= 0 IOpClX= 0 NMat=1 NMatS=1 NMatT=0.
 ***** Axes restored to original set *****
 -------------------------------------------------------------------
 Center     Atomic                   Forces (Hartrees/Bohr)
 Number     Number              X              Y              Z
 -------------------------------------------------------------------
      1       17          -0.002366093    0.004458762    0.003926240
      2        6          -0.019144774   -0.035118674   -0.008721202
      3        6           0.003255340    0.002234784   -0.000457024
      4        6          -0.036202966   -0.005194454    0.018425338
      5       17           0.002636278   -0.004275084   -0.004008127
      6        7           0.012954111    0.017279785    0.001941714
      7        6           0.010581022    0.005670692    0.000434839
      8        6          -0.002315898    0.001608157   -0.003245375
      9        6          -0.002093593    0.005238098   -0.007143612
     10        6           0.003133039   -0.003728786    0.001264632
     11        6           0.001709338   -0.001333952   -0.003693052
     12        6           0.000525211   -0.001465590    0.001996658
     13        6          -0.001317936    0.003905378    0.001058709
     14        6           0.000788122    0.000391180    0.004927022
     15        7           0.019170600    0.006438116   -0.007915159
     16        1           0.001973987    0.001538498   -0.000457056
     17        1           0.005506511   -0.001706726   -0.002075831
     18        1           0.001905595    0.004544056    0.003626566
     19        1          -0.001130230    0.003572502   -0.001544133
     20        1          -0.001264085    0.000850420    0.003170082
     21        1           0.000206126   -0.002572721    0.002966705
     22        1           0.001118376   -0.003284082   -0.000581790
     23        1           0.000371921    0.000949641   -0.003896145
 -------------------------------------------------------------------
 Cartesian Forces:  Max     0.036202966 RMS     0.008414934

 GradGradGradGradGradGradGradGradGradGradGradGradGradGradGradGradGradGrad
 Berny optimization.
 FormGI is forming the generalized inverse of G from B-inverse, IUseBI=4.
 Internal  Forces:  Max     0.031085934 RMS     0.005544388
 Search for a local minimum.
 Step number   1 out of a maximum of  124
 All quantities printed in internal units (Hartrees-Bohrs-Radians)
 Mixed Optimization -- RFO/linear search
 Second derivative matrix not updated -- first step.
 ITU=  0
     Eigenvalues ---    0.00467   0.00505   0.01339   0.01466   0.02129
     Eigenvalues ---    0.02130   0.02147   0.02151   0.02156   0.02163
     Eigenvalues ---    0.02170   0.02173   0.02174   0.02177   0.02180
     Eigenvalues ---    0.02181   0.02214   0.02241   0.04592   0.06263
     Eigenvalues ---    0.10133   0.13385   0.15999   0.15999   0.16000
     Eigenvalues ---    0.16000   0.16000   0.16000   0.21923   0.22000
     Eigenvalues ---    0.22000   0.23480   0.23535   0.24991   0.24992
     Eigenvalues ---    0.24993   0.25000   0.25000   0.25000   0.30115
     Eigenvalues ---    0.30391   0.33089   0.33098   0.34695   0.34695
     Eigenvalues ---    0.35895   0.35900   0.35922   0.35927   0.35927
     Eigenvalues ---    0.36165   0.42181   0.42326   0.43521   0.45176
     Eigenvalues ---    0.46189   0.46391   0.46735   0.46863   0.50274
     Eigenvalues ---    0.51270   0.53234   0.53253
 RFO step:  Lambda=-9.05480709D-03 EMin= 4.66712716D-03
 Linear search not attempted -- first point.
 Iteration  1 RMS(Cart)=  0.07449665 RMS(Int)=  0.00078398
 Iteration  2 RMS(Cart)=  0.00149744 RMS(Int)=  0.00016450
 Iteration  3 RMS(Cart)=  0.00000063 RMS(Int)=  0.00016450
 Variable       Old X    -DE/DX   Delta X   Delta X   Delta X     New X
                                 (Linear)    (Quad)   (Total)
    R1        3.25896   0.00564   0.00000   0.01660   0.01660   3.27555
    R2        2.63962  -0.00652   0.00000  -0.01223  -0.01218   2.62744
    R3        2.56737  -0.03109   0.00000  -0.05740  -0.05740   2.50997
    R4        2.63970  -0.00656   0.00000  -0.01231  -0.01225   2.62745
    R5        2.03824   0.00254   0.00000   0.00685   0.00685   2.04509
    R6        3.25880   0.00568   0.00000   0.01669   0.01669   3.27549
    R7        2.56735  -0.03106   0.00000  -0.05735  -0.05735   2.51000
    R8        2.56711  -0.01730   0.00000  -0.03342  -0.03348   2.53363
    R9        2.87190  -0.01026   0.00000  -0.03278  -0.03278   2.83912
   R10        2.56718  -0.01732   0.00000  -0.03346  -0.03352   2.53366
   R11        2.87734  -0.00249   0.00000  -0.00802  -0.00802   2.86932
   R12        2.06174   0.00155   0.00000   0.00434   0.00434   2.06608
   R13        2.06173   0.00155   0.00000   0.00435   0.00435   2.06608
   R14        2.64079   0.00016   0.00000   0.00005   0.00008   2.64087
   R15        2.64093   0.00012   0.00000  -0.00003   0.00000   2.64093
   R16        2.63173   0.00317   0.00000   0.00663   0.00663   2.63836
   R17        2.04239   0.00344   0.00000   0.00934   0.00934   2.05172
   R18        2.63351   0.00141   0.00000   0.00325   0.00322   2.63672
   R19        2.04196   0.00351   0.00000   0.00952   0.00952   2.05148
   R20        2.63348   0.00144   0.00000   0.00330   0.00327   2.63676
   R21        2.04203   0.00393   0.00000   0.01066   0.01066   2.05270
   R22        2.63167   0.00317   0.00000   0.00664   0.00664   2.63831
   R23        2.04196   0.00351   0.00000   0.00952   0.00952   2.05148
   R24        2.04246   0.00341   0.00000   0.00927   0.00927   2.05173
    A1        2.08011   0.00198   0.00000   0.00565   0.00562   2.08573
    A2        2.07316  -0.00782   0.00000  -0.03220  -0.03223   2.04093
    A3        2.12991   0.00584   0.00000   0.02654   0.02661   2.15652
    A4        2.04891  -0.01113   0.00000  -0.04049  -0.04037   2.00854
    A5        2.11712   0.00557   0.00000   0.02026   0.02020   2.13732
    A6        2.11716   0.00556   0.00000   0.02023   0.02017   2.13733
    A7        2.08012   0.00199   0.00000   0.00567   0.00563   2.08575
    A8        2.12984   0.00585   0.00000   0.02658   0.02664   2.15648
    A9        2.07323  -0.00783   0.00000  -0.03225  -0.03228   2.04095
   A10        2.02868  -0.00246   0.00000  -0.01239  -0.01245   2.01623
   A11        2.04114  -0.00219   0.00000  -0.00625  -0.00622   2.03492
   A12        2.20041   0.00436   0.00000   0.01211   0.01200   2.21241
   A13        2.04100  -0.00218   0.00000  -0.00622  -0.00619   2.03481
   A14        1.98103  -0.00611   0.00000  -0.03828  -0.03878   1.94225
   A15        1.90910  -0.00061   0.00000  -0.01649  -0.01661   1.89250
   A16        1.90890  -0.00058   0.00000  -0.01624  -0.01636   1.89254
   A17        1.91388   0.00245   0.00000   0.01155   0.01074   1.92461
   A18        1.91409   0.00242   0.00000   0.01134   0.01053   1.92463
   A19        1.83082   0.00317   0.00000   0.05543   0.05512   1.88593
   A20        2.09319   0.00158   0.00000   0.00713   0.00674   2.09993
   A21        2.09308   0.00156   0.00000   0.00704   0.00666   2.09973
   A22        2.09660  -0.00312   0.00000  -0.01302  -0.01327   2.08332
   A23        2.09311   0.00187   0.00000   0.00724   0.00730   2.10041
   A24        2.10182  -0.00313   0.00000  -0.01657  -0.01660   2.08522
   A25        2.08821   0.00126   0.00000   0.00936   0.00933   2.09754
   A26        2.08894   0.00149   0.00000   0.00677   0.00676   2.09570
   A27        2.09652  -0.00075   0.00000  -0.00339  -0.00339   2.09313
   A28        2.09773  -0.00074   0.00000  -0.00337  -0.00337   2.09436
   A29        2.10564  -0.00360   0.00000  -0.01485  -0.01488   2.09075
   A30        2.08876   0.00180   0.00000   0.00743   0.00745   2.09621
   A31        2.08879   0.00180   0.00000   0.00741   0.00743   2.09622
   A32        2.08897   0.00148   0.00000   0.00675   0.00675   2.09571
   A33        2.09767  -0.00074   0.00000  -0.00334  -0.00333   2.09434
   A34        2.09654  -0.00075   0.00000  -0.00341  -0.00341   2.09314
   A35        2.09309   0.00188   0.00000   0.00726   0.00731   2.10040
   A36        2.10173  -0.00312   0.00000  -0.01653  -0.01656   2.08517
   A37        2.08832   0.00125   0.00000   0.00931   0.00928   2.09761
   A38        2.02860  -0.00245   0.00000  -0.01234  -0.01241   2.01619
    D1        3.14021   0.00006   0.00000   0.00182   0.00183  -3.14114
    D2        0.00087  -0.00002   0.00000  -0.00077  -0.00076   0.00010
    D3       -0.00091  -0.00003   0.00000  -0.00108  -0.00109  -0.00200
    D4       -3.14026  -0.00011   0.00000  -0.00368  -0.00369   3.13924
    D5        3.13908  -0.00001   0.00000  -0.00064  -0.00062   3.13846
    D6       -0.00298   0.00009   0.00000   0.00226   0.00224  -0.00074
    D7       -3.14024  -0.00006   0.00000  -0.00178  -0.00179   3.14116
    D8        0.00089   0.00003   0.00000   0.00111   0.00112   0.00201
    D9       -0.00090   0.00002   0.00000   0.00082   0.00081  -0.00009
   D10        3.14023   0.00011   0.00000   0.00371   0.00372  -3.13924
   D11        0.00303  -0.00009   0.00000  -0.00232  -0.00230   0.00072
   D12       -3.13903   0.00001   0.00000   0.00057   0.00055  -3.13848
   D13       -3.10960   0.00046   0.00000   0.01502   0.01506  -3.09454
   D14       -0.00767   0.00012   0.00000   0.00367   0.00363  -0.00403
   D15        1.55406  -0.00007   0.00000  -0.00506  -0.00503   1.54903
   D16       -0.58941   0.00149   0.00000   0.01902   0.01872  -0.57069
   D17       -2.58552  -0.00165   0.00000  -0.02921  -0.02886  -2.61439
   D18       -1.55158   0.00008   0.00000   0.00480   0.00477  -1.54680
   D19        2.58814   0.00164   0.00000   0.02887   0.02852   2.61666
   D20        0.59202  -0.00150   0.00000  -0.01936  -0.01906   0.57297
   D21        0.00764  -0.00012   0.00000  -0.00365  -0.00361   0.00404
   D22        3.10958  -0.00045   0.00000  -0.01500  -0.01503   3.09455
   D23        1.58683  -0.00055   0.00000  -0.02406  -0.02422   1.56261
   D24       -1.58190   0.00056   0.00000   0.02418   0.02434  -1.55757
   D25       -2.55552  -0.00382   0.00000  -0.06376  -0.06417  -2.61969
   D26        0.55893  -0.00271   0.00000  -0.01552  -0.01562   0.54332
   D27       -0.55391   0.00270   0.00000   0.01548   0.01557  -0.53833
   D28        2.56055   0.00381   0.00000   0.06372   0.06413   2.62467
   D29        3.12276   0.00067   0.00000   0.02737   0.02727  -3.13315
   D30       -0.02903   0.00079   0.00000   0.03158   0.03145   0.00242
   D31        0.00837  -0.00052   0.00000  -0.02128  -0.02114  -0.01277
   D32        3.13976  -0.00040   0.00000  -0.01707  -0.01696   3.12280
   D33       -3.12285  -0.00067   0.00000  -0.02731  -0.02720   3.13313
   D34        0.02909  -0.00079   0.00000  -0.03162  -0.03149  -0.00240
   D35       -0.00846   0.00052   0.00000   0.02134   0.02120   0.01275
   D36       -3.13970   0.00039   0.00000   0.01703   0.01692  -3.12278
   D37       -0.00424   0.00019   0.00000   0.00830   0.00833   0.00408
   D38        3.13489   0.00031   0.00000   0.01148   0.01150  -3.13679
   D39       -3.13571   0.00010   0.00000   0.00428   0.00427  -3.13144
   D40        0.00342   0.00022   0.00000   0.00746   0.00745   0.01087
   D41        0.00022   0.00011   0.00000   0.00452   0.00452   0.00474
   D42        3.13952   0.00015   0.00000   0.00466   0.00466  -3.13901
   D43       -3.13891  -0.00001   0.00000   0.00133   0.00134  -3.13757
   D44        0.00039   0.00003   0.00000   0.00148   0.00148   0.00186
   D45       -0.00031  -0.00011   0.00000  -0.00445  -0.00446  -0.00477
   D46        3.13895   0.00001   0.00000  -0.00136  -0.00136   3.13759
   D47       -3.13961  -0.00015   0.00000  -0.00460  -0.00460   3.13898
   D48       -0.00034  -0.00004   0.00000  -0.00150  -0.00150  -0.00185
   D49        0.00442  -0.00019   0.00000  -0.00842  -0.00845  -0.00403
   D50        3.13574  -0.00010   0.00000  -0.00430  -0.00429   3.13145
   D51       -3.13485  -0.00031   0.00000  -0.01152  -0.01154   3.13680
   D52       -0.00353  -0.00021   0.00000  -0.00739  -0.00738  -0.01090
         Item               Value     Threshold  Converged?
 Maximum Force            0.031086     0.000450     NO 
 RMS     Force            0.005544     0.000300     NO 
 Maximum Displacement     0.212661     0.001800     NO 
 RMS     Displacement     0.075388     0.001200     NO 
 Predicted change in Energy=-4.722672D-03
 GradGradGradGradGradGradGradGradGradGradGradGradGradGradGradGradGradGrad

                          Input orientation:                          
 ---------------------------------------------------------------------
 Center     Atomic      Atomic             Coordinates (Angstroms)
 Number     Number       Type             X           Y           Z
 ---------------------------------------------------------------------
      1         17           0        2.487121    2.809175    1.359318
      2          6           0        2.413893    1.308564    0.494852
      3          6           0        3.484191    0.926993   -0.306418
      4          6           0        3.327994   -0.291573   -0.957475
      5         17           0        4.593275   -0.877735   -1.986973
      6          7           0        2.245642   -1.052636   -0.841297
      7          6           0        1.283674   -0.570598   -0.041395
      8          6           0        0.075178   -1.440881    0.156970
      9          6           0        0.265930   -2.390711    1.326118
     10          6           0       -0.106958   -2.004940    2.616510
     11          6           0        0.077479   -2.874037    3.693506
     12          6           0        0.641044   -4.133634    3.486980
     13          6           0        1.024659   -4.519253    2.202055
     14          6           0        0.839640   -3.649223    1.125947
     15          7           0        1.311710    0.582241    0.642563
     16          1           0        4.373422    1.534066   -0.415585
     17          1           0       -0.100303   -2.003825   -0.763712
     18          1           0       -0.790588   -0.796037    0.330113
     19          1           0       -0.536626   -1.020802    2.776689
     20          1           0       -0.218744   -2.569119    4.692401
     21          1           0        0.782544   -4.811115    4.324185
     22          1           0        1.466892   -5.497050    2.038160
     23          1           0        1.146131   -3.943769    0.126889
 ---------------------------------------------------------------------
                    Distance matrix (angstroms):
                    1          2          3          4          5
     1  Cl   0.000000
     2  C    1.733349   0.000000
     3  C    2.703966   1.390384   0.000000
     4  C    3.960964   2.346332   1.390387   0.000000
     5  Cl   5.406187   3.960943   2.703956   1.733317   0.000000
     6  N    4.451360   2.718247   2.395627   1.328232   2.618119
     7  C    3.851382   2.257477   2.674938   2.257500   3.851373
     8  C    5.032503   3.625355   4.176473   3.625426   5.032577
     9  C    5.654521   4.357681   4.901993   4.358603   5.656111
    10  C    5.611193   4.672840   5.480519   5.244797   6.674941
    11  C    6.599523   5.760587   6.484821   6.234308   7.526319
    12  C    7.492499   6.458586   6.934211   6.460210   7.495676
    13  C    7.520296   6.229603   6.480997   5.758582   6.598760
    14  C    6.669300   5.239867   5.476045   4.669729   5.609028
    15  N    2.618122   1.328221   2.395641   2.718286   4.451367
    16  H    2.886921   2.172441   1.082213   2.172446   2.886933
    17  H    5.862336   4.344777   4.652678   3.837001   4.979370
    18  H    4.979979   3.837340   4.652713   4.344547   5.861872
    19  H    5.081408   4.397532   5.428298   5.423195   7.002059
    20  H    6.881657   6.291790   7.136015   7.048949   8.404187
    21  H    8.352535   7.401052   7.852851   7.402805   8.356068
    22  H    8.396134   7.042371   7.129857   6.287648   6.878520
    23  H    6.994240   5.415683   5.420203   4.390321   5.074622
                    6          7          8          9         10
     6  N    0.000000
     7  C    1.340741   0.000000
     8  C    2.420369   1.502399   0.000000
     9  C    3.226049   2.493733   1.518376   0.000000
    10  C    4.289294   3.325004   2.529955   1.397489   0.000000
    11  C    5.346295   4.550848   3.815891   2.423561   1.396161
    12  C    5.549888   5.055455   4.319732   2.801396   2.418380
    13  C    4.771816   4.548849   3.815790   2.423557   2.788207
    14  C    3.548120   3.322317   2.529840   1.397522   2.412777
    15  N    2.397268   1.340754   2.420296   3.224801   3.550013
    16  H    3.376345   3.757149   5.258614   5.942128   6.464670
    17  H    2.532635   2.119263   1.093323   2.156663   3.380228
    18  H    3.264465   2.119293   1.093322   2.156672   2.675146
    19  H    4.564192   3.384933   2.722810   2.150559   1.085726
    20  H    6.244577   5.353519   4.682889   3.405672   2.154094
    21  H    6.553551   6.106669   5.405971   3.887629   3.403232
    22  H    5.352620   5.350518   4.682760   3.405680   3.873800
    23  H    3.241136   3.380166   2.722553   2.150557   3.395217
                   11         12         13         14         15
    11  C    0.000000
    12  C    1.395293   0.000000
    13  C    2.414190   1.395312   0.000000
    14  C    2.788219   2.418382   1.396135   0.000000
    15  N    4.772571   5.547970   5.342252   4.285067   0.000000
    16  H    7.400751   7.828376   7.396547   6.459909   3.376348
    17  H    4.544850   4.811866   4.048294   2.676124   3.264832
    18  H    4.047719   4.811957   4.545505   3.381074   2.533166
    19  H    2.156886   3.403108   3.873884   3.395241   3.246626
    20  H    1.085594   2.154062   3.398661   3.873810   5.354862
    21  H    2.155724   1.086240   2.155746   3.403231   6.551538
    22  H    3.398652   2.154068   1.085596   2.154075   6.239355
    23  H    3.873900   3.403141   2.156907   1.085730   4.558301
                   16         17         18         19         20
    16  H    0.000000
    17  H    5.714199   0.000000
    18  H    5.714231   1.769660   0.000000
    19  H    6.389564   3.700155   2.469969   0.000000
    20  H    8.000977   5.486598   4.743457   2.483604   0.000000
    21  H    8.696042   5.877669   5.877772   4.301329   2.482883
    22  H    7.994083   4.744387   5.487546   4.959467   4.296411
    23  H    6.380937   2.471872   3.701405   4.289155   4.959481
                   21         22         23
    21  H    0.000000
    22  H    2.482892   0.000000
    23  H    4.301370   2.483651   0.000000
 Stoichiometry    C11H8Cl2N2
 Framework group  C1[X(C11H8Cl2N2)]
 Deg. of freedom    63
 Full point group                 C1      NOp   1
 Largest Abelian subgroup         C1      NOp   1
 Largest concise Abelian subgroup C1      NOp   1
                         Standard orientation:                         
 ---------------------------------------------------------------------
 Center     Atomic      Atomic             Coordinates (Angstroms)
 Number     Number       Type             X           Y           Z
 ---------------------------------------------------------------------
      1         17           0       -2.625461    2.704695   -0.452717
      2          6           0       -1.927790    1.174151   -0.034163
      3          6           0       -2.569225    0.001547   -0.417213
      4          6           0       -1.930297   -1.172179   -0.033398
      5         17           0       -2.631191   -2.701489   -0.450950
      6          7           0       -0.792198   -1.198615    0.650877
      7          6           0       -0.277203   -0.000434    0.961890
      8          6           0        1.041793   -0.001521    1.681231
      9          6           0        2.203054   -0.001477    0.702999
     10          6           0        2.736798    1.204884    0.241713
     11          6           0        3.798007    1.205536   -0.665536
     12          6           0        4.329163   -0.001586   -1.121139
     13          6           0        3.792699   -1.208640   -0.671562
     14          6           0        2.731536   -1.207879    0.235700
     15          7           0       -0.789643    1.198651    0.650084
     16          1           0       -3.497810    0.002361   -0.973015
     17          1           0        1.085725   -0.886790    2.321328
     18          1           0        1.086607    0.882870    2.322477
     19          1           0        2.315984    2.143145    0.590113
     20          1           0        4.210362    2.146627   -1.016004
     21          1           0        5.156380   -0.001638   -1.825149
     22          1           0        4.200947   -2.149760   -1.026731
     23          1           0        2.306568   -2.145986    0.579456
 ---------------------------------------------------------------------
 Rotational constants (GHZ):           0.6328255           0.2969943           0.2244432
 Standard basis: 6-31G(d,p) (6D, 7F)
 There are   273 symmetry adapted cartesian basis functions of A   symmetry.
 There are   273 symmetry adapted basis functions of A   symmetry.
   273 basis functions,   524 primitive gaussians,   273 cartesian basis functions
    61 alpha electrons       61 beta electrons
       nuclear repulsion energy      1086.6443113947 Hartrees.
 NAtoms=   23 NActive=   23 NUniq=   23 SFac= 1.00D+00 NAtFMM=   60 NAOKFM=F Big=F
 Integral buffers will be    131072 words long.
 Raffenetti 2 integral format.
 Two-electron integral symmetry is turned on.
 Nuclear repulsion after empirical dispersion term =     1086.5910870868 Hartrees.
 One-electron integrals computed using PRISM.
 NBasis=   273 RedAO= T EigKep=  4.69D-04  NBF=   273
 NBsUse=   273 1.00D-06 EigRej= -1.00D+00 NBFU=   273
 Initial guess from the checkpoint file:  "pyrmd2_conf-1.chk"
 B after Tr=     0.000000    0.000000    0.000000
         Rot=    0.999999    0.000017    0.001217    0.000023 Ang=   0.14 deg.
 ExpMin= 1.43D-01 ExpMax= 2.52D+04 ExpMxC= 3.78D+03 IAcc=3 IRadAn=         5 AccDes= 0.00D+00
 Harris functional with IExCor=  402 and IRadAn=       5 diagonalized for initial guess.
 HarFok:  IExCor=  402 AccDes= 0.00D+00 IRadAn=         5 IDoV= 1 UseB2=F ITyADJ=14
 ICtDFT=  3500011 ScaDFX=  1.000000  1.000000  1.000000  1.000000
 FoFCou: FMM=F IPFlag=           0 FMFlag=      100000 FMFlg1=           0
         NFxFlg=           0 DoJE=T BraDBF=F KetDBF=T FulRan=T
         wScrn=  0.000000 ICntrl=       500 IOpCl=  0 I1Cent=   200000004 NGrid=           0
         NMat0=    1 NMatS0=      1 NMatT0=    0 NMatD0=    1 NMtDS0=    0 NMtDT0=    0
 Petite list used in FoFCou.
 Requested convergence on RMS density matrix=1.00D-08 within 128 cycles.
 Requested convergence on MAX density matrix=1.00D-06.
 Requested convergence on             energy=1.00D-06.
 No special actions if energy rises.
 Integral accuracy reduced to 1.0D-05 until final iterations.
 Initial convergence to 1.0D-05 achieved.  Increase integral accuracy.
 SCF Done:  E(RB3LYP) =  -1453.95537766     A.U. after   12 cycles
            NFock= 12  Conv=0.80D-08     -V/T= 2.0054
 Calling FoFJK, ICntrl=      2127 FMM=F ISym2X=0 I1Cent= 0 IOpClX= 0 NMat=1 NMatS=1 NMatT=0.
 ***** Axes restored to original set *****
 -------------------------------------------------------------------
 Center     Atomic                   Forces (Hartrees/Bohr)
 Number     Number              X              Y              Z
 -------------------------------------------------------------------
      1       17           0.000855982    0.005485485    0.002889910
      2        6          -0.005215682   -0.006882201   -0.001388419
      3        6           0.005963704    0.003916457   -0.000579022
      4        6          -0.007962136   -0.002054379    0.002989800
      5       17           0.004911755   -0.001607995   -0.003549538
      6        7           0.004510967    0.005060680    0.000173019
      7        6          -0.004619717   -0.004697232    0.002285346
      8        6          -0.005797140   -0.001033759   -0.002522729
      9        6          -0.000605052    0.000865449   -0.001345437
     10        6           0.000497019   -0.000979169    0.002192439
     11        6           0.000102934    0.000725460   -0.001087686
     12        6           0.000237439   -0.000179507    0.000351943
     13        6          -0.000067031    0.001013556   -0.000816064
     14        6           0.000879038   -0.001643719    0.001582233
     15        7           0.005929912    0.002605006   -0.002067959
     16        1          -0.000737274   -0.000492327    0.000078060
     17        1           0.000978877   -0.000527087    0.000676181
     18        1           0.000726976   -0.000088298    0.001082589
     19        1          -0.000200369    0.000098738   -0.000121780
     20        1          -0.000168038    0.000288427   -0.000003727
     21        1          -0.000114839    0.000192124   -0.000286449
     22        1           0.000036298   -0.000065464   -0.000325504
     23        1          -0.000143621   -0.000000246   -0.000207208
 -------------------------------------------------------------------
 Cartesian Forces:  Max     0.007962136 RMS     0.002659090

 GradGradGradGradGradGradGradGradGradGradGradGradGradGradGradGradGradGrad
 Berny optimization.
 Using GEDIIS/GDIIS optimizer.
 FormGI is forming the generalized inverse of G from B-inverse, IUseBI=4.
 Internal  Forces:  Max     0.006237513 RMS     0.001411088
 Search for a local minimum.
 Step number   2 out of a maximum of  124
 All quantities printed in internal units (Hartrees-Bohrs-Radians)
 Mixed Optimization -- RFO/linear search
 Update second derivatives using D2CorX and points    1    2
 DE= -4.83D-03 DEPred=-4.72D-03 R= 1.02D+00
 TightC=F SS=  1.41D+00  RLast= 2.08D-01 DXNew= 5.0454D-01 6.2427D-01
 Trust test= 1.02D+00 RLast= 2.08D-01 DXMaxT set to 5.05D-01
 ITU=  1  0
 Use linear search instead of GDIIS.
     Eigenvalues ---    0.00467   0.00505   0.01351   0.01456   0.02127
     Eigenvalues ---    0.02131   0.02148   0.02151   0.02157   0.02162
     Eigenvalues ---    0.02170   0.02172   0.02174   0.02177   0.02180
     Eigenvalues ---    0.02181   0.02213   0.02239   0.04988   0.06157
     Eigenvalues ---    0.09757   0.13104   0.15933   0.16000   0.16000
     Eigenvalues ---    0.16000   0.16000   0.16015   0.20463   0.22000
     Eigenvalues ---    0.22022   0.22508   0.23496   0.24914   0.24987
     Eigenvalues ---    0.24994   0.25000   0.25000   0.26788   0.30092
     Eigenvalues ---    0.31076   0.32118   0.33093   0.34695   0.34735
     Eigenvalues ---    0.35896   0.35903   0.35922   0.35927   0.36043
     Eigenvalues ---    0.36329   0.42259   0.42270   0.43471   0.45085
     Eigenvalues ---    0.46190   0.46354   0.46735   0.46913   0.50258
     Eigenvalues ---    0.51444   0.53253   0.57613
 RFO step:  Lambda=-9.39741369D-04 EMin= 4.66712717D-03
 Quartic linear search produced a step of  0.04524.
 Iteration  1 RMS(Cart)=  0.03616062 RMS(Int)=  0.00027325
 Iteration  2 RMS(Cart)=  0.00069317 RMS(Int)=  0.00003705
 Iteration  3 RMS(Cart)=  0.00000005 RMS(Int)=  0.00003705
 Variable       Old X    -DE/DX   Delta X   Delta X   Delta X     New X
                                 (Linear)    (Quad)   (Total)
    R1        3.27555   0.00623   0.00075   0.02041   0.02117   3.29672
    R2        2.62744   0.00198  -0.00055   0.00395   0.00339   2.63084
    R3        2.50997  -0.00141  -0.00260  -0.00568  -0.00828   2.50169
    R4        2.62745   0.00197  -0.00055   0.00392   0.00336   2.63081
    R5        2.04509  -0.00089   0.00031  -0.00222  -0.00191   2.04318
    R6        3.27549   0.00624   0.00076   0.02045   0.02120   3.29670
    R7        2.51000  -0.00140  -0.00259  -0.00566  -0.00826   2.50174
    R8        2.53363   0.00187  -0.00151   0.00187   0.00036   2.53399
    R9        2.83912   0.00359  -0.00148   0.01066   0.00918   2.84831
   R10        2.53366   0.00187  -0.00152   0.00187   0.00035   2.53401
   R11        2.86932  -0.00019  -0.00036  -0.00106  -0.00143   2.86789
   R12        2.06608  -0.00046   0.00020  -0.00115  -0.00095   2.06513
   R13        2.06608  -0.00046   0.00020  -0.00115  -0.00095   2.06512
   R14        2.64087   0.00075   0.00000   0.00176   0.00178   2.64265
   R15        2.64093   0.00075   0.00000   0.00176   0.00178   2.64271
   R16        2.63836  -0.00145   0.00030  -0.00289  -0.00259   2.63577
   R17        2.05172   0.00015   0.00042   0.00091   0.00133   2.05305
   R18        2.63672   0.00016   0.00015   0.00046   0.00059   2.63731
   R19        2.05148   0.00012   0.00043   0.00083   0.00127   2.05274
   R20        2.63676   0.00016   0.00015   0.00046   0.00059   2.63735
   R21        2.05270  -0.00036   0.00048  -0.00050  -0.00001   2.05268
   R22        2.63831  -0.00145   0.00030  -0.00288  -0.00258   2.63573
   R23        2.05148   0.00012   0.00043   0.00083   0.00126   2.05274
   R24        2.05173   0.00015   0.00042   0.00090   0.00132   2.05305
    A1        2.08573  -0.00146   0.00025  -0.00601  -0.00575   2.07998
    A2        2.04093   0.00062  -0.00146   0.00082  -0.00063   2.04030
    A3        2.15652   0.00084   0.00120   0.00520   0.00639   2.16291
    A4        2.00854  -0.00276  -0.00183  -0.01435  -0.01619   1.99235
    A5        2.13732   0.00138   0.00091   0.00718   0.00810   2.14542
    A6        2.13733   0.00138   0.00091   0.00717   0.00809   2.14542
    A7        2.08575  -0.00146   0.00025  -0.00601  -0.00575   2.08000
    A8        2.15648   0.00085   0.00121   0.00523   0.00642   2.16290
    A9        2.04095   0.00062  -0.00146   0.00079  -0.00067   2.04029
   A10        2.01623   0.00346  -0.00056   0.01387   0.01331   2.02954
   A11        2.03492   0.00292  -0.00028   0.01191   0.01162   2.04655
   A12        2.21241  -0.00585   0.00054  -0.02381  -0.02327   2.18914
   A13        2.03481   0.00293  -0.00028   0.01196   0.01168   2.04649
   A14        1.94225  -0.00306  -0.00175  -0.01979  -0.02167   1.92059
   A15        1.89250   0.00093  -0.00075   0.00278   0.00193   1.89442
   A16        1.89254   0.00093  -0.00074   0.00278   0.00194   1.89448
   A17        1.92461   0.00040   0.00049  -0.00092  -0.00054   1.92408
   A18        1.92463   0.00040   0.00048  -0.00097  -0.00060   1.92403
   A19        1.88593   0.00051   0.00249   0.01731   0.01976   1.90569
   A20        2.09993   0.00023   0.00030   0.00103   0.00115   2.10109
   A21        2.09973   0.00024   0.00030   0.00104   0.00116   2.10090
   A22        2.08332  -0.00048  -0.00060  -0.00259  -0.00327   2.08005
   A23        2.10041   0.00016   0.00033   0.00123   0.00160   2.10201
   A24        2.08522  -0.00021  -0.00075  -0.00203  -0.00280   2.08243
   A25        2.09754   0.00004   0.00042   0.00079   0.00120   2.09873
   A26        2.09570   0.00009   0.00031   0.00059   0.00090   2.09660
   A27        2.09313  -0.00036  -0.00015  -0.00234  -0.00250   2.09063
   A28        2.09436   0.00027  -0.00015   0.00175   0.00159   2.09595
   A29        2.09075  -0.00002  -0.00067  -0.00109  -0.00178   2.08898
   A30        2.09621   0.00001   0.00034   0.00055   0.00090   2.09711
   A31        2.09622   0.00001   0.00034   0.00054   0.00088   2.09710
   A32        2.09571   0.00008   0.00031   0.00058   0.00089   2.09660
   A33        2.09434   0.00027  -0.00015   0.00176   0.00161   2.09594
   A34        2.09314  -0.00036  -0.00015  -0.00234  -0.00249   2.09064
   A35        2.10040   0.00016   0.00033   0.00124   0.00161   2.10200
   A36        2.08517  -0.00020  -0.00075  -0.00201  -0.00278   2.08239
   A37        2.09761   0.00004   0.00042   0.00076   0.00116   2.09877
   A38        2.01619   0.00346  -0.00056   0.01390   0.01334   2.02954
    D1       -3.14114   0.00004   0.00008   0.00134   0.00145  -3.13969
    D2        0.00010  -0.00003  -0.00003  -0.00169  -0.00172  -0.00162
    D3       -0.00200   0.00009  -0.00005   0.00412   0.00408   0.00207
    D4        3.13924   0.00002  -0.00017   0.00108   0.00091   3.14015
    D5        3.13846   0.00010  -0.00003   0.00409   0.00410  -3.14063
    D6       -0.00074   0.00005   0.00010   0.00139   0.00153   0.00079
    D7        3.14116  -0.00004  -0.00008  -0.00133  -0.00144   3.13972
    D8        0.00201  -0.00009   0.00005  -0.00408  -0.00404  -0.00203
    D9       -0.00009   0.00003   0.00004   0.00170   0.00173   0.00164
   D10       -3.13924  -0.00002   0.00017  -0.00105  -0.00087  -3.14011
   D11        0.00072  -0.00005  -0.00010  -0.00146  -0.00160  -0.00087
   D12       -3.13848  -0.00010   0.00002  -0.00413  -0.00414   3.14056
   D13       -3.09454   0.00007   0.00068   0.00641   0.00709  -3.08745
   D14       -0.00403   0.00024   0.00016   0.00817   0.00830   0.00427
   D15        1.54903  -0.00006  -0.00023  -0.00008  -0.00031   1.54872
   D16       -0.57069   0.00075   0.00085   0.01167   0.01250  -0.55819
   D17       -2.61439  -0.00087  -0.00131  -0.01190  -0.01319  -2.62757
   D18       -1.54680   0.00005   0.00022  -0.00057  -0.00036  -1.54716
   D19        2.61666   0.00086   0.00129   0.01118   0.01245   2.62911
   D20        0.57297  -0.00076  -0.00086  -0.01239  -0.01324   0.55973
   D21        0.00404  -0.00024  -0.00016  -0.00814  -0.00827  -0.00423
   D22        3.09455  -0.00007  -0.00068  -0.00638  -0.00706   3.08749
   D23        1.56261  -0.00022  -0.00110  -0.01429  -0.01541   1.54720
   D24       -1.55757   0.00022   0.00110   0.01397   0.01510  -1.54247
   D25       -2.61969  -0.00079  -0.00290  -0.02440  -0.02732  -2.64701
   D26        0.54332  -0.00035  -0.00071   0.00386   0.00320   0.54651
   D27       -0.53833   0.00035   0.00070  -0.00415  -0.00349  -0.54182
   D28        2.62467   0.00078   0.00290   0.02411   0.02702   2.65170
   D29       -3.13315   0.00043   0.00123   0.02473   0.02594  -3.10721
   D30        0.00242   0.00040   0.00142   0.02378   0.02518   0.02759
   D31       -0.01277   0.00001  -0.00096  -0.00322  -0.00416  -0.01693
   D32        3.12280  -0.00002  -0.00077  -0.00417  -0.00492   3.11788
   D33        3.13313  -0.00043  -0.00123  -0.02471  -0.02592   3.10721
   D34       -0.00240  -0.00040  -0.00142  -0.02377  -0.02517  -0.02757
   D35        0.01275  -0.00001   0.00096   0.00324   0.00417   0.01692
   D36       -3.12278   0.00002   0.00077   0.00418   0.00492  -3.11786
   D37        0.00408   0.00001   0.00038   0.00173   0.00210   0.00619
   D38       -3.13679   0.00002   0.00052   0.00190   0.00242  -3.13437
   D39       -3.13144   0.00004   0.00019   0.00269   0.00289  -3.12856
   D40        0.01087   0.00005   0.00034   0.00286   0.00320   0.01407
   D41        0.00474  -0.00002   0.00020  -0.00019   0.00001   0.00476
   D42       -3.13901   0.00004   0.00021   0.00166   0.00187  -3.13714
   D43       -3.13757  -0.00003   0.00006  -0.00036  -0.00030  -3.13787
   D44        0.00186   0.00003   0.00007   0.00148   0.00155   0.00342
   D45       -0.00477   0.00002  -0.00020   0.00020   0.00000  -0.00477
   D46        3.13759   0.00003  -0.00006   0.00035   0.00029   3.13788
   D47        3.13898  -0.00004  -0.00021  -0.00164  -0.00185   3.13713
   D48       -0.00185  -0.00003  -0.00007  -0.00150  -0.00157  -0.00341
   D49       -0.00403  -0.00001  -0.00038  -0.00175  -0.00214  -0.00616
   D50        3.13145  -0.00004  -0.00019  -0.00271  -0.00291   3.12855
   D51        3.13680  -0.00002  -0.00052  -0.00190  -0.00242   3.13438
   D52       -0.01090  -0.00005  -0.00033  -0.00286  -0.00319  -0.01409
         Item               Value     Threshold  Converged?
 Maximum Force            0.006238     0.000450     NO 
 RMS     Force            0.001411     0.000300     NO 
 Maximum Displacement     0.132746     0.001800     NO 
 RMS     Displacement     0.036579     0.001200     NO 
 Predicted change in Energy=-4.902482D-04
 GradGradGradGradGradGradGradGradGradGradGradGradGradGradGradGradGradGrad

                          Input orientation:                          
 ---------------------------------------------------------------------
 Center     Atomic      Atomic             Coordinates (Angstroms)
 Number     Number       Type             X           Y           Z
 ---------------------------------------------------------------------
      1         17           0        2.487502    2.783458    1.399759
      2          6           0        2.410426    1.282165    0.514531
      3          6           0        3.495238    0.900555   -0.270147
      4          6           0        3.321273   -0.312017   -0.931606
      5         17           0        4.600020   -0.914006   -1.954262
      6          7           0        2.230176   -1.055695   -0.836412
      7          6           0        1.255782   -0.581999   -0.046308
      8          6           0        0.033292   -1.444834    0.134964
      9          6           0        0.232998   -2.390501    1.305009
     10          6           0       -0.118367   -1.997285    2.600207
     11          6           0        0.102532   -2.849774    3.681830
     12          6           0        0.684336   -4.102051    3.479294
     13          6           0        1.049034   -4.494559    2.190611
     14          6           0        0.827578   -3.641138    1.109864
     15          7           0        1.301326    0.570052    0.638403
     16          1           0        4.393301    1.495777   -0.360667
     17          1           0       -0.131889   -2.011144   -0.784961
     18          1           0       -0.826726   -0.795420    0.316287
[...]
 Alpha  occ. eigenvalues --   -9.82811  -9.82810  -7.55005  -7.55005  -7.54500
 Alpha  occ. eigenvalues --   -7.54499  -7.54459  -7.54458  -1.13991  -1.04886
 Alpha  occ. eigenvalues --   -0.99102  -0.96631  -0.95043  -0.90533  -0.87422
 Alpha  occ. eigenvalues --   -0.84541  -0.81322  -0.73412  -0.73358  -0.69292
 Alpha  occ. eigenvalues --   -0.66990  -0.63610  -0.60399  -0.59251  -0.55959
 Alpha  occ. eigenvalues --   -0.54882  -0.53597  -0.52870  -0.50984  -0.49918
 Alpha  occ. eigenvalues --   -0.49033  -0.48411  -0.46615  -0.45832  -0.43861
 Alpha  occ. eigenvalues --   -0.42700  -0.41014  -0.40493  -0.40304  -0.39628
 Alpha  occ. eigenvalues --   -0.39593  -0.36777  -0.35530  -0.34360  -0.31130
 Alpha  occ. eigenvalues --   -0.30477
 Alpha virt. eigenvalues --   -0.03140  -0.02755   0.01790   0.02089   0.03990
 Alpha virt. eigenvalues --    0.07512   0.08288   0.08685   0.10451   0.10456
 Alpha virt. eigenvalues --    0.11408   0.12698   0.12968   0.14149   0.14595
 Alpha virt. eigenvalues --    0.15807   0.16007   0.16409   0.19065   0.19613
 Alpha virt. eigenvalues --    0.19662   0.19906   0.21834   0.22479   0.23784
 Alpha virt. eigenvalues --    0.24297   0.25096   0.25171   0.26626   0.26656
 Alpha virt. eigenvalues --    0.26953   0.26988   0.28319   0.28447   0.30514
 Alpha virt. eigenvalues --    0.31288   0.31741   0.31745   0.32603   0.33018
 Alpha virt. eigenvalues --    0.33642   0.33735   0.34528   0.35019   0.36059
 Alpha virt. eigenvalues --    0.36499   0.37362   0.37931   0.38420   0.38618
 Alpha virt. eigenvalues --    0.38998   0.39196   0.39373   0.40069   0.40814
 Alpha virt. eigenvalues --    0.41103   0.41531   0.42559   0.43538   0.43571
 Alpha virt. eigenvalues --    0.43911   0.44121   0.44884   0.44911   0.45437
 Alpha virt. eigenvalues --    0.47798   0.47992   0.48139   0.48941   0.49080
 Alpha virt. eigenvalues --    0.51241   0.52628   0.53284   0.53801   0.54052
 Alpha virt. eigenvalues --    0.54981   0.55771   0.56257   0.56414   0.57176
 Alpha virt. eigenvalues --    0.58348   0.58999   0.59569   0.60365   0.60546
 Alpha virt. eigenvalues --    0.62760   0.63214   0.63720   0.66331   0.67015
 Alpha virt. eigenvalues --    0.68268   0.68663   0.69830   0.70200   0.71828
 Alpha virt. eigenvalues --    0.72346   0.72551   0.73005   0.74069   0.75482
 Alpha virt. eigenvalues --    0.76250   0.76549   0.77506   0.77660   0.77943
 Alpha virt. eigenvalues --    0.78803   0.79674   0.81866   0.82245   0.83616
 Alpha virt. eigenvalues --    0.84466   0.86747   0.87052   0.88236   0.90992
 Alpha virt. eigenvalues --    0.92567   0.93351   0.94201   0.95563   0.95811
 Alpha virt. eigenvalues --    0.97798   0.98531   1.01396   1.02801   1.03670
 Alpha virt. eigenvalues --    1.04178   1.06089   1.07663   1.07733   1.09265
 Alpha virt. eigenvalues --    1.09912   1.11212   1.11667   1.14660   1.14985
 Alpha virt. eigenvalues --    1.17006   1.17150   1.20374   1.22006   1.23784
 Alpha virt. eigenvalues --    1.24431   1.24895   1.26763   1.28019   1.28126
 Alpha virt. eigenvalues --    1.28317   1.29260   1.29854   1.32271   1.33602
 Alpha virt. eigenvalues --    1.34014   1.34898   1.38103   1.40325   1.41482
 Alpha virt. eigenvalues --    1.42470   1.44094   1.44481   1.45529   1.45832
 Alpha virt. eigenvalues --    1.47317   1.49267   1.49744   1.50203   1.51137
 Alpha virt. eigenvalues --    1.52003   1.53952   1.54779   1.55338   1.55661
 Alpha virt. eigenvalues --    1.58295   1.59821   1.59936   1.62549   1.63559
 Alpha virt. eigenvalues --    1.65874   1.65928   1.66919   1.68013   1.68538
 Alpha virt. eigenvalues --    1.69413   1.71200   1.72414   1.73903   1.74473
 Alpha virt. eigenvalues --    1.74614   1.74948   1.75068   1.76372   1.76921
 Alpha virt. eigenvalues --    1.78527   1.81035   1.81091   1.82311   1.82338
 Alpha virt. eigenvalues --    1.82808   1.84597   1.85435   1.85629   1.86807
 Alpha virt. eigenvalues --    1.86923   1.88477   1.89407   1.90303   1.91762
 Alpha virt. eigenvalues --    1.92823   1.94136   1.95158   1.97631   1.98679
 Alpha virt. eigenvalues --    1.99362   2.01666   2.03321   2.03362   2.04602
 Alpha virt. eigenvalues --    2.07482   2.08579   2.09543   2.09565   2.10998
 Alpha virt. eigenvalues --    2.11014   2.11631   2.12650   2.13727   2.14202
 Alpha virt. eigenvalues --    2.14459   2.15538   2.16402   2.17663   2.18374
 Alpha virt. eigenvalues --    2.19234   2.21168   2.21473   2.22491   2.24627
 Alpha virt. eigenvalues --    2.24888   2.26001   2.26212   2.26733   2.28352
 Alpha virt. eigenvalues --    2.29008   2.30536   2.30976   2.31527   2.32193
 Alpha virt. eigenvalues --    2.36681   2.37858   2.38207   2.40843   2.42924
 Alpha virt. eigenvalues --    2.44446   2.45897   2.45945   2.48622   2.51699
 Alpha virt. eigenvalues --    2.52735   2.54055   2.54119   2.54219   2.57699
 Alpha virt. eigenvalues --    2.58509   2.59572   2.61042   2.61590   2.61790
 Alpha virt. eigenvalues --    2.64100   2.65406   2.67523   2.68369   2.68669
 Alpha virt. eigenvalues --    2.69084   2.69463   2.70601   2.71530   2.71779
 Alpha virt. eigenvalues --    2.72556   2.76776   2.77388   2.78146   2.78629
 Alpha virt. eigenvalues --    2.79766   2.81339   2.83582   2.84382   2.85097
 Alpha virt. eigenvalues --    2.85210   2.87422   2.87840   2.90814   2.90826
 Alpha virt. eigenvalues --    2.91424   2.91703   2.95001   2.95136   2.96162
 Alpha virt. eigenvalues --    2.98943   3.00219   3.02312   3.02423   3.02507
 Alpha virt. eigenvalues --    3.04740   3.05448   3.06736   3.07541   3.08221
 Alpha virt. eigenvalues --    3.09676   3.11755   3.11915   3.13848   3.14355
 Alpha virt. eigenvalues --    3.15078   3.15214   3.15217   3.16550   3.17280
 Alpha virt. eigenvalues --    3.20050   3.20950   3.21643   3.22363   3.23191
 Alpha virt. eigenvalues --    3.24072   3.24331   3.24624   3.27065   3.27130
 Alpha virt. eigenvalues --    3.28182   3.29108   3.29703   3.30549   3.31953
 Alpha virt. eigenvalues --    3.32498   3.33117   3.35717   3.36330   3.37277
 Alpha virt. eigenvalues --    3.38486   3.39266   3.41031   3.41606   3.41983
 Alpha virt. eigenvalues --    3.44056   3.45146   3.46097   3.46252   3.47252
 Alpha virt. eigenvalues --    3.49788   3.50252   3.51493   3.52748   3.54108
 Alpha virt. eigenvalues --    3.54788   3.57814   3.57886   3.62605   3.64740
 Alpha virt. eigenvalues --    3.67208   3.67991   3.69244   3.71877   3.73112
 Alpha virt. eigenvalues --    3.76686   3.77310   3.78337   3.78825   3.79982
 Alpha virt. eigenvalues --    3.83003   3.83469   3.86879   3.88407   3.89806
 Alpha virt. eigenvalues --    3.92092   3.93477   3.94966   3.96611   3.99872
 Alpha virt. eigenvalues --    4.00305   4.02060   4.02895   4.06100   4.06174
 Alpha virt. eigenvalues --    4.09540   4.10322   4.11711   4.13629   4.13767
 Alpha virt. eigenvalues --    4.15153   4.15751   4.16441   4.19310   4.20339
 Alpha virt. eigenvalues --    4.20701   4.26369   4.27263   4.28013   4.32727
 Alpha virt. eigenvalues --    4.33974   4.40274   4.43524   4.44760   4.47616
 Alpha virt. eigenvalues --    4.49913   4.50111   4.54288   4.54685   4.61813
 Alpha virt. eigenvalues --    4.63617   4.64939   4.65374   4.66672   4.71850
 Alpha virt. eigenvalues --    4.72949   4.73703   4.78565   4.82235   4.85072
 Alpha virt. eigenvalues --    4.90035   4.90682   4.91924   4.94424   5.00566
 Alpha virt. eigenvalues --    5.01963   5.02191   5.07054   5.13234   5.14615
 Alpha virt. eigenvalues --    5.16856   5.19614   5.23095   5.29810   5.31085
 Alpha virt. eigenvalues --    5.33219   5.33426   5.37884   5.40185   5.40492
 Alpha virt. eigenvalues --    5.40865   5.56304   5.59767   5.61691   5.69323
 Alpha virt. eigenvalues --    5.74073   5.94514   6.24270  10.79514  10.80157
 Alpha virt. eigenvalues --   10.85415  10.86437  11.37359  11.40501  22.17324
 Alpha virt. eigenvalues --   22.53366  22.61472  22.69091  22.73737  22.76008
 Alpha virt. eigenvalues --   22.82120  22.87776  22.89440  23.21893  23.32435
 Alpha virt. eigenvalues --   25.83138  25.95305  32.51245  32.75375
          Condensed to atoms (all electrons):
               1          2          3          4          5          6
     1  Cl  16.816524   0.377221  -0.075347   0.008158  -0.000267  -0.000792
     2  C    0.377221   4.680038   0.430630  -0.035534   0.008158  -0.022253
     3  C   -0.075347   0.430630   5.257741   0.430644  -0.075347  -0.043116
     4  C    0.008158  -0.035534   0.430644   4.680047   0.377225   0.518907
     5  Cl  -0.000267   0.008158  -0.075347   0.377225  16.816524  -0.079612
     6  N   -0.000792  -0.022253  -0.043116   0.518907  -0.079612   6.517960
     7  C    0.001748  -0.070006  -0.042014  -0.069982   0.001756   0.464659
     8  C   -0.001461  -0.004710   0.007569  -0.004704  -0.001461  -0.073443
     9  C    0.000210   0.001012  -0.000413   0.001016   0.000211  -0.007631
    10  C   -0.000049  -0.000767   0.000813  -0.000521   0.000026   0.004346
    11  C   -0.000017   0.000152  -0.000112   0.000111  -0.000001  -0.000471
    12  C    0.000002  -0.000047   0.000033  -0.000047   0.000002   0.000388
    13  C   -0.000001   0.000111  -0.000112   0.000152  -0.000017  -0.001907
    14  C    0.000026  -0.000523   0.000816  -0.000772  -0.000051   0.006084
    15  N   -0.079603   0.518990  -0.043148  -0.022255  -0.000792  -0.070159
    16  H    0.000998  -0.026182   0.393116  -0.026189   0.000996   0.004072
    17  H    0.000012  -0.000518   0.000353  -0.000011  -0.000017   0.002984
    18  H   -0.000017  -0.000013   0.000353  -0.000519   0.000012   0.003665
    19  H    0.000072  -0.000031   0.000161  -0.000052   0.000001   0.000268
    20  H   -0.000001  -0.000001  -0.000002   0.000001  -0.000000  -0.000001
    21  H    0.000000  -0.000000   0.000000  -0.000000   0.000000   0.000001
    22  H   -0.000000   0.000001  -0.000002  -0.000001  -0.000001  -0.000044
    23  H    0.000001  -0.000052   0.000163  -0.000033   0.000073   0.006307
               7          8          9         10         11         12
     1  Cl   0.001748  -0.001461   0.000210  -0.000049  -0.000017   0.000002
     2  C   -0.070006  -0.004710   0.001012  -0.000767   0.000152  -0.000047
     3  C   -0.042014   0.007569  -0.000413   0.000813  -0.000112   0.000033
     4  C   -0.069982  -0.004704   0.001016  -0.000521   0.000111  -0.000047
     5  Cl   0.001756  -0.001461   0.000211   0.000026  -0.000001   0.000002
     6  N    0.464659  -0.073443  -0.007631   0.004346  -0.000471   0.000388
     7  C    4.864454   0.214054   0.002244  -0.014397   0.003609  -0.001441
     8  C    0.214054   5.336360   0.228470  -0.059133   0.006181  -0.001442
     9  C    0.002244   0.228470   5.066278   0.434687  -0.005987  -0.083974
    10  C   -0.014397  -0.059133   0.434687   5.025077   0.468173  -0.001296
    11  C    0.003609   0.006181  -0.005987   0.468173   4.930683   0.480322
    12  C   -0.001441  -0.001442  -0.083974  -0.001296   0.480322   4.930211
    13  C    0.003623   0.006162  -0.006001  -0.084482  -0.011675   0.480298
    14  C   -0.014386  -0.059234   0.434531   0.020455  -0.084517  -0.001288
    15  N    0.464697  -0.073394  -0.007606   0.006092  -0.001903   0.000387
    16  H    0.001634   0.000348  -0.000001  -0.000013   0.000002  -0.000001
    17  H   -0.055997   0.448550  -0.049194   0.006969  -0.000979   0.000428
    18  H   -0.055878   0.448475  -0.049186  -0.003400  -0.000808   0.000427
    19  H   -0.004191   0.004670  -0.041416   0.407824  -0.032272   0.005541
    20  H    0.000059  -0.000195   0.006673  -0.035601   0.411617  -0.034851
    21  H    0.000001   0.000050   0.000494   0.003575  -0.032251   0.408435
    22  H    0.000059  -0.000196   0.006670  -0.000792   0.004721  -0.034850
    23  H   -0.004201   0.004683  -0.041417   0.007905  -0.001897   0.005541
              13         14         15         16         17         18
     1  Cl  -0.000001   0.000026  -0.079603   0.000998   0.000012  -0.000017
     2  C    0.000111  -0.000523   0.518990  -0.026182  -0.000518  -0.000013
     3  C   -0.000112   0.000816  -0.043148   0.393116   0.000353   0.000353
     4  C    0.000152  -0.000772  -0.022255  -0.026189  -0.000011  -0.000519
     5  Cl  -0.000017  -0.000051  -0.000792   0.000996  -0.000017   0.000012
     6  N   -0.001907   0.006084  -0.070159   0.004072   0.002984   0.003665
     7  C    0.003623  -0.014386   0.464697   0.001634  -0.055997  -0.055878
     8  C    0.006162  -0.059234  -0.073394   0.000348   0.448550   0.448475
     9  C   -0.006001   0.434531  -0.007606  -0.000001  -0.049194  -0.049186
    10  C   -0.084482   0.020455   0.006092  -0.000013   0.006969  -0.003400
    11  C   -0.011675  -0.084517  -0.001903   0.000002  -0.000979  -0.000808
    12  C    0.480298  -0.001288   0.000387  -0.000001   0.000428   0.000427
    13  C    4.930645   0.468174  -0.000469   0.000002  -0.000810  -0.000978
    14  C    0.468174   5.025533   0.004348  -0.000013  -0.003439   0.006977
    15  N   -0.000469   0.004348   6.517693   0.004074   0.003666   0.002978
    16  H    0.000002  -0.000013   0.004074   0.467013  -0.000010  -0.000010
    17  H   -0.000810  -0.003439   0.003666  -0.000010   0.468401  -0.008260
    18  H   -0.000978   0.006977   0.002978  -0.000010  -0.008260   0.468397
    19  H   -0.001896   0.007915   0.006249  -0.000002   0.000468   0.000108
    20  H    0.004724  -0.000795  -0.000044   0.000000   0.000004  -0.000049
    21  H   -0.032257   0.003579   0.000001  -0.000000   0.000000   0.000000
    22  H    0.411613  -0.035593  -0.000001   0.000000  -0.000049   0.000004
    23  H   -0.032217   0.407786   0.000271  -0.000002   0.000102   0.000467
              19         20         21         22         23
     1  Cl   0.000072  -0.000001   0.000000  -0.000000   0.000001
     2  C   -0.000031  -0.000001  -0.000000   0.000001  -0.000052
     3  C    0.000161  -0.000002   0.000000  -0.000002   0.000163
     4  C   -0.000052   0.000001  -0.000000  -0.000001  -0.000033
     5  Cl   0.000001  -0.000000   0.000000  -0.000001   0.000073
     6  N    0.000268  -0.000001   0.000001  -0.000044   0.006307
     7  C   -0.004191   0.000059   0.000001   0.000059  -0.004201
     8  C    0.004670  -0.000195   0.000050  -0.000196   0.004683
     9  C   -0.041416   0.006673   0.000494   0.006670  -0.041417
    10  C    0.407824  -0.035601   0.003575  -0.000792   0.007905
    11  C   -0.032272   0.411617  -0.032251   0.004721  -0.001897
    12  C    0.005541  -0.034851   0.408435  -0.034850   0.005541
    13  C   -0.001896   0.004724  -0.032257   0.411613  -0.032217
    14  C    0.007915  -0.000795   0.003579  -0.035593   0.407786
    15  N    0.006249  -0.000044   0.000001  -0.000001   0.000271
    16  H   -0.000002   0.000000  -0.000000   0.000000  -0.000002
    17  H    0.000468   0.000004   0.000000  -0.000049   0.000102
    18  H    0.000108  -0.000049   0.000000   0.000004   0.000467
    19  H    0.493306  -0.003954  -0.000223   0.000057  -0.000218
    20  H   -0.003954   0.511565  -0.003824  -0.000252   0.000057
    21  H   -0.000223  -0.003824   0.511932  -0.003824  -0.000223
    22  H    0.000057  -0.000252  -0.003824   0.511558  -0.003952
    23  H   -0.000218   0.000057  -0.000223  -0.003952   0.493075
 Mulliken charges:
               1
     1  Cl  -0.047416
     2  C    0.144323
     3  C   -0.242779
     4  C    0.144359
     5  Cl  -0.047419
     6  N   -0.230212
     7  C    0.309894
     8  C   -0.426199
     9  C    0.110330
    10  C   -0.185491
    11  C   -0.132680
    12  C   -0.152778
    13  C   -0.132682
    14  C   -0.185614
    15  N   -0.230071
    16  H    0.180170
    17  H    0.187346
    18  H    0.187253
    19  H    0.157615
    20  H    0.144867
    21  H    0.144535
    22  H    0.144871
    23  H    0.157779
 Sum of Mulliken charges =  -0.00000
 Mulliken charges with hydrogens summed into heavy atoms:
               1
     1  Cl  -0.047416
     2  C    0.144323
     3  C   -0.062609
     4  C    0.144359
     5  Cl  -0.047419
     6  N   -0.230212
     7  C    0.309894
     8  C   -0.051600
     9  C    0.110330
    10  C   -0.027876
    11  C    0.012187
    12  C   -0.008244
    13  C    0.012189
    14  C   -0.027835
    15  N   -0.230071
 Electronic spatial extent (au):  <R**2>=           4583.3653
 Charge=             -0.0000 electrons
 Dipole moment (field-independent basis, Debye):
    X=              0.0339    Y=             -0.0000    Z=             -0.2791  Tot=              0.2811
 Quadrupole moment (field-independent basis, Debye-Ang):
   XX=            -94.1166   YY=           -101.6428   ZZ=            -98.0901
   XY=              0.0072   XZ=             -1.2453   YZ=              0.0104
 Traceless Quadrupole moment (field-independent basis, Debye-Ang):
   XX=              3.8332   YY=             -3.6929   ZZ=             -0.1402
   XY=              0.0072   XZ=             -1.2453   YZ=              0.0104
 Octapole moment (field-independent basis, Debye-Ang**2):
  XXX=            -36.7437  YYY=             -0.0074  ZZZ=              3.2391  XYY=              7.7942
  XXY=              0.0559  XXZ=            -33.1794  XZZ=             -6.0695  YZZ=             -0.0010
  YYZ=             -7.3643  XYZ=              0.0280
 Hexadecapole moment (field-independent basis, Debye-Ang**3):
 XXXX=          -3989.8894 YYYY=          -1608.1989 ZZZZ=           -471.6160 XXXY=              0.2971
 XXXZ=           -106.2239 YYYX=              0.0501 YYYZ=              0.0328 ZZZX=             11.7696
 ZZZY=              0.0046 XXYY=           -898.2437 XXZZ=           -728.4051 YYZZ=           -356.8011
 XXYZ=              0.0720 YYXZ=              3.5408 ZZXY=             -0.0378
 N-N= 1.087625625755D+03 E-N=-5.602974236677D+03  KE= 1.450167680567D+03
 Unable to Open any file for archive entry.
 1\1\GINC-COMPUTE-0-32\SP\RM062X\def2TZVP\C11H8Cl2N2\ZTAN64\14-Aug-2024
 \0\\# M062X/def2tzvp int=(grid=ultrafine) nmr=giao guess=read geom=che
 ck\\pyrmd2.xyz\\0,1\Cl,0,2.4901409188,2.7807993375,1.4073219441\C,0,2.
 4062409987,1.2740229051,0.5210879723\C,0,3.4955018094,0.8901812961,-0.
 257874023\C,0,3.3178327312,-0.3205978721,-0.9234765977\Cl,0,4.60586010
 78,-0.9202204357,-1.9453663616\N,0,2.2245630057,-1.0593381701,-0.83696
 5122\C,0,1.2469968077,-0.5837500028,-0.0497328245\C,0,0.0231961609,-1.
 4449334454,0.1286389772\C,0,0.2295935916,-2.3888884184,1.3008225704\C,
 0,-0.1191042838,-1.9939591523,2.5963588589\C,0,0.1100576607,-2.8427544
 98,3.6786485745\C,0,0.6963958084,-4.0927718294,3.4761756288\C,0,1.0551
 181197,-4.4883432841,2.1869071697\C,0,0.8255789144,-3.6389187431,1.105
 2112907\N,0,1.2941461275,0.5682369399,0.6374813976\H,0,4.3963730572,1.
 480646825,-0.3411817161\H,0,-0.1410163651,-2.0109550215,-0.7907171176\
 H,0,-0.8357939616,-0.7955859864,0.3103821821\H,0,-0.5653317903,-1.0164
 438133,2.753647734\H,0,-0.1696289511,-2.5279089815,4.6794332424\H,0,0.
 8727744312,-4.7548678331,4.3182992702\H,0,1.5135651549,-5.4587807305,2
 .0225890363\H,0,1.114139946,-3.9407690857,0.1027079131\\Version=ES64L-
 G16RevC.01\State=1-A\HF=-1453.873235\RMSD=1.344e-09\Dipole=0.0784549,-
 0.0227042,0.0745877\Quadrupole=-0.4829695,0.3564528,0.1265166,1.295190
 2,-0.0156453,-2.6128191\PG=C01 [X(C11H8Cl2N2)]\\@
 The archive entry for this job was punched.


 When I told the people of Northern Ireland that I was
 an atheist, a woman in the audience stood up and said,
 "Yes, but is it the God of the Catholics or the God
 of the Protestants in whom you don't believe?"
                               -- Quentin Crisp
 Job cpu time:       0 days  0 hours 51 minutes 19.8 seconds.
 Elapsed time:       0 days  0 hours  3 minutes 24.2 seconds.
 File lengths (MBytes):  RWF=    156 Int=      0 D2E=      0 Chk=     25 Scr=      1
 Normal termination of Gaussian 16 at Wed Aug 14 20:36:11 2024.
 
 
-----Kestrel cluster job statistics-----
Time info:

real	15m38.382s
user	245m43.221s
sys	0m17.082s
 
Disk space usage:
25M	/scratch/362989.kestrel.chem.wisc.edu
