 Entering Gaussian System, Link 0=/share/apps/gaussian/g16/g16
 Initial command:
 /share/apps/gaussian/g16/l1.exe "/scratch/363661.kestrel.chem.wisc.edu/Gau-253964.inp" -scrdir="/scratch/363661.kestrel.chem.wisc.edu/"
 Entering Link 1 = /share/apps/gaussian/g16/l1.exe PID=    253971.
  
 Copyright (c) 1988-2019, Gaussian, Inc.  All Rights Reserved.
  
 This is part of the Gaussian(R) 16 program.  It is based on
 the Gaussian(R) 09 system (copyright 2009, Gaussian, Inc.),
 the Gaussian(R) 03 system (copyright 2003, Gaussian, Inc.),
 the Gaussian(R) 98 system (copyright 1998, Gaussian, Inc.),
 the Gaussian(R) 94 system (copyright 1995, Gaussian, Inc.),
 the Gaussian 92(TM) system (copyright 1992, Gaussian, Inc.),
 the Gaussian 90(TM) system (copyright 1990, Gaussian, Inc.),
 the Gaussian 88(TM) system (copyright 1988, Gaussian, Inc.),
 the Gaussian 86(TM) system (copyright 1986, Carnegie Mellon
 University), and the Gaussian 82(TM) system (copyright 1983,
 Carnegie Mellon University). Gaussian is a federally registered
 trademark of Gaussian, Inc.
  
 This software contains proprietary and confidential information,
 including trade secrets, belonging to Gaussian, Inc.
  
 This software is provided under written license and may be
 used, copied, transmitted, or stored only in accord with that
 written license.
  
 The following legend is applicable only to US Government
 contracts under FAR:
  
                    RESTRICTED RIGHTS LEGEND
  
 Use, reproduction and disclosure by the US Government is
 subject to restrictions as set forth in subparagraphs (a)
 and (c) of the Commercial Computer Software - Restricted
 Rights clause in FAR 52.227-19.
  
 Gaussian, Inc.
 340 Quinnipiac St., Bldg. 40, Wallingford CT 06492
  
  
 ---------------------------------------------------------------
 Warning -- This program may not be used in any manner that
 competes with the business of Gaussian, Inc. or will provide
 assistance to any competitor of Gaussian, Inc.  The licensee
 of this program is prohibited from giving any competitor of
 Gaussian, Inc. access to this program.  By using this program,
 the user acknowledges that Gaussian, Inc. is engaged in the
 business of creating and licensing software in the field of
 computational chemistry and represents and warrants to the
 licensee that it is not a competitor of Gaussian, Inc. and that
 it will not use this program in any manner prohibited above.
 ---------------------------------------------------------------
  

 Cite this work as:
 Gaussian 16, Revision C.01,
 M. J. Frisch, G. W. Trucks, H. B. Schlegel, G. E. Scuseria, 
 M. A. Robb, J. R. Cheeseman, G. Scalmani, V. Barone, 
 G. A. Petersson, H. Nakatsuji, X. Li, M. Caricato, A. V. Marenich, 
 J. Bloino, B. G. Janesko, R. Gomperts, B. Mennucci, H. P. Hratchian, 
 J. V. Ortiz, A. F. Izmaylov, J. L. Sonnenberg, D. Williams-Young, 
 F. Ding, F. Lipparini, F. Egidi, J. Goings, B. Peng, A. Petrone, 
 T. Henderson, D. Ranasinghe, V. G. Zakrzewski, J. Gao, N. Rega, 
 G. Zheng, W. Liang, M. Hada, M. Ehara, K. Toyota, R. Fukuda, 
 J. Hasegawa, M. Ishida, T. Nakajima, Y. Honda, O. Kitao, H. Nakai, 
 T. Vreven, K. Throssell, J. A. Montgomery, Jr., J. E. Peralta, 
 F. Ogliaro, M. J. Bearpark, J. J. Heyd, E. N. Brothers, K. N. Kudin, 
 V. N. Staroverov, T. A. Keith, R. Kobayashi, J. Normand, 
 K. Raghavachari, A. P. Rendell, J. C. Burant, S. S. Iyengar, 
 J. Tomasi, M. Cossi, J. M. Millam, M. Klene, C. Adamo, R. Cammi, 
 J. W. Ochterski, R. L. Martin, K. Morokuma, O. Farkas, 
 J. B. Foresman, and D. J. Fox, Gaussian, Inc., Wallingford CT, 2019.
 
 ******************************************
 Gaussian 16:  ES64L-G16RevC.01  3-Jul-2019
                16-Aug-2024 
 ******************************************
 %nprocs=16
 Will use up to   16 processors via shared memory.
 %mem=16GB
 %chk=pyrmd1_conf-3.chk
 ----------------------------------------------------------------------
 # B3LYP/6-31G(d,p) symmetry=loose empiricaldispersion=GD3BJ int=(grid=
 ultrafine) opt=calcfc freq=noraman
 ----------------------------------------------------------------------
 1/10=4,18=20,19=15,26=4,38=1/1,3;
 2/9=110,12=2,17=4,18=3,40=1/2;
 3/5=1,6=6,7=101,11=2,25=1,30=1,71=2,74=-5,75=-5,124=41,140=1/1,2,3;
 4//1;
 5/5=2,38=5/2;
 8/6=4,10=90,11=11/1;
 11/6=1,8=1,9=11,15=111,16=1/1,2,10;
 10/6=1,13=1/2;
 6/7=2,8=2,9=2,10=2,28=1/1;
 7/10=1,25=1/1,2,3,16;
 1/10=4,18=20,19=15,26=4/3(2);
 2/9=110/2;
 99//99;
 2/9=110/2;
 3/5=1,6=6,7=101,11=2,25=1,30=1,71=1,74=-5,75=-5,124=41/1,2,3;
 4/5=5,16=3,69=1/1;
 5/5=2,38=5/2;
 7//1,2,3,16;
 1/18=20,19=15,26=4/3(-5);
 2/9=110/2;
 6/7=2,8=2,9=2,10=2,19=2,28=1/1;
 99/9=1/99;
 ----------
 pyrmd1.xyz
 ----------
 Symbolic Z-matrix:
 Charge =  0 Multiplicity = 1
 N                    -4.3368    1.4669   -0.2407 
 C                    -3.0183    1.115    -0.0788 
 N                    -2.6037    0.0113   -0.7276 
 C                    -1.2988   -0.3349   -0.5665 
 C                    -0.9256   -1.6066   -1.3132 
 C                    -0.4103    0.4233    0.2336 
 C                     1.0425    0.1475    0.4834 
 O                     1.5693   -0.813    -0.3008 
 C                     2.9407   -1.1638   -0.191 
 C                     3.2357   -2.282    -1.1932 
 O                     1.7092    0.7803    1.3055 
 C                    -0.9762    1.5465    0.8594 
 N                    -2.276     1.9087    0.7137 
 H                    -4.9124    0.8888   -0.8273 
 H                    -4.6675    2.2872    0.2366 
 H                    -0.4893   -2.3329   -0.6286 
 H                    -1.7892   -2.0786   -1.7834 
 H                    -0.2035   -1.3822   -2.0974 
 H                     3.1644   -1.4967    0.8246 
 H                     3.5688   -0.2948   -0.3971 
 H                     2.6248   -3.1617   -0.9895 
 H                     3.0296   -1.9574   -2.2133 
 H                     4.2821   -2.5819   -1.1423 
 H                    -0.3845    2.1904    1.4985 
 

 GradGradGradGradGradGradGradGradGradGradGradGradGradGradGradGradGradGrad
 Berny optimization.
 Initialization pass.
                           ----------------------------
                           !    Initial Parameters    !
                           ! (Angstroms and Degrees)  !
 --------------------------                            --------------------------
 ! Name  Definition              Value          Derivative Info.                !
 --------------------------------------------------------------------------------
 ! R1    R(1,2)                  1.3742         calculate D2E/DX2 analytically  !
 ! R2    R(1,14)                 1.0048         calculate D2E/DX2 analytically  !
 ! R3    R(1,15)                 1.005          calculate D2E/DX2 analytically  !
 ! R4    R(2,3)                  1.3457         calculate D2E/DX2 analytically  !
 ! R5    R(2,13)                 1.345          calculate D2E/DX2 analytically  !
 ! R6    R(3,4)                  1.3596         calculate D2E/DX2 analytically  !
 ! R7    R(4,5)                  1.5212         calculate D2E/DX2 analytically  !
 ! R8    R(4,6)                  1.4158         calculate D2E/DX2 analytically  !
 ! R9    R(5,16)                 1.0893         calculate D2E/DX2 analytically  !
 ! R10   R(5,17)                 1.0907         calculate D2E/DX2 analytically  !
 ! R11   R(5,18)                 1.0894         calculate D2E/DX2 analytically  !
 ! R12   R(6,7)                  1.4997         calculate D2E/DX2 analytically  !
 ! R13   R(6,12)                 1.4048         calculate D2E/DX2 analytically  !
 ! R14   R(7,8)                  1.3472         calculate D2E/DX2 analytically  !
 ! R15   R(7,11)                 1.2332         calculate D2E/DX2 analytically  !
 ! R16   R(8,9)                  1.4198         calculate D2E/DX2 analytically  !
 ! R17   R(9,10)                 1.5303         calculate D2E/DX2 analytically  !
 ! R18   R(9,19)                 1.0919         calculate D2E/DX2 analytically  !
 ! R19   R(9,20)                 1.0919         calculate D2E/DX2 analytically  !
 ! R20   R(10,21)                1.0902         calculate D2E/DX2 analytically  !
 ! R21   R(10,22)                1.0902         calculate D2E/DX2 analytically  !
 ! R22   R(10,23)                1.0897         calculate D2E/DX2 analytically  !
 ! R23   R(12,13)                1.3572         calculate D2E/DX2 analytically  !
 ! R24   R(12,24)                1.0831         calculate D2E/DX2 analytically  !
 ! A1    A(2,1,14)             118.1041         calculate D2E/DX2 analytically  !
 ! A2    A(2,1,15)             117.9539         calculate D2E/DX2 analytically  !
 ! A3    A(14,1,15)            123.942          calculate D2E/DX2 analytically  !
 ! A4    A(1,2,3)              116.6675         calculate D2E/DX2 analytically  !
 ! A5    A(1,2,13)             116.6041         calculate D2E/DX2 analytically  !
 ! A6    A(3,2,13)             126.7283         calculate D2E/DX2 analytically  !
 ! A7    A(2,3,4)              116.5767         calculate D2E/DX2 analytically  !
 ! A8    A(3,4,5)              112.9646         calculate D2E/DX2 analytically  !
 ! A9    A(3,4,6)              122.202          calculate D2E/DX2 analytically  !
 ! A10   A(5,4,6)              124.8292         calculate D2E/DX2 analytically  !
 ! A11   A(4,5,16)             110.3144         calculate D2E/DX2 analytically  !
 ! A12   A(4,5,17)             112.2794         calculate D2E/DX2 analytically  !
 ! A13   A(4,5,18)             110.1065         calculate D2E/DX2 analytically  !
 ! A14   A(16,5,17)            107.4293         calculate D2E/DX2 analytically  !
 ! A15   A(16,5,18)            108.9212         calculate D2E/DX2 analytically  !
 ! A16   A(17,5,18)            107.6765         calculate D2E/DX2 analytically  !
 ! A17   A(4,6,7)              127.1271         calculate D2E/DX2 analytically  !
 ! A18   A(4,6,12)             115.2854         calculate D2E/DX2 analytically  !
 ! A19   A(7,6,12)             117.5858         calculate D2E/DX2 analytically  !
 ! A20   A(6,7,8)              114.3904         calculate D2E/DX2 analytically  !
 ! A21   A(6,7,11)             122.7105         calculate D2E/DX2 analytically  !
 ! A22   A(8,7,11)             122.8525         calculate D2E/DX2 analytically  !
 ! A23   A(7,8,9)              120.5857         calculate D2E/DX2 analytically  !
 ! A24   A(8,9,10)             108.4269         calculate D2E/DX2 analytically  !
 ! A25   A(8,9,19)             110.1902         calculate D2E/DX2 analytically  !
 ! A26   A(8,9,20)             110.1453         calculate D2E/DX2 analytically  !
 ! A27   A(10,9,19)            110.2954         calculate D2E/DX2 analytically  !
 ! A28   A(10,9,20)            110.307          calculate D2E/DX2 analytically  !
 ! A29   A(19,9,20)            107.4793         calculate D2E/DX2 analytically  !
 ! A30   A(9,10,21)            111.0528         calculate D2E/DX2 analytically  !
 ! A31   A(9,10,22)            111.0267         calculate D2E/DX2 analytically  !
 ! A32   A(9,10,23)            110.8313         calculate D2E/DX2 analytically  !
 ! A33   A(21,10,22)           108.0086         calculate D2E/DX2 analytically  !
 ! A34   A(21,10,23)           107.8954         calculate D2E/DX2 analytically  !
 ! A35   A(22,10,23)           107.8901         calculate D2E/DX2 analytically  !
 ! A36   A(6,12,13)            123.4608         calculate D2E/DX2 analytically  !
 ! A37   A(6,12,24)            121.2053         calculate D2E/DX2 analytically  !
 ! A38   A(13,12,24)           115.3336         calculate D2E/DX2 analytically  !
 ! A39   A(2,13,12)            115.743          calculate D2E/DX2 analytically  !
 ! D1    D(14,1,2,3)            -0.0175         calculate D2E/DX2 analytically  !
 ! D2    D(14,1,2,13)         -179.9228         calculate D2E/DX2 analytically  !
 ! D3    D(15,1,2,3)           179.8923         calculate D2E/DX2 analytically  !
 ! D4    D(15,1,2,13)           -0.013          calculate D2E/DX2 analytically  !
 ! D5    D(1,2,3,4)            179.978          calculate D2E/DX2 analytically  !
 ! D6    D(13,2,3,4)            -0.1277         calculate D2E/DX2 analytically  !
 ! D7    D(1,2,13,12)         -179.8854         calculate D2E/DX2 analytically  !
 ! D8    D(3,2,13,12)            0.2203         calculate D2E/DX2 analytically  !
 ! D9    D(2,3,4,5)            178.9208         calculate D2E/DX2 analytically  !
 ! D10   D(2,3,4,6)             -0.3689         calculate D2E/DX2 analytically  !
 ! D11   D(3,4,5,16)          -124.8333         calculate D2E/DX2 analytically  !
 ! D12   D(3,4,5,17)            -5.0424         calculate D2E/DX2 analytically  !
 ! D13   D(3,4,5,18)           114.9192         calculate D2E/DX2 analytically  !
 ! D14   D(6,4,5,16)            54.4345         calculate D2E/DX2 analytically  !
 ! D15   D(6,4,5,17)           174.2254         calculate D2E/DX2 analytically  !
 ! D16   D(6,4,5,18)           -65.813          calculate D2E/DX2 analytically  !
 ! D17   D(3,4,6,7)           -179.7818         calculate D2E/DX2 analytically  !
 ! D18   D(3,4,6,12)             0.7094         calculate D2E/DX2 analytically  !
 ! D19   D(5,4,6,7)              1.0149         calculate D2E/DX2 analytically  !
 ! D20   D(5,4,6,12)          -178.4939         calculate D2E/DX2 analytically  !
 ! D21   D(4,6,7,8)             10.2245         calculate D2E/DX2 analytically  !
 ! D22   D(4,6,7,11)          -172.1962         calculate D2E/DX2 analytically  !
 ! D23   D(12,6,7,8)          -170.2766         calculate D2E/DX2 analytically  !
 ! D24   D(12,6,7,11)            7.3027         calculate D2E/DX2 analytically  !
 ! D25   D(4,6,12,13)           -0.6175         calculate D2E/DX2 analytically  !
 ! D26   D(4,6,12,24)          179.6061         calculate D2E/DX2 analytically  !
 ! D27   D(7,6,12,13)          179.8244         calculate D2E/DX2 analytically  !
 ! D28   D(7,6,12,24)            0.0479         calculate D2E/DX2 analytically  !
 ! D29   D(6,7,8,9)            178.9156         calculate D2E/DX2 analytically  !
 ! D30   D(11,7,8,9)             1.3402         calculate D2E/DX2 analytically  !
 ! D31   D(7,8,9,10)           179.5191         calculate D2E/DX2 analytically  !
 ! D32   D(7,8,9,19)            58.7178         calculate D2E/DX2 analytically  !
 ! D33   D(7,8,9,20)           -59.6925         calculate D2E/DX2 analytically  !
 ! D34   D(8,9,10,21)          -60.1286         calculate D2E/DX2 analytically  !
 ! D35   D(8,9,10,22)           60.0613         calculate D2E/DX2 analytically  !
 ! D36   D(8,9,10,23)          179.9544         calculate D2E/DX2 analytically  !
 ! D37   D(19,9,10,21)          60.6076         calculate D2E/DX2 analytically  !
 ! D38   D(19,9,10,22)        -179.2025         calculate D2E/DX2 analytically  !
 ! D39   D(19,9,10,23)         -59.3094         calculate D2E/DX2 analytically  !
 ! D40   D(20,9,10,21)         179.1832         calculate D2E/DX2 analytically  !
 ! D41   D(20,9,10,22)         -60.6269         calculate D2E/DX2 analytically  !
 ! D42   D(20,9,10,23)          59.2662         calculate D2E/DX2 analytically  !
 ! D43   D(6,12,13,2)            0.1849         calculate D2E/DX2 analytically  !
 ! D44   D(24,12,13,2)         179.9734         calculate D2E/DX2 analytically  !
 --------------------------------------------------------------------------------
 Trust Radius=3.00D-01 FncErr=1.00D-07 GrdErr=1.00D-06 EigMax=2.50D+02 EigMin=1.00D-04
 Number of steps in this run=    117 maximum allowed number of steps=    144.
 GradGradGradGradGradGradGradGradGradGradGradGradGradGradGradGradGradGrad

                          Input orientation:                          
 ---------------------------------------------------------------------
 Center     Atomic      Atomic             Coordinates (Angstroms)
 Number     Number       Type             X           Y           Z
 ---------------------------------------------------------------------
      1          7           0       -4.336800    1.466900   -0.240700
      2          6           0       -3.018300    1.115000   -0.078800
      3          7           0       -2.603700    0.011300   -0.727600
      4          6           0       -1.298800   -0.334900   -0.566500
      5          6           0       -0.925600   -1.606600   -1.313200
      6          6           0       -0.410300    0.423300    0.233600
      7          6           0        1.042500    0.147500    0.483400
      8          8           0        1.569300   -0.813000   -0.300800
      9          6           0        2.940700   -1.163800   -0.191000
     10          6           0        3.235700   -2.282000   -1.193200
     11          8           0        1.709200    0.780300    1.305500
     12          6           0       -0.976200    1.546500    0.859400
     13          7           0       -2.276000    1.908700    0.713700
     14          1           0       -4.912400    0.888800   -0.827300
     15          1           0       -4.667500    2.287200    0.236600
     16          1           0       -0.489300   -2.332900   -0.628600
     17          1           0       -1.789200   -2.078600   -1.783400
     18          1           0       -0.203500   -1.382200   -2.097400
     19          1           0        3.164400   -1.496700    0.824600
     20          1           0        3.568800   -0.294800   -0.397100
     21          1           0        2.624800   -3.161700   -0.989500
     22          1           0        3.029600   -1.957400   -2.213300
     23          1           0        4.282100   -2.581900   -1.142300
     24          1           0       -0.384500    2.190400    1.498500
 ---------------------------------------------------------------------
                    Distance matrix (angstroms):
                    1          2          3          4          5
     1  N    0.000000
     2  C    1.374222   0.000000
     3  N    2.315055   1.345730   0.000000
     4  C    3.547122   2.301465   1.359622   0.000000
     5  C    4.715182   3.648321   2.403445   1.521203   0.000000
     6  C    4.090411   2.716193   2.429949   1.415789   2.603578
     7  C    5.585876   4.212152   3.844457   2.610878   3.190307
     8  O    6.331159   4.981219   4.274992   2.919790   2.807006
     9  C    7.738544   6.380846   5.692905   4.336062   4.050146
    10  C    8.503191   7.203750   6.290835   4.974499   4.217462
    11  O    6.278238   4.937364   4.829696   3.714313   4.415547
    12  C    3.536974   2.288358   2.743021   2.382630   3.829464
    13  N    2.313647   1.345000   2.405174   2.761806   4.276592
    14  H    1.004796   2.049154   2.471850   3.824077   4.728392
    15  H    1.005022   2.047777   3.220042   4.343791   5.618307
    16  H    5.421458   4.311164   3.158443   2.156653   1.089287
    17  H    4.630417   3.823013   2.479074   2.182161   1.090723
    18  H    5.352464   4.270112   3.095021   2.154106   1.089382
    19  H    8.135465   6.772214   6.160712   4.817166   4.616315
    20  H    8.101022   6.743793   6.188916   4.870712   4.770712
    21  H    8.393361   7.138916   6.121579   4.854314   3.889532
    22  H    8.359475   7.111457   6.149565   4.907087   4.071468
    23  H    9.565098   8.251905   7.369593   6.043757   5.300996
    24  H    4.378235   3.252885   3.824768   3.387818   4.755592
                    6          7          8          9         10
     6  C    0.000000
     7  C    1.499698   0.000000
     8  O    2.394334   1.347237   0.000000
     9  C    3.732073   2.403640   1.419808   0.000000
    10  C    4.758962   3.677443   2.393998   1.530294   0.000000
    11  O    2.401812   1.233196   2.266799   2.745110   4.236908
    12  C    1.404794   2.484699   3.659628   4.877619   6.050676
    13  N    2.432642   3.763948   4.819045   6.121495   7.181718
    14  H    4.648774   6.142336   6.722035   8.141819   8.750965
    15  H    4.647352   6.102731   6.985536   8.365223   9.240264
    16  H    2.888991   3.120151   2.579803   3.650094   3.767889
    17  H    3.497021   4.255870   3.883216   5.073909   5.063529
    18  H    2.955699   3.248542   2.587389   3.683484   3.668149
    19  H    4.100507   2.705969   2.068409   1.091928   2.166402
    20  H    4.092272   2.711660   2.067802   1.091855   2.166494
    21  H    4.853868   3.952709   2.665479   2.174626   1.090213
    22  H    4.846438   3.956180   2.664542   2.174259   1.090159
    23  H    5.739595   4.537349   3.346104   2.171482   1.089717
    24  H    2.173311   2.690761   4.009392   5.016176   6.352437
                   11         12         13         14         15
    11  O    0.000000
    12  C    2.827975   0.000000
    13  N    4.183937   1.357165   0.000000
    14  H    6.957456   4.332574   3.219547   0.000000
    15  H    6.638946   3.816047   2.467825   1.774086   0.000000
    16  H    4.273893   4.183415   4.794292   5.475641   6.288978
    17  H    5.472971   4.559245   4.729804   4.412932   5.605820
    18  H    4.462573   4.232850   4.798704   5.379994   6.232122
    19  H    2.744741   5.138759   6.419268   8.582196   8.717930
    20  H    2.740949   5.062233   6.344366   8.574190   8.654764
    21  H    4.652388   6.209088   7.254494   8.558168   9.185394
    22  H    4.649775   6.145342   7.187729   8.549691   9.124910
    23  H    4.890391   6.978553   8.162040   9.832793  10.281286
    24  H    2.531642   1.083127   2.067133   5.254083   4.466078
                   16         17         18         19         20
    16  H    0.000000
    17  H    1.757263   0.000000
    18  H    1.772819   1.760117   0.000000
    19  H    4.020018   5.628359   4.460263   0.000000
    20  H    4.547045   5.814803   4.278283   1.760867   0.000000
    21  H    3.242650   4.613760   3.520418   2.520784   3.075905
    22  H    3.877490   4.839456   3.285913   3.075590   2.520626
    23  H    4.805429   6.125766   4.740475   2.509105   2.508973
    24  H    4.999578   5.564927   5.072152   5.161738   5.039653
                   21         22         23         24
    21  H    0.000000
    22  H    1.764054   0.000000
    23  H    1.762430   1.762327   0.000000
    24  H    6.625029   6.529761   7.178149   0.000000
 Stoichiometry    C8H11N3O2
 Framework group  C1[X(C8H11N3O2)]
 Deg. of freedom    66
 Full point group                 C1      NOp   1
 Largest Abelian subgroup         C1      NOp   1
 Largest concise Abelian subgroup C1      NOp   1
                         Standard orientation:                         
 ---------------------------------------------------------------------
 Center     Atomic      Atomic             Coordinates (Angstroms)
 Number     Number       Type             X           Y           Z
 ---------------------------------------------------------------------
      1          7           0       -4.252875    0.447028    0.107051
      2          6           0       -2.915860    0.133727    0.054878
      3          7           0       -2.056513    1.165882   -0.029781
      4          6           0       -0.734169    0.853833   -0.080824
      5          6           0        0.160363    2.078282   -0.201639
      6          6           0       -0.272520   -0.483944   -0.039681
      7          6           0        1.151644   -0.951821   -0.083766
      8          8           0        2.064285    0.030631    0.046325
      9          6           0        3.452318   -0.268065    0.046092
     10          6           0        4.229013    1.041823    0.196888
     11          8           0        1.459359   -2.141829   -0.183594
     12          6           0       -1.276671   -1.462979    0.041664
     13          7           0       -2.601667   -1.173540    0.091756
     14          1           0       -4.513115    1.417155    0.079797
     15          1           0       -4.911903   -0.309234    0.168841
     16          1           0        0.809570    1.987976   -1.071652
     17          1           0       -0.412606    2.999348   -0.315752
     18          1           0        0.777285    2.180850    0.690348
     19          1           0        3.730041   -0.768142   -0.884016
     20          1           0        3.691033   -0.946841    0.867326
     21          1           0        4.010451    1.723601   -0.625289
     22          1           0        3.970973    1.544467    1.129203
     23          1           0        5.302953    0.857142    0.202266
     24          1           0       -1.031154   -2.517470    0.072234
 ---------------------------------------------------------------------
 Rotational constants (GHZ):           1.8776428           0.4377806           0.3585957
 Standard basis: 6-31G(d,p) (6D, 7F)
 There are   250 symmetry adapted cartesian basis functions of A   symmetry.
 There are   250 symmetry adapted basis functions of A   symmetry.
   250 basis functions,   441 primitive gaussians,   250 cartesian basis functions
    48 alpha electrons       48 beta electrons
       nuclear repulsion energy       782.0373642713 Hartrees.
 NAtoms=   24 NActive=   24 NUniq=   24 SFac= 1.00D+00 NAtFMM=   60 NAOKFM=F Big=F
 Integral buffers will be    131072 words long.
 Raffenetti 2 integral format.
 Two-electron integral symmetry is turned on.
 Nuclear repulsion after empirical dispersion term =      781.9962248900 Hartrees.
 One-electron integrals computed using PRISM.
 NBasis=   250 RedAO= T EigKep=  9.72D-04  NBF=   250
 NBsUse=   250 1.00D-06 EigRej= -1.00D+00 NBFU=   250
 ExpMin= 1.61D-01 ExpMax= 5.48D+03 ExpMxC= 8.25D+02 IAcc=3 IRadAn=         5 AccDes= 0.00D+00
 Harris functional with IExCor=  402 and IRadAn=       5 diagonalized for initial guess.
 HarFok:  IExCor=  402 AccDes= 0.00D+00 IRadAn=         5 IDoV= 1 UseB2=F ITyADJ=14
 ICtDFT=  3500011 ScaDFX=  1.000000  1.000000  1.000000  1.000000
 FoFCou: FMM=F IPFlag=           0 FMFlag=      100000 FMFlg1=           0
         NFxFlg=           0 DoJE=T BraDBF=F KetDBF=T FulRan=T
         wScrn=  0.000000 ICntrl=       500 IOpCl=  0 I1Cent=   200000004 NGrid=           0
         NMat0=    1 NMatS0=      1 NMatT0=    0 NMatD0=    1 NMtDS0=    0 NMtDT0=    0
 Petite list used in FoFCou.
 Requested convergence on RMS density matrix=1.00D-08 within 128 cycles.
 Requested convergence on MAX density matrix=1.00D-06.
 Requested convergence on             energy=1.00D-06.
 No special actions if energy rises.
 Integral accuracy reduced to 1.0D-05 until final iterations.
 Initial convergence to 1.0D-05 achieved.  Increase integral accuracy.
 SCF Done:  E(RB3LYP) =  -626.268895682     A.U. after   15 cycles
            NFock= 15  Conv=0.37D-08     -V/T= 2.0097
 DoSCS=F DFT=T ScalE2(SS,OS)=  1.000000  1.000000
 Range of M.O.s used for correlation:     1   250
 NBasis=   250 NAE=    48 NBE=    48 NFC=     0 NFV=     0
 NROrb=    250 NOA=    48 NOB=    48 NVA=   202 NVB=   202
 Symmetrizing basis deriv contribution to polar:
 IMax=3 JMax=2 DiffMx= 0.00D+00
 G2DrvN: will do    25 centers at a time, making    1 passes.
 Calling FoFCou, ICntrl=  3107 FMM=F I1Cent=   0 AccDes= 0.00D+00.
 End of G2Drv F.D. properties file   721 does not exist.
 End of G2Drv F.D. properties file   722 does not exist.
 End of G2Drv F.D. properties file   788 does not exist.
          IDoAtm=111111111111111111111111
          Differentiating once with respect to nuclear coordinates.
 Keep R1 ints in memory in canonical form, NReq=509470435.
          There are    75 degrees of freedom in the 1st order CPHF.  IDoFFX=6 NUNeed=     0.
     69 vectors produced by pass  0 Test12= 1.29D-14 1.33D-09 XBig12= 2.37D-01 2.18D-01.
 AX will form    69 AO Fock derivatives at one time.
     69 vectors produced by pass  1 Test12= 1.29D-14 1.33D-09 XBig12= 3.65D-02 7.36D-02.
     69 vectors produced by pass  2 Test12= 1.29D-14 1.33D-09 XBig12= 2.93D-04 2.89D-03.
     69 vectors produced by pass  3 Test12= 1.29D-14 1.33D-09 XBig12= 1.76D-06 1.59D-04.
     69 vectors produced by pass  4 Test12= 1.29D-14 1.33D-09 XBig12= 4.37D-09 7.31D-06.
     51 vectors produced by pass  5 Test12= 1.29D-14 1.33D-09 XBig12= 3.93D-12 1.66D-07.
     15 vectors produced by pass  6 Test12= 1.29D-14 1.33D-09 XBig12= 3.26D-15 5.16D-09.
 InvSVY:  IOpt=1 It=  1 EMax= 4.44D-16
 Solved reduced A of dimension   411 with    75 vectors.
 End of Minotr F.D. properties file   721 does not exist.
 End of Minotr F.D. properties file   722 does not exist.
 End of Minotr F.D. properties file   788 does not exist.

 **********************************************************************

            Population analysis using the SCF Density.

 **********************************************************************

 Orbital symmetries:
       Occupied  (A) (A) (A) (A) (A) (A) (A) (A) (A) (A) (A) (A)
                 (A) (A) (A) (A) (A) (A) (A) (A) (A) (A) (A) (A)
                 (A) (A) (A) (A) (A) (A) (A) (A) (A) (A) (A) (A)
                 (A) (A) (A) (A) (A) (A) (A) (A) (A) (A) (A) (A)
       Virtual   (A) (A) (A) (A) (A) (A) (A) (A) (A) (A) (A) (A)
                 (A) (A) (A) (A) (A) (A) (A) (A) (A) (A) (A) (A)
                 (A) (A) (A) (A) (A) (A) (A) (A) (A) (A) (A) (A)
                 (A) (A) (A) (A) (A) (A) (A) (A) (A) (A) (A) (A)
                 (A) (A) (A) (A) (A) (A) (A) (A) (A) (A) (A) (A)
                 (A) (A) (A) (A) (A) (A) (A) (A) (A) (A) (A) (A)
                 (A) (A) (A) (A) (A) (A) (A) (A) (A) (A) (A) (A)
                 (A) (A) (A) (A) (A) (A) (A) (A) (A) (A) (A) (A)
                 (A) (A) (A) (A) (A) (A) (A) (A) (A) (A) (A) (A)
                 (A) (A) (A) (A) (A) (A) (A) (A) (A) (A) (A) (A)
                 (A) (A) (A) (A) (A) (A) (A) (A) (A) (A) (A) (A)
                 (A) (A) (A) (A) (A) (A) (A) (A) (A) (A) (A) (A)
                 (A) (A) (A) (A) (A) (A) (A) (A) (A) (A) (A) (A)
                 (A) (A) (A) (A) (A) (A) (A) (A) (A) (A) (A) (A)
                 (A) (A) (A) (A) (A) (A) (A) (A) (A) (A) (A) (A)
                 (A) (A) (A) (A) (A) (A) (A) (A) (A) (A) (A) (A)
                 (A) (A) (A) (A) (A) (A) (A) (A) (A) (A)
 The electronic state is 1-A.
 Alpha  occ. eigenvalues --  -19.19329 -19.12898 -14.35650 -14.33019 -14.32990
 Alpha  occ. eigenvalues --  -10.32025 -10.29288 -10.25542 -10.24789 -10.24093
 Alpha  occ. eigenvalues --  -10.20677 -10.18925 -10.18259  -1.10123  -1.00488
 Alpha  occ. eigenvalues --   -0.99515  -0.90209  -0.88250  -0.80054  -0.77058
 Alpha  occ. eigenvalues --   -0.72740  -0.67461  -0.63771  -0.62651  -0.57608
 Alpha  occ. eigenvalues --   -0.55239  -0.52415  -0.51440  -0.49548  -0.49007
 Alpha  occ. eigenvalues --   -0.45790  -0.44646  -0.42821  -0.41741  -0.40936
 Alpha  occ. eigenvalues --   -0.40655  -0.40198  -0.38959  -0.38079  -0.36690
 Alpha  occ. eigenvalues --   -0.34254  -0.32100  -0.31781  -0.29938  -0.29636
 Alpha  occ. eigenvalues --   -0.26832  -0.24794  -0.23285
 Alpha virt. eigenvalues --   -0.03708  -0.03419   0.05373   0.08719   0.09117
 Alpha virt. eigenvalues --    0.12501   0.13177   0.13677   0.13756   0.14830
 Alpha virt. eigenvalues --    0.15029   0.15793   0.16976   0.17546   0.19022
 Alpha virt. eigenvalues --    0.20702   0.21559   0.22789   0.23778   0.25215
 Alpha virt. eigenvalues --    0.26849   0.30011   0.32894   0.34391   0.36359
 Alpha virt. eigenvalues --    0.40612   0.42773   0.47191   0.49913   0.51532
 Alpha virt. eigenvalues --    0.52736   0.53125   0.54567   0.54593   0.55100
 Alpha virt. eigenvalues --    0.55960   0.56998   0.59276   0.60147   0.61470
 Alpha virt. eigenvalues --    0.61814   0.63720   0.64532   0.64950   0.65411
 Alpha virt. eigenvalues --    0.67306   0.67520   0.69215   0.73084   0.75251
 Alpha virt. eigenvalues --    0.75623   0.77336   0.79003   0.79396   0.79455
 Alpha virt. eigenvalues --    0.82350   0.83636   0.84411   0.85357   0.85585
 Alpha virt. eigenvalues --    0.86038   0.88135   0.89585   0.90202   0.90787
 Alpha virt. eigenvalues --    0.92442   0.93727   0.95524   0.96104   0.97798
 Alpha virt. eigenvalues --    0.98450   1.00721   1.02704   1.03891   1.09503
 Alpha virt. eigenvalues --    1.10254   1.11277   1.15890   1.21868   1.23460
 Alpha virt. eigenvalues --    1.24031   1.27618   1.28435   1.29475   1.32692
 Alpha virt. eigenvalues --    1.32902   1.34284   1.36776   1.40489   1.40959
 Alpha virt. eigenvalues --    1.43201   1.43368   1.46693   1.47793   1.50263
 Alpha virt. eigenvalues --    1.50678   1.56256   1.61970   1.64309   1.64679
 Alpha virt. eigenvalues --    1.65973   1.66973   1.70620   1.73737   1.75378
 Alpha virt. eigenvalues --    1.77495   1.79155   1.81736   1.84237   1.85521
 Alpha virt. eigenvalues --    1.87197   1.87908   1.90321   1.92341   1.94641
 Alpha virt. eigenvalues --    1.98405   1.98878   2.01346   2.02224   2.03175
 Alpha virt. eigenvalues --    2.03889   2.04149   2.04871   2.05473   2.06351
 Alpha virt. eigenvalues --    2.06646   2.07153   2.09090   2.09378   2.09849
 Alpha virt. eigenvalues --    2.14564   2.16948   2.18000   2.20223   2.22441
 Alpha virt. eigenvalues --    2.25324   2.28683   2.29006   2.30633   2.32609
 Alpha virt. eigenvalues --    2.34078   2.39186   2.40858   2.41763   2.43663
 Alpha virt. eigenvalues --    2.46357   2.48667   2.49840   2.52984   2.53427
 Alpha virt. eigenvalues --    2.57541   2.58520   2.61008   2.62107   2.63385
 Alpha virt. eigenvalues --    2.63461   2.64659   2.70664   2.70884   2.71638
 Alpha virt. eigenvalues --    2.73998   2.74202   2.75736   2.78260   2.79340
 Alpha virt. eigenvalues --    2.83251   2.86570   2.87428   2.87884   2.88831
 Alpha virt. eigenvalues --    2.91105   2.94223   2.99395   3.02136   3.07776
 Alpha virt. eigenvalues --    3.16108   3.18084   3.21639   3.24130   3.28969
 Alpha virt. eigenvalues --    3.30024   3.37866   3.43280   3.44202   3.46385
 Alpha virt. eigenvalues --    3.47957   3.52147   3.56419   3.60566   4.00775
 Alpha virt. eigenvalues --    4.02920   4.07183   4.14474   4.18767   4.26984
 Alpha virt. eigenvalues --    4.31357   4.38103   4.42318   4.47307   4.54122
 Alpha virt. eigenvalues --    4.63766   4.70646
          Condensed to atoms (all electrons):
               1          2          3          4          5          6
     1  N    6.829574   0.318808  -0.100009   0.001646  -0.000223   0.001833
     2  C    0.318808   4.340947   0.432393  -0.054797   0.005439  -0.026315
     3  N   -0.100009   0.432393   6.923062   0.469002  -0.085661  -0.024672
     4  C    0.001646  -0.054797   0.469002   4.724049   0.382597   0.405692
     5  C   -0.000223   0.005439  -0.085661   0.382597   5.033722  -0.080774
     6  C    0.001833  -0.026315  -0.024672   0.405692  -0.080774   5.226717
     7  C    0.000012   0.001303   0.004038  -0.027066  -0.008969   0.312690
     8  O   -0.000000  -0.000010  -0.000004  -0.004446  -0.004693  -0.075209
     9  C    0.000000   0.000000   0.000002  -0.000108   0.000030   0.006269
    10  C    0.000000   0.000000   0.000000  -0.000003  -0.000173  -0.000129
    11  O   -0.000000  -0.000010  -0.000030   0.002568   0.000041  -0.082107
    12  C    0.001848  -0.062885  -0.039442  -0.048512   0.005750   0.432607
    13  N   -0.101897   0.441042  -0.078545  -0.036188  -0.000165  -0.025903
    14  H    0.337649  -0.017846   0.007134   0.000304  -0.000060   0.000015
    15  H    0.336066  -0.015870   0.005025  -0.000097   0.000006  -0.000020
    16  H    0.000003  -0.000198   0.002121  -0.024725   0.370803  -0.001069
    17  H   -0.000041   0.000641   0.004766  -0.022198   0.358957   0.004869
    18  H    0.000003  -0.000179   0.001228  -0.023339   0.370566  -0.000547
    19  H    0.000000   0.000000   0.000000  -0.000015   0.000015   0.000058
    20  H    0.000000  -0.000000   0.000000  -0.000014   0.000012  -0.000150
    21  H    0.000000  -0.000000  -0.000000  -0.000009   0.000055  -0.000012
    22  H   -0.000000   0.000000  -0.000000  -0.000005  -0.000039  -0.000016
    23  H    0.000000   0.000000   0.000000  -0.000000   0.000005   0.000005
    24  H   -0.000146   0.004141  -0.000254   0.004030  -0.000116  -0.057800
               7          8          9         10         11         12
     1  N    0.000012  -0.000000   0.000000   0.000000  -0.000000   0.001848
     2  C    0.001303  -0.000010   0.000000   0.000000  -0.000010  -0.062885
     3  N    0.004038  -0.000004   0.000002   0.000000  -0.000030  -0.039442
     4  C   -0.027066  -0.004446  -0.000108  -0.000003   0.002568  -0.048512
     5  C   -0.008969  -0.004693   0.000030  -0.000173   0.000041   0.005750
     6  C    0.312690  -0.075209   0.006269  -0.000129  -0.082107   0.432607
     7  C    4.409393   0.241153  -0.012201   0.004071   0.533690  -0.040034
     8  O    0.241153   8.301031   0.201275  -0.044545  -0.082501   0.003373
     9  C   -0.012201   0.201275   4.686212   0.372847   0.004485  -0.000122
    10  C    0.004071  -0.044545   0.372847   4.953352   0.000614  -0.000001
    11  O    0.533690  -0.082501   0.004485   0.000614   8.101616   0.002453
    12  C   -0.040034   0.003373  -0.000122  -0.000001   0.002453   4.809582
    13  N    0.004389  -0.000021   0.000000  -0.000000   0.000370   0.440387
    14  H   -0.000001   0.000000  -0.000000   0.000000   0.000000  -0.000158
    15  H   -0.000001   0.000000  -0.000000  -0.000000   0.000000   0.000238
    16  H    0.001196   0.002857   0.000069  -0.000001  -0.000010  -0.000011
    17  H    0.000094   0.000535  -0.000018   0.000002   0.000001  -0.000143
    18  H    0.000755   0.002941  -0.000169   0.000215   0.000008  -0.000088
    19  H   -0.003767  -0.033979   0.385100  -0.041422   0.005051  -0.000001
    20  H   -0.003850  -0.034031   0.384909  -0.041313   0.005381   0.000019
    21  H   -0.000074   0.000785  -0.029645   0.382757  -0.000007   0.000000
    22  H   -0.000043   0.000915  -0.029691   0.382684  -0.000007   0.000000
    23  H   -0.000017   0.002739  -0.028169   0.374849   0.000012  -0.000000
    24  H   -0.003356   0.000221  -0.000006  -0.000000   0.013132   0.385098
              13         14         15         16         17         18
     1  N   -0.101897   0.337649   0.336066   0.000003  -0.000041   0.000003
     2  C    0.441042  -0.017846  -0.015870  -0.000198   0.000641  -0.000179
     3  N   -0.078545   0.007134   0.005025   0.002121   0.004766   0.001228
     4  C   -0.036188   0.000304  -0.000097  -0.024725  -0.022198  -0.023339
     5  C   -0.000165  -0.000060   0.000006   0.370803   0.358957   0.370566
     6  C   -0.025903   0.000015  -0.000020  -0.001069   0.004869  -0.000547
     7  C    0.004389  -0.000001  -0.000001   0.001196   0.000094   0.000755
     8  O   -0.000021   0.000000   0.000000   0.002857   0.000535   0.002941
     9  C    0.000000  -0.000000  -0.000000   0.000069  -0.000018  -0.000169
    10  C   -0.000000   0.000000  -0.000000  -0.000001   0.000002   0.000215
    11  O    0.000370   0.000000   0.000000  -0.000010   0.000001   0.000008
    12  C    0.440387  -0.000158   0.000238  -0.000011  -0.000143  -0.000088
    13  N    6.880106   0.005120   0.007156   0.000020   0.000044   0.000016
    14  H    0.005120   0.406690  -0.022164   0.000001   0.000035   0.000001
    15  H    0.007156  -0.022164   0.404795  -0.000000   0.000000  -0.000000
    16  H    0.000020   0.000001  -0.000000   0.577036  -0.028805  -0.026316
    17  H    0.000044   0.000035   0.000000  -0.028805   0.585321  -0.027305
    18  H    0.000016   0.000001  -0.000000  -0.026316  -0.027305   0.567852
    19  H   -0.000000  -0.000000  -0.000000  -0.000094   0.000001   0.000043
    20  H    0.000000  -0.000000   0.000000   0.000031   0.000001  -0.000041
    21  H    0.000000   0.000000  -0.000000   0.000661   0.000007  -0.000057
    22  H    0.000000   0.000000   0.000000  -0.000065   0.000002   0.000622
    23  H    0.000000  -0.000000  -0.000000   0.000001   0.000000   0.000002
    24  H   -0.045313   0.000005  -0.000028   0.000000   0.000002   0.000001
              19         20         21         22         23         24
     1  N    0.000000   0.000000   0.000000  -0.000000   0.000000  -0.000146
     2  C    0.000000  -0.000000  -0.000000   0.000000   0.000000   0.004141
     3  N    0.000000   0.000000  -0.000000  -0.000000   0.000000  -0.000254
     4  C   -0.000015  -0.000014  -0.000009  -0.000005  -0.000000   0.004030
     5  C    0.000015   0.000012   0.000055  -0.000039   0.000005  -0.000116
     6  C    0.000058  -0.000150  -0.000012  -0.000016   0.000005  -0.057800
     7  C   -0.003767  -0.003850  -0.000074  -0.000043  -0.000017  -0.003356
     8  O   -0.033979  -0.034031   0.000785   0.000915   0.002739   0.000221
     9  C    0.385100   0.384909  -0.029645  -0.029691  -0.028169  -0.000006
    10  C   -0.041422  -0.041313   0.382757   0.382684   0.374849  -0.000000
    11  O    0.005051   0.005381  -0.000007  -0.000007   0.000012   0.013132
    12  C   -0.000001   0.000019   0.000000   0.000000  -0.000000   0.385098
    13  N   -0.000000   0.000000   0.000000   0.000000   0.000000  -0.045313
    14  H   -0.000000  -0.000000   0.000000   0.000000  -0.000000   0.000005
    15  H   -0.000000   0.000000  -0.000000   0.000000  -0.000000  -0.000028
    16  H   -0.000094   0.000031   0.000661  -0.000065   0.000001   0.000000
    17  H    0.000001   0.000001   0.000007   0.000002   0.000000   0.000002
    18  H    0.000043  -0.000041  -0.000057   0.000622   0.000002   0.000001
    19  H    0.617352  -0.046214  -0.006252   0.005281  -0.000308  -0.000002
    20  H   -0.046214   0.616970   0.005249  -0.006259  -0.000270  -0.000002
    21  H   -0.006252   0.005249   0.586463  -0.032472  -0.028495   0.000000
    22  H    0.005281  -0.006259  -0.032472   0.586236  -0.028497   0.000000
    23  H   -0.000308  -0.000270  -0.028495  -0.028497   0.593484  -0.000000
    24  H   -0.000002  -0.000002   0.000000   0.000000  -0.000000   0.562458
 Mulliken charges:
               1
     1  N   -0.625128
     2  C    0.633395
     3  N   -0.520153
     4  C    0.251635
     5  C   -0.347124
     6  C   -0.016033
     7  C    0.586595
     8  O   -0.478387
     9  C    0.058928
    10  C   -0.343803
    11  O   -0.504750
    12  C    0.110039
    13  N   -0.490618
    14  H    0.283273
    15  H    0.284893
    16  H    0.126496
    17  H    0.123232
    18  H    0.133788
    19  H    0.119153
    20  H    0.119571
    21  H    0.121048
    22  H    0.121353
    23  H    0.114661
    24  H    0.137935
 Sum of Mulliken charges =  -0.00000
 Mulliken charges with hydrogens summed into heavy atoms:
               1
     1  N   -0.056962
     2  C    0.633395
     3  N   -0.520153
     4  C    0.251635
     5  C    0.036392
     6  C   -0.016033
     7  C    0.586595
     8  O   -0.478387
     9  C    0.297652
    10  C    0.013260
    11  O   -0.504750
    12  C    0.247974
    13  N   -0.490618
 APT charges:
               1
     1  N   -1.142340
     2  C    0.071171
     3  N   -0.240588
     4  C   -0.230684
     5  C   -0.982539
     6  C   -0.425052
     7  C   -0.208513
     8  O   -0.228874
     9  C   -0.817112
    10  C   -1.206318
    11  O    0.106508
    12  C   -0.393617
    13  N   -0.037216
    14  H    0.745605
    15  H    0.930707
    16  H    0.325461
    17  H    0.544543
    18  H    0.333293
    19  H    0.470750
    20  H    0.470185
    21  H    0.267720
    22  H    0.266858
    23  H    0.852037
    24  H    0.528015
 Sum of APT charges =  -0.00000
 APT charges with hydrogens summed into heavy atoms:
               1
     1  N    0.533972
     2  C    0.071171
     3  N   -0.240588
     4  C   -0.230684
     5  C    0.220758
     6  C   -0.425052
     7  C   -0.208513
     8  O   -0.228874
     9  C    0.123823
    10  C    0.180297
    11  O    0.106508
    12  C    0.134399
    13  N   -0.037216
 Electronic spatial extent (au):  <R**2>=           2994.7938
 Charge=             -0.0000 electrons
 Dipole moment (field-independent basis, Debye):
    X=             -0.0114    Y=              2.6457    Z=              0.2287  Tot=              2.6556
 Quadrupole moment (field-independent basis, Debye-Ang):
   XX=            -54.5343   YY=            -81.1854   ZZ=            -75.3827
   XY=              1.1826   XZ=             -0.0079   YZ=             -0.7971
 Traceless Quadrupole moment (field-independent basis, Debye-Ang):
   XX=             15.8332   YY=            -10.8180   ZZ=             -5.0152
   XY=              1.1826   XZ=             -0.0079   YZ=             -0.7971
 Octapole moment (field-independent basis, Debye-Ang**2):
  XXX=            -44.1795  YYY=             13.1621  ZZZ=             -0.4175  XYY=             -7.6086
  XXY=             20.2340  XXZ=              4.3444  XZZ=              8.0674  YZZ=             -1.5274
  YYZ=              1.7566  XYZ=             -1.6520
 Hexadecapole moment (field-independent basis, Debye-Ang**3):
 XXXX=          -2294.2272 YYYY=           -774.1189 ZZZZ=            -95.9069 XXXY=            -88.0802
 XXXZ=            -15.7702 YYYX=              1.9047 YYYZ=             -4.4715 ZZZX=             -0.6871
 ZZZY=              1.7399 XXYY=           -637.5879 XXZZ=           -533.0395 YYZZ=           -140.9267
 XXYZ=              0.0352 YYXZ=              2.6161 ZZXY=             -3.1247
 N-N= 7.819962248900D+02 E-N=-3.023136931360D+03  KE= 6.202310154272D+02
  Exact polarizability:       0.000       0.000       0.000       0.000       0.000       0.000
 Approx polarizability:     234.994     -13.410     188.764      -5.310      -0.319      88.486
 Calling FoFJK, ICntrl=    100127 FMM=F ISym2X=0 I1Cent= 0 IOpClX= 0 NMat=1 NMatS=1 NMatT=0.
 ***** Axes restored to original set *****
 -------------------------------------------------------------------
 Center     Atomic                   Forces (Hartrees/Bohr)
 Number     Number              X              Y              Z
 -------------------------------------------------------------------
      1        7           0.022214952   -0.005910810    0.002600469
      2        6          -0.013144514    0.003558525   -0.002124852
      3        7           0.021310082   -0.002566204    0.005392920
      4        6          -0.022383681   -0.009486249   -0.012769088
      5        6          -0.000098502    0.004074805    0.003810750
      6        6           0.003775410   -0.002896215   -0.000019741
      7        6           0.009913676    0.019276126    0.015772024
      8        8          -0.018043017   -0.003266612   -0.007448878
      9        6           0.015011173   -0.005744972   -0.000265042
     10        6          -0.005861379    0.004364011    0.002420476
     11        8          -0.012192988   -0.013704977   -0.015560972
     12        6          -0.028634272    0.004344028   -0.005783945
     13        7           0.025930321   -0.002938480    0.006069225
     14        1          -0.002598528    0.001867286    0.000569112
     15        1          -0.002939782   -0.000456177   -0.001239111
     16        1           0.005455786   -0.000309919   -0.000030931
     17        1          -0.004490989    0.006417493    0.002539683
     18        1           0.004933149   -0.001091630    0.000755481
     19        1          -0.001293688    0.001311951    0.003073091
     20        1          -0.000658916    0.003483311    0.000905542
     21        1          -0.001858767   -0.001545458    0.000970742
     22        1          -0.000886279    0.001400196   -0.002076737
     23        1           0.002858762    0.001096954    0.002002956
     24        1           0.003681989   -0.001276982    0.000436828
 -------------------------------------------------------------------
 Cartesian Forces:  Max     0.028634272 RMS     0.009000822
 FormGI is forming the generalized inverse of G from B-inverse, IUseBI=4.

 GradGradGradGradGradGradGradGradGradGradGradGradGradGradGradGradGradGrad
 Berny optimization.
 Internal  Forces:  Max     0.029381380 RMS     0.005981020
 Search for a local minimum.
 Step number   1 out of a maximum of  117
 All quantities printed in internal units (Hartrees-Bohrs-Radians)
 Mixed Optimization -- RFO/linear search
 Second derivative matrix not updated -- analytic derivatives used.
 ITU=  0
     Eigenvalues ---   -0.00239   0.00082   0.00131   0.00264   0.00397
     Eigenvalues ---    0.01140   0.01432   0.01518   0.01927   0.02147
     Eigenvalues ---    0.02460   0.02596   0.03878   0.04444   0.04522
     Eigenvalues ---    0.04934   0.05268   0.05580   0.05792   0.06096
     Eigenvalues ---    0.06420   0.09797   0.10104   0.11044   0.12043
     Eigenvalues ---    0.12068   0.12224   0.12358   0.13352   0.14135
     Eigenvalues ---    0.14196   0.16599   0.18003   0.19046   0.19603
     Eigenvalues ---    0.19795   0.20795   0.22359   0.22871   0.24019
     Eigenvalues ---    0.25002   0.28456   0.29149   0.29954   0.32973
     Eigenvalues ---    0.33874   0.34132   0.34507   0.34777   0.34967
     Eigenvalues ---    0.35022   0.35481   0.35551   0.36568   0.37339
     Eigenvalues ---    0.38216   0.40974   0.43116   0.43676   0.48936
     Eigenvalues ---    0.49193   0.50228   0.51227   0.54708   0.56928
     Eigenvalues ---    0.77330
 RFO step:  Lambda=-1.16161507D-02 EMin=-2.39259417D-03
 Linear search not attempted -- first point.
 Iteration  1 RMS(Cart)=  0.08511131 RMS(Int)=  0.03479612
 Iteration  2 RMS(Cart)=  0.03260661 RMS(Int)=  0.01414648
 Iteration  3 RMS(Cart)=  0.00339239 RMS(Int)=  0.01364827
 Iteration  4 RMS(Cart)=  0.00024060 RMS(Int)=  0.01364711
 Iteration  5 RMS(Cart)=  0.00002606 RMS(Int)=  0.01364710
 Iteration  6 RMS(Cart)=  0.00000284 RMS(Int)=  0.01364710
 Iteration  7 RMS(Cart)=  0.00000031 RMS(Int)=  0.01364710
 Variable       Old X    -DE/DX   Delta X   Delta X   Delta X     New X
                                 (Linear)    (Quad)   (Total)
    R1        2.59690  -0.01738   0.00000  -0.04357  -0.04357   2.55334
    R2        1.89879   0.00008   0.00000   0.00104   0.00104   1.89983
    R3        1.89922   0.00001   0.00000   0.00098   0.00098   1.90019
    R4        2.54306   0.00215   0.00000   0.00386   0.00385   2.54691
    R5        2.54168   0.00136   0.00000   0.01179   0.01178   2.55346
    R6        2.56931  -0.02229   0.00000  -0.04751  -0.04751   2.52181
    R7        2.87466  -0.00965   0.00000  -0.03266  -0.03266   2.84200
    R8        2.67545  -0.00377   0.00000  -0.00040  -0.00038   2.67508
    R9        2.05845   0.00237   0.00000   0.00522   0.00522   2.06368
   R10        2.06117  -0.00032   0.00000  -0.00121  -0.00121   2.05996
   R11        2.05863   0.00250   0.00000   0.00672   0.00672   2.06536
   R12        2.83402  -0.01387   0.00000  -0.04220  -0.04220   2.79182
   R13        2.65468  -0.00420   0.00000  -0.00131  -0.00130   2.65338
   R14        2.54591  -0.00474   0.00000   0.01116   0.01116   2.55707
   R15        2.33040  -0.02400   0.00000  -0.02891  -0.02891   2.30150
   R16        2.68305   0.00653   0.00000   0.03958   0.03958   2.72263
   R17        2.89184  -0.00717   0.00000  -0.02833  -0.02833   2.86351
   R18        2.06345   0.00219   0.00000   0.00426   0.00426   2.06771
   R19        2.06331   0.00222   0.00000   0.00438   0.00438   2.06769
   R20        2.06020   0.00247   0.00000   0.00638   0.00638   2.06658
   R21        2.06010   0.00253   0.00000   0.00640   0.00640   2.06650
   R22        2.05927   0.00254   0.00000   0.00764   0.00764   2.06691
   R23        2.56467  -0.02938   0.00000  -0.06518  -0.06518   2.49949
   R24        2.04681   0.00151   0.00000   0.00678   0.00678   2.05360
    A1        2.06130   0.00207   0.00000   0.01976  -0.04823   2.01308
    A2        2.05868   0.00202   0.00000   0.01999  -0.04805   2.01063
    A3        2.16320  -0.00410   0.00000  -0.04086  -0.13003   2.03316
    A4        2.03623  -0.00174   0.00000  -0.00054  -0.00066   2.03557
    A5        2.03513  -0.00150   0.00000   0.00063   0.00051   2.03564
    A6        2.21183   0.00323   0.00000  -0.00004  -0.00022   2.21161
    A7        2.03465   0.00068   0.00000   0.01872   0.01869   2.05333
    A8        1.97160   0.00939   0.00000   0.03532   0.03531   2.00692
    A9        2.13283  -0.00733   0.00000  -0.02938  -0.02937   2.10345
   A10        2.17868  -0.00206   0.00000  -0.00592  -0.00592   2.17276
   A11        1.92535   0.00267   0.00000   0.01598   0.01616   1.94151
   A12        1.95964  -0.01149   0.00000  -0.06204  -0.06183   1.89782
   A13        1.92172   0.00255   0.00000   0.01030   0.01036   1.93208
   A14        1.87500   0.00552   0.00000   0.04285   0.04316   1.91816
   A15        1.90103  -0.00397   0.00000  -0.03839  -0.03835   1.86268
   A16        1.87931   0.00489   0.00000   0.03203   0.03211   1.91142
   A17        2.21879  -0.00011   0.00000   0.00960   0.00957   2.22836
   A18        2.01211   0.00662   0.00000   0.01452   0.01453   2.02664
   A19        2.05226  -0.00651   0.00000  -0.02418  -0.02420   2.02805
   A20        1.99649  -0.00312   0.00000  -0.01055  -0.01065   1.98584
   A21        2.14170   0.00307   0.00000   0.01991   0.01980   2.16150
   A22        2.14418   0.00012   0.00000  -0.00834  -0.00845   2.13573
   A23        2.10462  -0.02115   0.00000  -0.09819  -0.09819   2.00642
   A24        1.89241  -0.00406   0.00000  -0.01799  -0.01777   1.87463
   A25        1.92318  -0.00047   0.00000  -0.01897  -0.01879   1.90439
   A26        1.92240  -0.00058   0.00000  -0.01951  -0.01933   1.90307
   A27        1.92502   0.00330   0.00000   0.03048   0.03007   1.95509
   A28        1.92522   0.00335   0.00000   0.02987   0.02945   1.95467
   A29        1.87587  -0.00145   0.00000  -0.00357  -0.00457   1.87130
   A30        1.93824  -0.00034   0.00000  -0.00187  -0.00188   1.93635
   A31        1.93778  -0.00032   0.00000  -0.00188  -0.00190   1.93588
   A32        1.93437  -0.00348   0.00000  -0.01572  -0.01575   1.91862
   A33        1.88511   0.00066   0.00000   0.00518   0.00518   1.89029
   A34        1.88313   0.00186   0.00000   0.00754   0.00751   1.89064
   A35        1.88304   0.00184   0.00000   0.00777   0.00774   1.89078
   A36        2.15480   0.00251   0.00000   0.01315   0.01314   2.16794
   A37        2.11543  -0.00496   0.00000  -0.04634  -0.04634   2.06909
   A38        2.01295   0.00244   0.00000   0.03320   0.03320   2.04615
   A39        2.02010  -0.00571   0.00000  -0.01712  -0.01718   2.00292
    D1       -0.00031   0.00002   0.00000   0.38956   0.36349   0.36318
    D2       -3.14024   0.00006   0.00000   0.36068   0.33460  -2.80564
    D3        3.13971  -0.00002   0.00000  -0.35559  -0.32951   2.81020
    D4       -0.00023   0.00003   0.00000  -0.38448  -0.35840  -0.35863
    D5        3.14121  -0.00012   0.00000  -0.05729  -0.05737   3.08384
    D6       -0.00223  -0.00017   0.00000  -0.02506  -0.02516  -0.02739
    D7       -3.13959   0.00005   0.00000   0.05439   0.05430  -3.08529
    D8        0.00384   0.00010   0.00000   0.02218   0.02209   0.02593
    D9        3.12276   0.00031   0.00000   0.01014   0.01009   3.13284
   D10       -0.00644   0.00016   0.00000   0.00863   0.00856   0.00212
   D11       -2.17875  -0.00096   0.00000  -0.01910  -0.01901  -2.19776
   D12       -0.08801   0.00027   0.00000   0.00509   0.00498  -0.08302
   D13        2.00572   0.00062   0.00000   0.01180   0.01177   2.01749
   D14        0.95006  -0.00085   0.00000  -0.01772  -0.01759   0.93247
   D15        3.04081   0.00038   0.00000   0.00647   0.00640   3.04720
   D16       -1.14865   0.00074   0.00000   0.01318   0.01318  -1.13547
   D17       -3.13779  -0.00004   0.00000  -0.00220  -0.00228  -3.14006
   D18        0.01238  -0.00003   0.00000   0.00762   0.00766   0.02004
   D19        0.01771  -0.00029   0.00000  -0.00416  -0.00423   0.01349
   D20       -3.11531  -0.00027   0.00000   0.00566   0.00571  -3.10959
   D21        0.17845  -0.00130   0.00000  -0.02936  -0.02948   0.14897
   D22       -3.00539   0.00054   0.00000  -0.00327  -0.00322  -3.00861
   D23       -2.97189  -0.00125   0.00000  -0.03921  -0.03926  -3.01115
   D24        0.12746   0.00058   0.00000  -0.01311  -0.01300   0.11445
   D25       -0.01078  -0.00010   0.00000  -0.01094  -0.01095  -0.02173
   D26        3.13472  -0.00013   0.00000  -0.01710  -0.01705   3.11767
   D27        3.13853  -0.00012   0.00000  -0.00226  -0.00233   3.13620
   D28        0.00084  -0.00014   0.00000  -0.00842  -0.00843  -0.00759
   D29        3.12267   0.00102   0.00000   0.01257   0.01241   3.13508
   D30        0.02339  -0.00090   0.00000  -0.01434  -0.01418   0.00921
   D31        3.13320  -0.00002   0.00000  -0.00119  -0.00119   3.13201
   D32        1.02482  -0.00124   0.00000  -0.01577  -0.01571   1.00911
   D33       -1.04183   0.00120   0.00000   0.01234   0.01229  -1.02954
   D34       -1.04944  -0.00024   0.00000  -0.00304  -0.00303  -1.05247
   D35        1.04827   0.00015   0.00000   0.00099   0.00098   1.04925
   D36        3.14080  -0.00004   0.00000  -0.00088  -0.00088   3.13992
   D37        1.05780  -0.00135   0.00000  -0.01911  -0.01940   1.03841
   D38       -3.12767  -0.00097   0.00000  -0.01508  -0.01539   3.14012
   D39       -1.03514  -0.00116   0.00000  -0.01695  -0.01724  -1.05239
   D40        3.12734   0.00100   0.00000   0.01406   0.01437  -3.14148
   D41       -1.05814   0.00138   0.00000   0.01809   0.01838  -1.03976
   D42        1.03439   0.00119   0.00000   0.01622   0.01652   1.05091
   D43        0.00323   0.00002   0.00000  -0.00275  -0.00290   0.00032
   D44        3.14113   0.00003   0.00000   0.00292   0.00296  -3.13910
         Item               Value     Threshold  Converged?
 Maximum Force            0.029381     0.000450     NO 
 RMS     Force            0.005981     0.000300     NO 
 Maximum Displacement     0.403408     0.001800     NO 
 RMS     Displacement     0.102907     0.001200     NO 
 Predicted change in Energy=-6.718626D-03
 GradGradGradGradGradGradGradGradGradGradGradGradGradGradGradGradGradGrad

                          Input orientation:                          
 ---------------------------------------------------------------------
 Center     Atomic      Atomic             Coordinates (Angstroms)
 Number     Number       Type             X           Y           Z
 ---------------------------------------------------------------------
      1          7           0       -4.261899    1.553682   -0.280957
      2          6           0       -2.986840    1.147785   -0.093545
      3          7           0       -2.603763    0.036092   -0.752228
      4          6           0       -1.330186   -0.344973   -0.635457
      5          6           0       -0.970823   -1.598366   -1.384887
      6          6           0       -0.426376    0.401427    0.158212
      7          6           0        1.005870    0.127476    0.395348
      8          8           0        1.507540   -0.862398   -0.378909
      9          6           0        2.905395   -1.145079   -0.174307
     10          6           0        3.280278   -2.277915   -1.108269
     11          8           0        1.689701    0.738430    1.196839
     12          6           0       -0.959783    1.522889    0.813435
     13          7           0       -2.218217    1.916471    0.709056
     14          1           0       -4.894097    0.846404   -0.613826
     15          1           0       -4.618908    2.180776    0.419334
     16          1           0       -0.509743   -2.335781   -0.724431
     17          1           0       -1.876109   -2.012567   -1.828933
     18          1           0       -0.243727   -1.382871   -2.171912
     19          1           0        3.067872   -1.407969    0.875326
     20          1           0        3.485761   -0.239466   -0.374945
     21          1           0        2.690602   -3.173402   -0.893042
     22          1           0        3.109662   -1.996783   -2.151194
     23          1           0        4.338694   -2.525887   -0.987523
     24          1           0       -0.305904    2.111425    1.451416
 ---------------------------------------------------------------------
                    Distance matrix (angstroms):
                    1          2          3          4          5
     1  N    0.000000
     2  C    1.351167   0.000000
     3  N    2.296648   1.347766   0.000000
     4  C    3.510769   2.294884   1.334483   0.000000
     5  C    4.688843   3.643245   2.395454   1.503922   0.000000
     6  C    4.028871   2.678881   2.388176   1.415590   2.583940
     7  C    5.499168   4.149913   3.788764   2.596715   3.170975
     8  O    6.255675   4.931706   4.224863   2.895900   2.774153
     9  C    7.659295   6.323146   5.663920   4.335087   4.086079
    10  C    8.500001   7.214004   6.332720   5.021574   4.313951
    11  O    6.186280   4.868541   4.767177   3.694698   4.382273
    12  C    3.478881   2.252171   2.713768   2.392779   3.817718
    13  N    2.299647   1.351231   2.412431   2.776769   4.277227
    14  H    1.005344   1.999789   2.433391   3.757833   4.686525
    15  H    1.005539   1.998440   3.167496   4.278747   5.553886
    16  H    5.422478   4.320793   3.164091   2.155078   1.092052
    17  H    4.561399   3.772681   2.426062   2.122095   1.090083
    18  H    5.323980   4.271826   3.098182   2.149028   1.092939
    19  H    7.989613   6.643051   6.074676   4.770256   4.632049
    20  H    7.953015   6.625572   6.107420   4.824142   4.767361
    21  H    8.429546   7.179499   6.192817   4.922713   4.016054
    22  H    8.393063   7.161673   6.223577   4.973750   4.170890
    23  H    9.545278   8.243695   7.403838   6.084122   5.404551
    24  H    4.354548   3.240821   3.800422   3.382024   4.716914
                    6          7          8          9         10
     6  C    0.000000
     7  C    1.477366   0.000000
     8  O    2.371874   1.353144   0.000000
     9  C    3.688218   2.356289   1.440753   0.000000
    10  C    4.745749   3.635891   2.382908   1.515302   0.000000
    11  O    2.381198   1.217899   2.253623   2.627843   4.116041
    12  C    1.404107   2.446582   3.633038   4.799301   6.009757
    13  N    2.410287   3.700494   4.773579   6.033641   7.150455
    14  H    4.555719   6.028673   6.629944   8.061716   8.765059
    15  H    4.561972   5.987883   6.887051   8.247961   9.198404
    16  H    2.877205   3.101390   2.521839   3.658357   3.809848
    17  H    3.446423   4.222915   3.856752   5.133528   5.213262
    18  H    2.940503   3.230088   2.559822   3.736836   3.788278
    19  H    3.999742   2.615306   2.074943   1.094184   2.176366
    20  H    3.999977   2.622567   2.073986   1.094173   2.176065
    21  H    4.857993   3.923528   2.646641   2.162594   1.093589
    22  H    4.856782   3.927250   2.644733   2.162223   1.093544
    23  H    5.708570   4.478882   3.339616   2.149953   1.093761
    24  H    2.147321   2.602323   3.934755   4.853889   6.219244
                   11         12         13         14         15
    11  O    0.000000
    12  C    2.789649   0.000000
    13  N    4.110662   1.322671   0.000000
    14  H    6.829097   4.239520   3.171024   0.000000
    15  H    6.517931   3.738626   2.432511   1.709881   0.000000
    16  H    4.240236   4.178145   4.801606   5.418589   6.212304
    17  H    5.425706   4.507905   4.689965   4.331104   5.491974
    18  H    4.425669   4.227112   4.804607   5.387323   6.209376
    19  H    2.570945   4.981542   6.246783   8.407897   8.495505
    20  H    2.579267   4.927576   6.193423   8.453295   8.495534
    21  H    4.546630   6.188096   7.250520   8.588625   9.155244
    22  H    4.550495   6.143085   7.202839   8.631766   9.153710
    23  H    4.737549   6.907235   8.099754   9.836485  10.216191
    24  H    2.435645   1.086716   2.060594   5.188161   4.435313
                   16         17         18         19         20
    16  H    0.000000
    17  H    1.786434   0.000000
    18  H    1.753283   1.782926   0.000000
    19  H    4.027330   5.667584   4.500331   0.000000
    20  H    4.525563   5.831605   4.294827   1.761593   0.000000
    21  H    3.312438   4.803986   3.667669   2.527096   3.083615
    22  H    3.905209   4.996200   3.409183   3.083548   2.526791
    23  H    4.859290   6.292476   4.869070   2.516929   2.516042
    24  H    4.955149   5.498504   5.034131   4.909214   4.820685
                   21         22         23         24
    21  H    0.000000
    22  H    1.772848   0.000000
    23  H    1.773248   1.773303   0.000000
    24  H    6.511907   6.443777   7.001813   0.000000
 Stoichiometry    C8H11N3O2
 Framework group  C1[X(C8H11N3O2)]
 Deg. of freedom    66
 Full point group                 C1      NOp   1
 Largest Abelian subgroup         C1      NOp   1
 Largest concise Abelian subgroup C1      NOp   1
                         Standard orientation:                         
 ---------------------------------------------------------------------
 Center     Atomic      Atomic             Coordinates (Angstroms)
 Number     Number       Type             X           Y           Z
 ---------------------------------------------------------------------
      1          7           0       -4.217225    0.378435    0.158628
      2          6           0       -2.899964    0.097495    0.051160
      3          7           0       -2.061996    1.150333   -0.025082
      4          6           0       -0.752200    0.897761   -0.063639
      5          6           0        0.126798    2.114230   -0.160321
      6          6           0       -0.275664   -0.434721   -0.027575
      7          6           0        1.128573   -0.892659   -0.059565
      8          8           0        2.031729    0.108743    0.052253
      9          6           0        3.409974   -0.310564    0.032490
     10          6           0        4.264539    0.934914    0.153496
     11          8           0        1.459047   -2.060627   -0.159143
     12          6           0       -1.254517   -1.440051    0.024149
     13          7           0       -2.556283   -1.209235    0.064014
     14          1           0       -4.487839    1.296605   -0.148697
     15          1           0       -4.836931   -0.375940   -0.082191
     16          1           0        0.809702    2.042408   -1.009474
     17          1           0       -0.505675    2.995723   -0.266292
     18          1           0        0.746695    2.215016    0.734154
     19          1           0        3.605908   -0.853787   -0.896896
     20          1           0        3.582761   -1.007868    0.857793
     21          1           0        4.078327    1.619178   -0.678998
     22          1           0        4.053394    1.464114    1.086879
     23          1           0        5.323812    0.662568    0.144454
     24          1           0       -0.933060   -2.478116    0.030304
 ---------------------------------------------------------------------
 Rotational constants (GHZ):           1.9422271           0.4429349           0.3640564
 Standard basis: 6-31G(d,p) (6D, 7F)
 There are   250 symmetry adapted cartesian basis functions of A   symmetry.
 There are   250 symmetry adapted basis functions of A   symmetry.
   250 basis functions,   441 primitive gaussians,   250 cartesian basis functions
    48 alpha electrons       48 beta electrons
       nuclear repulsion energy       788.2278868697 Hartrees.
 NAtoms=   24 NActive=   24 NUniq=   24 SFac= 1.00D+00 NAtFMM=   60 NAOKFM=F Big=F
 Integral buffers will be    131072 words long.
 Raffenetti 2 integral format.
 Two-electron integral symmetry is turned on.
 Nuclear repulsion after empirical dispersion term =      788.1864066472 Hartrees.
 One-electron integrals computed using PRISM.
 NBasis=   250 RedAO= T EigKep=  9.24D-04  NBF=   250
 NBsUse=   250 1.00D-06 EigRej= -1.00D+00 NBFU=   250
 Initial guess from the checkpoint file:  "pyrmd1_conf-3.chk"
 B after Tr=    -0.000000    0.000000   -0.000000
         Rot=    0.999995   -0.002926   -0.000340   -0.000938 Ang=  -0.35 deg.
 ExpMin= 1.61D-01 ExpMax= 5.48D+03 ExpMxC= 8.25D+02 IAcc=3 IRadAn=         5 AccDes= 0.00D+00
 Harris functional with IExCor=  402 and IRadAn=       5 diagonalized for initial guess.
 HarFok:  IExCor=  402 AccDes= 0.00D+00 IRadAn=         5 IDoV= 1 UseB2=F ITyADJ=14
 ICtDFT=  3500011 ScaDFX=  1.000000  1.000000  1.000000  1.000000
 FoFCou: FMM=F IPFlag=           0 FMFlag=      100000 FMFlg1=           0
         NFxFlg=           0 DoJE=T BraDBF=F KetDBF=T FulRan=T
         wScrn=  0.000000 ICntrl=       500 IOpCl=  0 I1Cent=   200000004 NGrid=           0
         NMat0=    1 NMatS0=      1 NMatT0=    0 NMatD0=    1 NMtDS0=    0 NMtDT0=    0
 Petite list used in FoFCou.
 Requested convergence on RMS density matrix=1.00D-08 within 128 cycles.
 Requested convergence on MAX density matrix=1.00D-06.
 Requested convergence on             energy=1.00D-06.
 No special actions if energy rises.
 Integral accuracy reduced to 1.0D-05 until final iterations.
 Initial convergence to 1.0D-05 achieved.  Increase integral accuracy.
 SCF Done:  E(RB3LYP) =  -626.274028171     A.U. after   13 cycles
            NFock= 13  Conv=0.45D-08     -V/T= 2.0092
 Calling FoFJK, ICntrl=      2127 FMM=F ISym2X=0 I1Cent= 0 IOpClX= 0 NMat=1 NMatS=1 NMatT=0.
 ***** Axes restored to original set *****
 -------------------------------------------------------------------
 Center     Atomic                   Forces (Hartrees/Bohr)
 Number     Number              X              Y              Z
 -------------------------------------------------------------------
      1        7          -0.008402858    0.000009780    0.002183029
      2        6           0.010558655   -0.002167693   -0.000446184
      3        7          -0.001236801    0.001623105    0.001094287
      4        6           0.001923080   -0.001032668   -0.000151385
      5        6          -0.000544895   -0.000375712   -0.000215451
      6        6          -0.000972238    0.000247687   -0.000006171
      7        6           0.000293089    0.000009028   -0.000582322
      8        8          -0.000958400    0.000446847    0.000621620
      9        6           0.002989601   -0.001509506   -0.000346611
     10        6          -0.000465287   -0.000163211   -0.000312592
     11        8          -0.000196444    0.000744601    0.000493229
     12        6           0.002998788   -0.000841216    0.000659209
     13        7          -0.002894057   -0.000061172   -0.000914578
     14        1          -0.002398948   -0.001601134   -0.003426700
     15        1          -0.001202065    0.004152574    0.001068264
     16        1           0.000636639    0.000117867   -0.000125891
     17        1          -0.000328519    0.000385253   -0.000024201
     18        1           0.000577318   -0.000189322    0.000278927
     19        1          -0.000426992    0.000131170    0.000045323
     20        1          -0.000387946    0.000209301   -0.000023025
     21        1          -0.000036567   -0.000082677    0.000056522
     22        1          -0.000000491    0.000044351   -0.000099236
     23        1           0.000160008    0.000045800    0.000083558
     24        1           0.000315329   -0.000143054    0.000090378
 -------------------------------------------------------------------
 Cartesian Forces:  Max     0.010558655 RMS     0.001967808

 GradGradGradGradGradGradGradGradGradGradGradGradGradGradGradGradGradGrad
 Berny optimization.
 Using GEDIIS/GDIIS optimizer.
 FormGI is forming the generalized inverse of G from B-inverse, IUseBI=4.
 Internal  Forces:  Max     0.012121600 RMS     0.001497165
 Search for a local minimum.
 Step number   2 out of a maximum of  117
 All quantities printed in internal units (Hartrees-Bohrs-Radians)
 Mixed Optimization -- RFO/linear search
 Update second derivatives using D2CorX and points    1    2
 DE= -5.13D-03 DEPred=-6.72D-03 R= 7.64D-01
 TightC=F SS=  1.41D+00  RLast= 7.49D-01 DXNew= 5.0454D-01 2.2472D+00
 Trust test= 7.64D-01 RLast= 7.49D-01 DXMaxT set to 5.05D-01
 ITU=  1  0
 Use linear search instead of GDIIS.
     Eigenvalues ---   -0.00410   0.00082   0.00131   0.00264   0.00398
     Eigenvalues ---    0.01139   0.01431   0.01518   0.01927   0.02146
     Eigenvalues ---    0.02459   0.02596   0.03875   0.04443   0.04522
     Eigenvalues ---    0.04903   0.05262   0.05541   0.05787   0.06095
     Eigenvalues ---    0.06402   0.09185   0.09854   0.11043   0.11925
     Eigenvalues ---    0.12043   0.12128   0.12355   0.13306   0.13926
     Eigenvalues ---    0.14154   0.16598   0.17652   0.18669   0.19297
     Eigenvalues ---    0.19838   0.20684   0.22082   0.22885   0.24010
     Eigenvalues ---    0.24966   0.28292   0.29000   0.29957   0.33024
     Eigenvalues ---    0.33874   0.34050   0.34524   0.34777   0.34964
     Eigenvalues ---    0.35022   0.35470   0.35506   0.36579   0.37463
     Eigenvalues ---    0.38231   0.41706   0.43399   0.43913   0.47747
     Eigenvalues ---    0.49442   0.49954   0.50655   0.54449   0.58440
     Eigenvalues ---    0.75807
 RFO step:  Lambda=-5.84001519D-03 EMin=-4.09542300D-03
 Quartic linear search produced a step of -0.17609.
 Iteration  1 RMS(Cart)=  0.06104507 RMS(Int)=  0.06047203
 Iteration  2 RMS(Cart)=  0.03692197 RMS(Int)=  0.02983050
 Iteration  3 RMS(Cart)=  0.01075506 RMS(Int)=  0.02778353
 Iteration  4 RMS(Cart)=  0.00159013 RMS(Int)=  0.02774342
 Iteration  5 RMS(Cart)=  0.00024954 RMS(Int)=  0.02774251
 Iteration  6 RMS(Cart)=  0.00003765 RMS(Int)=  0.02774249
 Iteration  7 RMS(Cart)=  0.00000575 RMS(Int)=  0.02774249
 Iteration  8 RMS(Cart)=  0.00000088 RMS(Int)=  0.02774249
 Variable       Old X    -DE/DX   Delta X   Delta X   Delta X     New X
                                 (Linear)    (Quad)   (Total)
    R1        2.55334   0.01212   0.00767  -0.00557   0.00210   2.55544
    R2        1.89983   0.00377  -0.00018   0.00897   0.00879   1.90861
    R3        1.90019   0.00376  -0.00017   0.00886   0.00868   1.90888
    R4        2.54691  -0.00049  -0.00068  -0.00134  -0.00199   2.54492
    R5        2.55346  -0.00026  -0.00207   0.00568   0.00363   2.55709
    R6        2.52181   0.00235   0.00837  -0.03452  -0.02614   2.49566
    R7        2.84200   0.00018   0.00575  -0.02756  -0.02181   2.82019
    R8        2.67508  -0.00016   0.00007  -0.00077  -0.00073   2.67435
    R9        2.06368   0.00011  -0.00092   0.00469   0.00377   2.06745
   R10        2.05996   0.00014   0.00021  -0.00095  -0.00074   2.05922
   R11        2.06536   0.00015  -0.00118   0.00629   0.00511   2.07047
   R12        2.79182   0.00095   0.00743  -0.02937  -0.02194   2.76987
   R13        2.65338  -0.00012   0.00023  -0.00250  -0.00230   2.65108
   R14        2.55707   0.00095  -0.00197   0.00797   0.00600   2.56307
   R15        2.30150   0.00059   0.00509  -0.02454  -0.01945   2.28204
   R16        2.72263   0.00195  -0.00697   0.03942   0.03245   2.75508
   R17        2.86351   0.00020   0.00499  -0.02386  -0.01887   2.84464
   R18        2.06771  -0.00005  -0.00075   0.00330   0.00255   2.07026
   R19        2.06769  -0.00003  -0.00077   0.00354   0.00277   2.07045
   R20        2.06658   0.00010  -0.00112   0.00550   0.00438   2.07096
   R21        2.06650   0.00011  -0.00113   0.00560   0.00447   2.07097
   R22        2.06691   0.00015  -0.00135   0.00698   0.00564   2.07255
   R23        2.49949   0.00356   0.01148  -0.04598  -0.03451   2.46498
   R24        2.05360   0.00017  -0.00119   0.00577   0.00457   2.05817
    A1        2.01308   0.00143   0.00849   0.23975   0.08653   2.09960
    A2        2.01063   0.00141   0.00846   0.23933   0.08605   2.09668
    A3        2.03316   0.00010   0.02290   0.16352   0.01796   2.05112
    A4        2.03557   0.00058   0.00012  -0.00025  -0.00043   2.03514
    A5        2.03564   0.00062  -0.00009   0.00101   0.00063   2.03627
    A6        2.21161  -0.00119   0.00004   0.00022   0.00007   2.21168
    A7        2.05333   0.00122  -0.00329   0.01853   0.01533   2.06866
    A8        2.00692   0.00036  -0.00622   0.02951   0.02328   2.03019
    A9        2.10345  -0.00024   0.00517  -0.02719  -0.02202   2.08143
   A10        2.17276  -0.00012   0.00104  -0.00223  -0.00121   2.17155
   A11        1.94151   0.00014  -0.00285   0.01186   0.00905   1.95057
   A12        1.89782  -0.00052   0.01089  -0.05420  -0.04324   1.85458
   A13        1.93208   0.00012  -0.00182   0.01110   0.00932   1.94141
   A14        1.91816   0.00047  -0.00760   0.04016   0.03262   1.95078
   A15        1.86268  -0.00053   0.00675  -0.03808  -0.03131   1.83137
   A16        1.91142   0.00033  -0.00565   0.03142   0.02584   1.93726
   A17        2.22836  -0.00009  -0.00169   0.00841   0.00671   2.23507
   A18        2.02664  -0.00017  -0.00256   0.01341   0.01080   2.03744
   A19        2.02805   0.00026   0.00426  -0.02163  -0.01738   2.01067
   A20        1.98584  -0.00059   0.00188  -0.01127  -0.00946   1.97638
   A21        2.16150  -0.00050  -0.00349   0.01345   0.00990   2.17140
   A22        2.13573   0.00110   0.00149  -0.00178  -0.00035   2.13538
   A23        2.00642   0.00345   0.01729  -0.06571  -0.04842   1.95800
   A24        1.87463  -0.00023   0.00313  -0.01732  -0.01410   1.86054
   A25        1.90439  -0.00019   0.00331  -0.01873  -0.01533   1.88905
   A26        1.90307  -0.00020   0.00340  -0.01886  -0.01537   1.88769
   A27        1.95509   0.00032  -0.00529   0.02773   0.02223   1.97732
   A28        1.95467   0.00032  -0.00519   0.02726   0.02187   1.97655
   A29        1.87130  -0.00004   0.00080  -0.00222  -0.00184   1.86945
   A30        1.93635   0.00001   0.00033  -0.00194  -0.00161   1.93474
   A31        1.93588   0.00002   0.00033  -0.00176  -0.00143   1.93445
   A32        1.91862  -0.00016   0.00277  -0.01451  -0.01175   1.90687
   A33        1.89029   0.00003  -0.00091   0.00530   0.00439   1.89468
   A34        1.89064   0.00006  -0.00132   0.00673   0.00539   1.89603
   A35        1.89078   0.00005  -0.00136   0.00687   0.00550   1.89628
   A36        2.16794  -0.00024  -0.00231   0.00968   0.00736   2.17530
   A37        2.06909  -0.00020   0.00816  -0.03812  -0.02995   2.03914
   A38        2.04615   0.00044  -0.00585   0.02844   0.02260   2.06875
   A39        2.00292   0.00062   0.00302  -0.01423  -0.01116   1.99176
    D1        0.36318  -0.00204  -0.06401  -0.47270  -0.51634  -0.15316
    D2       -2.80564  -0.00187  -0.05892  -0.43661  -0.47517   3.00237
    D3        2.81020   0.00185   0.05802   0.43174   0.46940  -3.00358
    D4       -0.35863   0.00201   0.06311   0.46782   0.51058   0.15195
    D5        3.08384   0.00014   0.01010   0.05085   0.06096  -3.13839
    D6       -0.02739  -0.00008   0.00443   0.01061   0.01506  -0.01233
    D7       -3.08529  -0.00018  -0.00956  -0.05363  -0.06318   3.13471
    D8        0.02593   0.00004  -0.00389  -0.01340  -0.01726   0.00867
    D9        3.13284   0.00011  -0.00178   0.01009   0.00838   3.14122
   D10        0.00212   0.00006  -0.00151   0.00185   0.00040   0.00252
   D11       -2.19776  -0.00025   0.00335  -0.00873  -0.00542  -2.20317
   D12       -0.08302   0.00009  -0.00088   0.01301   0.01209  -0.07094
   D13        2.01749   0.00025  -0.00207   0.02407   0.02193   2.03942
   D14        0.93247  -0.00019   0.00310  -0.00028   0.00289   0.93535
   D15        3.04720   0.00015  -0.00113   0.02146   0.02039   3.06759
   D16       -1.13547   0.00030  -0.00232   0.03252   0.03023  -1.10524
   D17       -3.14006   0.00003   0.00040   0.00251   0.00299  -3.13707
   D18        0.02004   0.00002  -0.00135  -0.00981  -0.01122   0.00882
   D19        0.01349  -0.00004   0.00074  -0.00673  -0.00582   0.00767
   D20       -3.10959  -0.00005  -0.00101  -0.01905  -0.02003  -3.12962
   D21        0.14897  -0.00042   0.00519  -0.06522  -0.06000   0.08897
   D22       -3.00861  -0.00015   0.00057  -0.03741  -0.03679  -3.04540
   D23       -3.01115  -0.00042   0.00691  -0.05258  -0.04572  -3.05686
   D24        0.11445  -0.00014   0.00229  -0.02476  -0.02250   0.09195
   D25       -0.02173  -0.00005   0.00193   0.00683   0.00881  -0.01292
   D26        3.11767  -0.00006   0.00300   0.00847   0.01146   3.12913
   D27        3.13620  -0.00005   0.00041  -0.00432  -0.00378   3.13241
[...]
                 (A) (A) (A) (A) (A) (A) (A) (A) (A) (A) (A) (A)
                 (A) (A) (A) (A) (A) (A) (A) (A) (A) (A) (A) (A)
                 (A)
 The electronic state is 1-A.
 Alpha  occ. eigenvalues --  -19.67199 -19.61120 -14.77341 -14.75206 -14.75134
 Alpha  occ. eigenvalues --  -10.67647 -10.65607 -10.61335 -10.59807 -10.59561
 Alpha  occ. eigenvalues --  -10.55618 -10.53890 -10.53506  -1.23094  -1.13550
 Alpha  occ. eigenvalues --   -1.12178  -1.02210  -1.00319  -0.90373  -0.86868
 Alpha  occ. eigenvalues --   -0.82859  -0.76525  -0.72484  -0.71802  -0.66333
 Alpha  occ. eigenvalues --   -0.63887  -0.60915  -0.59606  -0.57920  -0.57091
 Alpha  occ. eigenvalues --   -0.54687  -0.53318  -0.50074  -0.49872  -0.48828
 Alpha  occ. eigenvalues --   -0.48117  -0.46912  -0.46018  -0.45137  -0.43453
 Alpha  occ. eigenvalues --   -0.42072  -0.40318  -0.39714  -0.37581  -0.37167
 Alpha  occ. eigenvalues --   -0.35440  -0.32345  -0.29225
 Alpha virt. eigenvalues --   -0.01178  -0.00343   0.05692   0.06766   0.09039
 Alpha virt. eigenvalues --    0.09534   0.10397   0.11081   0.11561   0.12640
 Alpha virt. eigenvalues --    0.13566   0.14119   0.14694   0.14914   0.15493
 Alpha virt. eigenvalues --    0.17909   0.19012   0.19102   0.19438   0.20670
 Alpha virt. eigenvalues --    0.21656   0.23540   0.24067   0.25667   0.25791
 Alpha virt. eigenvalues --    0.25880   0.26158   0.26451   0.27504   0.27842
 Alpha virt. eigenvalues --    0.29923   0.30175   0.30979   0.32484   0.33311
 Alpha virt. eigenvalues --    0.33766   0.35722   0.36365   0.36819   0.37630
 Alpha virt. eigenvalues --    0.38129   0.39387   0.40073   0.40472   0.41496
 Alpha virt. eigenvalues --    0.42087   0.44432   0.44592   0.44795   0.45850
 Alpha virt. eigenvalues --    0.46083   0.46524   0.46625   0.47944   0.48307
 Alpha virt. eigenvalues --    0.49210   0.49989   0.50427   0.51213   0.51493
 Alpha virt. eigenvalues --    0.51846   0.52446   0.53619   0.54394   0.55190
 Alpha virt. eigenvalues --    0.55718   0.55973   0.57300   0.59348   0.60342
 Alpha virt. eigenvalues --    0.60663   0.61924   0.62609   0.64452   0.65786
 Alpha virt. eigenvalues --    0.66235   0.66602   0.68156   0.68706   0.68941
 Alpha virt. eigenvalues --    0.70254   0.71266   0.72386   0.73303   0.74232
 Alpha virt. eigenvalues --    0.74665   0.75141   0.77816   0.78409   0.79240
 Alpha virt. eigenvalues --    0.80251   0.82663   0.84166   0.85021   0.86848
 Alpha virt. eigenvalues --    0.87709   0.88888   0.90499   0.91207   0.93427
 Alpha virt. eigenvalues --    0.94990   0.95680   0.96292   0.97857   1.00090
 Alpha virt. eigenvalues --    1.02638   1.04088   1.06129   1.06420   1.07091
 Alpha virt. eigenvalues --    1.08236   1.09472   1.11091   1.12033   1.12920
 Alpha virt. eigenvalues --    1.14859   1.16522   1.16677   1.23352   1.26165
 Alpha virt. eigenvalues --    1.27479   1.29511   1.30236   1.31870   1.32623
 Alpha virt. eigenvalues --    1.35531   1.37059   1.38346   1.39591   1.41348
 Alpha virt. eigenvalues --    1.43841   1.44168   1.45864   1.47109   1.47622
 Alpha virt. eigenvalues --    1.50299   1.51988   1.52704   1.53088   1.54122
 Alpha virt. eigenvalues --    1.56331   1.56494   1.57540   1.58079   1.59197
 Alpha virt. eigenvalues --    1.59395   1.59833   1.60730   1.60982   1.62761
 Alpha virt. eigenvalues --    1.63542   1.64156   1.64415   1.65930   1.66350
 Alpha virt. eigenvalues --    1.67142   1.68395   1.69484   1.71248   1.71672
 Alpha virt. eigenvalues --    1.74634   1.75290   1.78578   1.79211   1.81288
 Alpha virt. eigenvalues --    1.82141   1.82665   1.83694   1.84474   1.85736
 Alpha virt. eigenvalues --    1.86850   1.90011   1.91607   1.93148   1.94320
 Alpha virt. eigenvalues --    1.95746   1.96970   1.99603   2.00676   2.03550
 Alpha virt. eigenvalues --    2.03680   2.05637   2.06928   2.08162   2.09467
 Alpha virt. eigenvalues --    2.11200   2.12453   2.13760   2.15505   2.17233
 Alpha virt. eigenvalues --    2.18364   2.20256   2.22996   2.25753   2.26686
 Alpha virt. eigenvalues --    2.27516   2.29863   2.30768   2.32880   2.33266
 Alpha virt. eigenvalues --    2.34140   2.35255   2.35675   2.36526   2.36964
 Alpha virt. eigenvalues --    2.40402   2.40754   2.42276   2.43246   2.43658
 Alpha virt. eigenvalues --    2.44485   2.44852   2.45654   2.47947   2.53806
 Alpha virt. eigenvalues --    2.54002   2.55014   2.55151   2.56538   2.56749
 Alpha virt. eigenvalues --    2.57467   2.58678   2.59253   2.62346   2.64110
 Alpha virt. eigenvalues --    2.67069   2.68751   2.69768   2.72344   2.73794
 Alpha virt. eigenvalues --    2.74294   2.75749   2.77904   2.80635   2.81950
 Alpha virt. eigenvalues --    2.82152   2.83304   2.84051   2.85664   2.87847
 Alpha virt. eigenvalues --    2.90914   2.91837   2.93313   2.95242   2.95762
 Alpha virt. eigenvalues --    2.96430   2.97085   2.98290   2.99157   3.00366
 Alpha virt. eigenvalues --    3.00401   3.02721   3.03718   3.03928   3.05547
 Alpha virt. eigenvalues --    3.07514   3.08883   3.09863   3.11047   3.12477
 Alpha virt. eigenvalues --    3.13588   3.15494   3.16734   3.16931   3.17356
 Alpha virt. eigenvalues --    3.17695   3.19677   3.21577   3.22164   3.22487
 Alpha virt. eigenvalues --    3.24847   3.25298   3.27040   3.27753   3.29190
 Alpha virt. eigenvalues --    3.30607   3.30790   3.31507   3.32556   3.34317
 Alpha virt. eigenvalues --    3.34879   3.35543   3.36946   3.38162   3.39453
 Alpha virt. eigenvalues --    3.40078   3.41527   3.44626   3.45477   3.45560
 Alpha virt. eigenvalues --    3.46929   3.47247   3.48626   3.51196   3.53500
 Alpha virt. eigenvalues --    3.54046   3.55379   3.56889   3.58138   3.58900
 Alpha virt. eigenvalues --    3.65947   3.69750   3.70260   3.71593   3.73861
 Alpha virt. eigenvalues --    3.76656   3.77136   3.77574   3.80428   3.81698
 Alpha virt. eigenvalues --    3.82491   3.84939   3.86906   3.87246   3.88578
 Alpha virt. eigenvalues --    3.91970   3.93758   3.94784   3.96720   3.97940
 Alpha virt. eigenvalues --    4.00457   4.05225   4.08006   4.08161   4.13930
 Alpha virt. eigenvalues --    4.15145   4.17817   4.19973   4.23299   4.24872
 Alpha virt. eigenvalues --    4.26989   4.30917   4.34045   4.34476   4.36431
 Alpha virt. eigenvalues --    4.37571   4.39475   4.41310   4.46813   4.46967
 Alpha virt. eigenvalues --    4.48750   4.53364   4.54771   4.56319   4.60212
 Alpha virt. eigenvalues --    4.64477   4.66378   4.68449   4.70394   4.71968
 Alpha virt. eigenvalues --    4.73508   4.75766   4.77758   4.83680   4.87427
 Alpha virt. eigenvalues --    4.91998   4.93420   4.94427   4.97830   5.01631
 Alpha virt. eigenvalues --    5.02436   5.02896   5.04731   5.05532   5.12293
 Alpha virt. eigenvalues --    5.14509   5.15641   5.18611   5.19324   5.19970
 Alpha virt. eigenvalues --    5.25970   5.31049   5.31820   5.33696   5.35292
 Alpha virt. eigenvalues --    5.39067   5.41824   5.42459   5.43716   5.48261
 Alpha virt. eigenvalues --    5.50609   5.54066   5.57132   5.64988   5.66576
 Alpha virt. eigenvalues --    5.72193   5.75198   5.82849   5.90908   5.94924
 Alpha virt. eigenvalues --    5.96180   6.05970   6.10941   6.14701   6.21726
 Alpha virt. eigenvalues --    6.36134   6.38439   6.42633   6.58098   6.65527
 Alpha virt. eigenvalues --    6.74958   6.76269   6.87628   6.93331   7.07440
 Alpha virt. eigenvalues --    7.13539   7.32900   7.41502  22.40832  22.56555
 Alpha virt. eigenvalues --   22.58901  22.84564  23.02436  23.25293  23.35246
 Alpha virt. eigenvalues --   23.53060  32.08203  32.50124  32.85283  44.08523
 Alpha virt. eigenvalues --   44.42542
          Condensed to atoms (all electrons):
               1          2          3          4          5          6
     1  N    6.581447   0.389191  -0.108308   0.006594   0.000156  -0.003597
     2  C    0.389191   4.482360   0.503499  -0.097701   0.003473  -0.024300
     3  N   -0.108308   0.503499   6.537216   0.589251  -0.054464  -0.102654
     4  C    0.006594  -0.097701   0.589251   5.053712   0.221852   0.295264
     5  C    0.000156   0.003473  -0.054464   0.221852   5.156345  -0.069308
     6  C   -0.003597  -0.024300  -0.102654   0.295264  -0.069308   5.510283
     7  C   -0.000052   0.002645   0.000651  -0.033503  -0.019384   0.353073
     8  O   -0.000001   0.000082   0.000021   0.006647  -0.022911  -0.108659
     9  C   -0.000000   0.000003  -0.000002  -0.001167   0.000229   0.010024
    10  C    0.000000   0.000005   0.000015   0.001216  -0.003297   0.001972
    11  O   -0.000002  -0.000243  -0.000328   0.002917   0.000030  -0.136675
    12  C    0.006439  -0.111964  -0.013116  -0.026860   0.006745   0.446010
    13  N   -0.108972   0.493729  -0.072622  -0.043024  -0.002945  -0.045559
    14  H    0.369688  -0.029013   0.007946   0.000846  -0.000346   0.000769
    15  H    0.368969  -0.027919   0.006040  -0.000914   0.000031   0.000310
    16  H    0.000009  -0.000699   0.000467  -0.049817   0.419591   0.005664
    17  H   -0.000282   0.000957   0.008953  -0.068077   0.423797   0.011326
    18  H    0.000007  -0.000623   0.000255  -0.048239   0.417098   0.006267
    19  H    0.000000   0.000001   0.000002  -0.000094   0.000090  -0.001113
    20  H    0.000000   0.000001   0.000002  -0.000095   0.000098  -0.001251
    21  H   -0.000000  -0.000000   0.000000   0.000042  -0.000110  -0.000373
    22  H   -0.000000   0.000000   0.000001   0.000049  -0.000115  -0.000365
    23  H    0.000000   0.000000  -0.000000  -0.000033   0.000063   0.000031
    24  H   -0.000015   0.005448  -0.001520   0.004701   0.000045  -0.058597
               7          8          9         10         11         12
     1  N   -0.000052  -0.000001  -0.000000   0.000000  -0.000002   0.006439
     2  C    0.002645   0.000082   0.000003   0.000005  -0.000243  -0.111964
     3  N    0.000651   0.000021  -0.000002   0.000015  -0.000328  -0.013116
     4  C   -0.033503   0.006647  -0.001167   0.001216   0.002917  -0.026860
     5  C   -0.019384  -0.022911   0.000229  -0.003297   0.000030   0.006745
     6  C    0.353073  -0.108659   0.010024   0.001972  -0.136675   0.446010
     7  C    4.453039   0.367539  -0.046312   0.004243   0.646553  -0.071995
     8  O    0.367539   8.026873   0.199722  -0.044622  -0.082165   0.005575
     9  C   -0.046312   0.199722   4.933363   0.273003  -0.001383  -0.000360
    10  C    0.004243  -0.044622   0.273003   5.029890   0.004322  -0.000131
    11  O    0.646553  -0.082165  -0.001383   0.004322   7.895479   0.020411
    12  C   -0.071995   0.005575  -0.000360  -0.000131   0.020411   4.819850
    13  N    0.007186  -0.000226   0.000015  -0.000002   0.000519   0.541705
    14  H   -0.000008   0.000000  -0.000000  -0.000000   0.000000  -0.001136
    15  H   -0.000001   0.000000  -0.000000   0.000000   0.000000   0.001039
    16  H   -0.004742   0.000172  -0.000000  -0.000319  -0.000037   0.000554
    17  H    0.000611   0.001871  -0.000086  -0.000021   0.000024  -0.000503
    18  H   -0.004733   0.000263   0.000033  -0.000346  -0.000032   0.000532
    19  H   -0.006949  -0.034906   0.426924  -0.039189   0.004401  -0.000016
    20  H   -0.007036  -0.034745   0.426748  -0.038912   0.004414  -0.000013
    21  H   -0.000036   0.000506  -0.037075   0.409339  -0.000099   0.000005
    22  H   -0.000029   0.000547  -0.037069   0.409311  -0.000100   0.000005
    23  H   -0.000065   0.004629  -0.041013   0.412530   0.000128  -0.000003
    24  H   -0.010947   0.000724  -0.000112  -0.000006   0.015788   0.429456
              13         14         15         16         17         18
     1  N   -0.108972   0.369688   0.368969   0.000009  -0.000282   0.000007
     2  C    0.493729  -0.029013  -0.027919  -0.000699   0.000957  -0.000623
     3  N   -0.072622   0.007946   0.006040   0.000467   0.008953   0.000255
     4  C   -0.043024   0.000846  -0.000914  -0.049817  -0.068077  -0.048239
     5  C   -0.002945  -0.000346   0.000031   0.419591   0.423797   0.417098
     6  C   -0.045559   0.000769   0.000310   0.005664   0.011326   0.006267
     7  C    0.007186  -0.000008  -0.000001  -0.004742   0.000611  -0.004733
     8  O   -0.000226   0.000000   0.000000   0.000172   0.001871   0.000263
     9  C    0.000015  -0.000000  -0.000000  -0.000000  -0.000086   0.000033
    10  C   -0.000002  -0.000000   0.000000  -0.000319  -0.000021  -0.000346
    11  O    0.000519   0.000000   0.000000  -0.000037   0.000024  -0.000032
    12  C    0.541705  -0.001136   0.001039   0.000554  -0.000503   0.000532
    13  N    6.526123   0.006110   0.007772   0.000175   0.000439   0.000168
    14  H    0.006110   0.402704  -0.022982   0.000006   0.000135   0.000007
    15  H    0.007772  -0.022982   0.400686  -0.000001   0.000001  -0.000001
    16  H    0.000175   0.000006  -0.000001   0.518018  -0.019345  -0.033568
    17  H    0.000439   0.000135   0.000001  -0.019345   0.506179  -0.019151
    18  H    0.000168   0.000007  -0.000001  -0.033568  -0.019151   0.517943
    19  H    0.000000  -0.000000  -0.000000  -0.000243   0.000006   0.000128
    20  H    0.000000  -0.000000  -0.000000   0.000128   0.000006  -0.000239
    21  H    0.000000  -0.000000  -0.000000   0.000482   0.000015  -0.000225
    22  H    0.000000   0.000000   0.000000  -0.000220   0.000013   0.000487
    23  H    0.000000  -0.000000  -0.000000   0.000004   0.000002   0.000005
    24  H   -0.024591   0.000016  -0.000088   0.000005   0.000008   0.000005
              19         20         21         22         23         24
     1  N    0.000000   0.000000  -0.000000  -0.000000   0.000000  -0.000015
     2  C    0.000001   0.000001  -0.000000   0.000000   0.000000   0.005448
     3  N    0.000002   0.000002   0.000000   0.000001  -0.000000  -0.001520
     4  C   -0.000094  -0.000095   0.000042   0.000049  -0.000033   0.004701
     5  C    0.000090   0.000098  -0.000110  -0.000115   0.000063   0.000045
     6  C   -0.001113  -0.001251  -0.000373  -0.000365   0.000031  -0.058597
     7  C   -0.006949  -0.007036  -0.000036  -0.000029  -0.000065  -0.010947
     8  O   -0.034906  -0.034745   0.000506   0.000547   0.004629   0.000724
     9  C    0.426924   0.426748  -0.037075  -0.037069  -0.041013  -0.000112
    10  C   -0.039189  -0.038912   0.409339   0.409311   0.412530  -0.000006
    11  O    0.004401   0.004414  -0.000099  -0.000100   0.000128   0.015788
    12  C   -0.000016  -0.000013   0.000005   0.000005  -0.000003   0.429456
    13  N    0.000000   0.000000   0.000000   0.000000   0.000000  -0.024591
    14  H   -0.000000  -0.000000  -0.000000   0.000000  -0.000000   0.000016
    15  H   -0.000000  -0.000000  -0.000000   0.000000  -0.000000  -0.000088
    16  H   -0.000243   0.000128   0.000482  -0.000220   0.000004   0.000005
    17  H    0.000006   0.000006   0.000015   0.000013   0.000002   0.000008
    18  H    0.000128  -0.000239  -0.000225   0.000487   0.000005   0.000005
    19  H    0.551324  -0.043949  -0.008039   0.007457  -0.001979  -0.000014
    20  H   -0.043949   0.551249   0.007443  -0.008053  -0.002001  -0.000013
    21  H   -0.008039   0.007443   0.535693  -0.031239  -0.021959   0.000000
    22  H    0.007457  -0.008053  -0.031239   0.535418  -0.021920   0.000000
    23  H   -0.001979  -0.002001  -0.021959  -0.021920   0.526031  -0.000000
    24  H   -0.000014  -0.000013   0.000000   0.000000  -0.000000   0.458486
 Mulliken charges:
               1
     1  N   -0.501271
     2  C    0.411068
     3  N   -0.301305
     4  C    0.186432
     5  C   -0.476763
     6  C   -0.088544
     7  C    0.370252
     8  O   -0.286937
     9  C   -0.105485
    10  C   -0.419001
    11  O   -0.373921
    12  C   -0.052231
    13  N   -0.286001
    14  H    0.265257
    15  H    0.267056
    16  H    0.163715
    17  H    0.153122
    18  H    0.163959
    19  H    0.146157
    20  H    0.146220
    21  H    0.145631
    22  H    0.145821
    23  H    0.145552
    24  H    0.181220
 Sum of Mulliken charges =  -0.00000
 Mulliken charges with hydrogens summed into heavy atoms:
               1
     1  N    0.031042
     2  C    0.411068
     3  N   -0.301305
     4  C    0.186432
     5  C    0.004032
     6  C   -0.088544
     7  C    0.370252
     8  O   -0.286937
     9  C    0.186892
    10  C    0.018002
    11  O   -0.373921
    12  C    0.128989
    13  N   -0.286001
 Electronic spatial extent (au):  <R**2>=           2961.1751
 Charge=              0.0000 electrons
 Dipole moment (field-independent basis, Debye):
    X=             -0.1708    Y=              2.5916    Z=             -0.2534  Tot=              2.6096
 Quadrupole moment (field-independent basis, Debye-Ang):
   XX=            -55.4141   YY=            -82.6106   ZZ=            -77.0819
   XY=              0.9045   XZ=              1.3479   YZ=             -0.1760
 Traceless Quadrupole moment (field-independent basis, Debye-Ang):
   XX=             16.2881   YY=            -10.9084   ZZ=             -5.3797
   XY=              0.9045   XZ=              1.3479   YZ=             -0.1760
 Octapole moment (field-independent basis, Debye-Ang**2):
  XXX=            -47.6754  YYY=             12.7779  ZZZ=             -0.1884  XYY=             -6.2734
  XXY=             17.9152  XXZ=             -6.4806  XZZ=              9.2220  YZZ=             -1.5141
  YYZ=             -0.2162  XYZ=              0.6236
 Hexadecapole moment (field-independent basis, Debye-Ang**3):
 XXXX=          -2317.3094 YYYY=           -782.3013 ZZZZ=            -97.7676 XXXY=            -90.0386
 XXXZ=             32.3746 YYYX=              1.3543 YYYZ=             -0.4937 ZZZX=              1.0134
 ZZZY=             -0.0412 XXYY=           -650.3117 XXZZ=           -542.1422 YYZZ=           -142.6608
 XXYZ=             -3.1304 YYXZ=              1.5024 ZZXY=             -2.3413
 N-N= 7.875296071444D+02 E-N=-3.036282534987D+03  KE= 6.230059884082D+02
 Unable to Open any file for archive entry.
 1\1\GINC-COMPUTE-0-16\SP\RM062X\def2TZVP\C8H11N3O2\ZTAN64\16-Aug-2024\
 0\\# M062X/def2tzvp int=(grid=ultrafine) nmr=giao guess=read geom=chec
 k\\pyrmd1.xyz\\0,1\N,0,-4.308880675,1.4423407318,-0.1347893846\C,0,-3.
 0049264724,1.0974341168,-0.0256151603\N,0,-2.6023062151,0.0254653688,-
 0.7359242029\C,0,-1.3145985334,-0.3222472328,-0.6605626639\C,0,-0.9340
 844137,-1.5266504198,-1.4771150952\C,0,-0.4162323075,0.4200361556,0.14
 40816838\C,0,1.0292038967,0.1814966092,0.3442452882\O,0,1.508519342,-0
 .8770135162,-0.3494477103\C,0,2.9180326366,-1.143402925,-0.1818344572\
 C,0,3.2505445899,-2.3529904202,-1.0316031406\O,0,1.7356619276,0.866343
 2633,1.062975404\C,0,-0.9649300069,1.5103289283,0.8385348154\N,0,-2.23
 90669586,1.8699355946,0.7759816184\H,0,-4.9309368929,0.8394602136,-0.6
 4576426\H,0,-4.6664422702,2.1777630215,0.451031461\H,0,-0.5128118121,-
 2.3114803411,-0.844172609\H,0,-1.823596316,-1.8957878287,-1.9878096081
 \H,0,-0.1612595275,-1.2748449173,-2.2075160987\H,0,3.1215175914,-1.314
 5081143,0.879412842\H,0,3.4834624064,-0.256996353,-0.4843087918\H,0,2.
 6704970697,-3.2242136009,-0.7144639756\H,0,3.034329773,-2.1604225094,-
 2.0862207351\H,0,4.3135290188,-2.5937682469,-0.9363818509\H,0,-0.31022
 5851,2.1031224222,1.4718666314\\Version=ES64L-G16RevC.01\State=1-A\HF=
 -626.2019832\RMSD=1.770e-09\Dipole=-0.4380142,-0.7423014,-0.5578594\Qu
 adrupole=8.931426,-3.4144925,-5.5169335,-6.7078171,-2.9841356,-0.92194
 09\PG=C01 [X(C8H11N3O2)]\\@
 The archive entry for this job was punched.


 A MAN IS EXACTLY AS GREAT AS THE TIDE SURGING
 BENEATH HIM.      - BISMARCK
 Job cpu time:       0 days  0 hours 38 minutes  3.8 seconds.
 Elapsed time:       0 days  0 hours  2 minutes 30.9 seconds.
 File lengths (MBytes):  RWF=    126 Int=      0 D2E=      0 Chk=     21 Scr=      1
 Normal termination of Gaussian 16 at Fri Aug 16 14:08:40 2024.
 
 
-----Kestrel cluster job statistics-----
Time info:

real	15m58.039s
user	249m23.712s
sys	0m27.151s
 
Disk space usage:
21M	/scratch/363661.kestrel.chem.wisc.edu
