 Entering Gaussian System, Link 0=/share/apps/gaussian/g16/g16
 Initial command:
 /share/apps/gaussian/g16/l1.exe "/scratch/363002.kestrel.chem.wisc.edu/Gau-179199.inp" -scrdir="/scratch/363002.kestrel.chem.wisc.edu/"
 Entering Link 1 = /share/apps/gaussian/g16/l1.exe PID=    179200.
  
 Copyright (c) 1988-2019, Gaussian, Inc.  All Rights Reserved.
  
 This is part of the Gaussian(R) 16 program.  It is based on
 the Gaussian(R) 09 system (copyright 2009, Gaussian, Inc.),
 the Gaussian(R) 03 system (copyright 2003, Gaussian, Inc.),
 the Gaussian(R) 98 system (copyright 1998, Gaussian, Inc.),
 the Gaussian(R) 94 system (copyright 1995, Gaussian, Inc.),
 the Gaussian 92(TM) system (copyright 1992, Gaussian, Inc.),
 the Gaussian 90(TM) system (copyright 1990, Gaussian, Inc.),
 the Gaussian 88(TM) system (copyright 1988, Gaussian, Inc.),
 the Gaussian 86(TM) system (copyright 1986, Carnegie Mellon
 University), and the Gaussian 82(TM) system (copyright 1983,
 Carnegie Mellon University). Gaussian is a federally registered
 trademark of Gaussian, Inc.
  
 This software contains proprietary and confidential information,
 including trade secrets, belonging to Gaussian, Inc.
  
 This software is provided under written license and may be
 used, copied, transmitted, or stored only in accord with that
 written license.
  
 The following legend is applicable only to US Government
 contracts under FAR:
  
                    RESTRICTED RIGHTS LEGEND
  
 Use, reproduction and disclosure by the US Government is
 subject to restrictions as set forth in subparagraphs (a)
 and (c) of the Commercial Computer Software - Restricted
 Rights clause in FAR 52.227-19.
  
 Gaussian, Inc.
 340 Quinnipiac St., Bldg. 40, Wallingford CT 06492
  
  
 ---------------------------------------------------------------
 Warning -- This program may not be used in any manner that
 competes with the business of Gaussian, Inc. or will provide
 assistance to any competitor of Gaussian, Inc.  The licensee
 of this program is prohibited from giving any competitor of
 Gaussian, Inc. access to this program.  By using this program,
 the user acknowledges that Gaussian, Inc. is engaged in the
 business of creating and licensing software in the field of
 computational chemistry and represents and warrants to the
 licensee that it is not a competitor of Gaussian, Inc. and that
 it will not use this program in any manner prohibited above.
 ---------------------------------------------------------------
  

 Cite this work as:
 Gaussian 16, Revision C.01,
 M. J. Frisch, G. W. Trucks, H. B. Schlegel, G. E. Scuseria, 
 M. A. Robb, J. R. Cheeseman, G. Scalmani, V. Barone, 
 G. A. Petersson, H. Nakatsuji, X. Li, M. Caricato, A. V. Marenich, 
 J. Bloino, B. G. Janesko, R. Gomperts, B. Mennucci, H. P. Hratchian, 
 J. V. Ortiz, A. F. Izmaylov, J. L. Sonnenberg, D. Williams-Young, 
 F. Ding, F. Lipparini, F. Egidi, J. Goings, B. Peng, A. Petrone, 
 T. Henderson, D. Ranasinghe, V. G. Zakrzewski, J. Gao, N. Rega, 
 G. Zheng, W. Liang, M. Hada, M. Ehara, K. Toyota, R. Fukuda, 
 J. Hasegawa, M. Ishida, T. Nakajima, Y. Honda, O. Kitao, H. Nakai, 
 T. Vreven, K. Throssell, J. A. Montgomery, Jr., J. E. Peralta, 
 F. Ogliaro, M. J. Bearpark, J. J. Heyd, E. N. Brothers, K. N. Kudin, 
 V. N. Staroverov, T. A. Keith, R. Kobayashi, J. Normand, 
 K. Raghavachari, A. P. Rendell, J. C. Burant, S. S. Iyengar, 
 J. Tomasi, M. Cossi, J. M. Millam, M. Klene, C. Adamo, R. Cammi, 
 J. W. Ochterski, R. L. Martin, K. Morokuma, O. Farkas, 
 J. B. Foresman, and D. J. Fox, Gaussian, Inc., Wallingford CT, 2019.
 
 ******************************************
 Gaussian 16:  ES64L-G16RevC.01  3-Jul-2019
                14-Aug-2024 
 ******************************************
 %nprocs=16
 Will use up to   16 processors via shared memory.
 %mem=16GB
 %chk=pyrz3_conf-1.chk
 ----------------------------------------------------------------------
 # B3LYP/6-31G(d,p) symmetry=loose empiricaldispersion=GD3BJ int=(grid=
 ultrafine) opt freq=noraman
 ----------------------------------------------------------------------
 1/18=20,19=15,26=4,38=1/1,3;
 2/9=110,12=2,17=4,18=3,40=1/2;
 3/5=1,6=6,7=101,11=2,25=1,30=1,71=1,74=-5,75=-5,124=41/1,2,3;
 4//1;
 5/5=2,38=5/2;
 6/7=2,8=2,9=2,10=2,28=1/1;
 7//1,2,3,16;
 1/18=20,19=15,26=4/3(2);
 2/9=110/2;
 99//99;
 2/9=110/2;
 3/5=1,6=6,7=101,11=2,25=1,30=1,71=1,74=-5,75=-5,124=41/1,2,3;
 4/5=5,16=3,69=1/1;
 5/5=2,38=5/2;
 7//1,2,3,16;
 1/18=20,19=15,26=4/3(-5);
 2/9=110/2;
 6/7=2,8=2,9=2,10=2,19=2,28=1/1;
 99/9=1/99;
 ---------
 pyrz3.xyz
 ---------
 Symbolic Z-matrix:
 Charge =  0 Multiplicity = 1
 C                    -3.7674   -0.4657    0.4279 
 C                    -2.2967   -0.1989    0.1823 
 N                    -1.4641   -0.3867    1.2392 
 C                    -0.1407   -0.152     1.0369 
 C                     0.3572    0.2673   -0.2076 
 C                     1.8207    0.5162   -0.3937 
 O                     2.1502    0.9156   -1.6477 
 C                     3.5033    1.1916   -1.9816 
 O                     2.6471    0.3708    0.5109 
 N                    -0.491     0.4521   -1.2613 
 C                    -1.8144    0.2179   -1.061 
 H                    -4.1431    0.1862    1.2172 
 H                    -4.3646   -0.2919   -0.4674 
 H                    -3.9171   -1.5       0.7392 
 H                     0.5131   -0.3046    1.8851 
 H                     3.9027    1.9972   -1.3633 
 H                     3.5746    1.4968   -3.0255 
 H                     4.1291    0.3087   -1.8415 
 H                    -2.4669    0.3701   -1.907 
 

 GradGradGradGradGradGradGradGradGradGradGradGradGradGradGradGradGradGrad
 Berny optimization.
 Initialization pass.
                           ----------------------------
                           !    Initial Parameters    !
                           ! (Angstroms and Degrees)  !
 --------------------------                            --------------------------
 ! Name  Definition              Value          Derivative Info.                !
 --------------------------------------------------------------------------------
 ! R1    R(1,2)                  1.5147         estimate D2E/DX2                !
 ! R2    R(1,12)                 1.0905         estimate D2E/DX2                !
 ! R3    R(1,13)                 1.0901         estimate D2E/DX2                !
 ! R4    R(1,14)                 1.0905         estimate D2E/DX2                !
 ! R5    R(2,3)                  1.3585         estimate D2E/DX2                !
 ! R6    R(2,11)                 1.3972         estimate D2E/DX2                !
 ! R7    R(3,4)                  1.3592         estimate D2E/DX2                !
 ! R8    R(4,5)                  1.4045         estimate D2E/DX2                !
 ! R9    R(4,15)                 1.0818         estimate D2E/DX2                !
 ! R10   R(5,6)                  1.4961         estimate D2E/DX2                !
 ! R11   R(5,10)                 1.3652         estimate D2E/DX2                !
 ! R12   R(6,7)                  1.3567         estimate D2E/DX2                !
 ! R13   R(6,9)                  1.2338         estimate D2E/DX2                !
 ! R14   R(7,8)                  1.4208         estimate D2E/DX2                !
 ! R15   R(8,16)                 1.0912         estimate D2E/DX2                !
 ! R16   R(8,17)                 1.0899         estimate D2E/DX2                !
 ! R17   R(8,18)                 1.0912         estimate D2E/DX2                !
 ! R18   R(10,11)                1.3588         estimate D2E/DX2                !
 ! R19   R(11,19)                1.0792         estimate D2E/DX2                !
 ! A1    A(2,1,12)             110.278          estimate D2E/DX2                !
 ! A2    A(2,1,13)             111.7555         estimate D2E/DX2                !
 ! A3    A(2,1,14)             110.282          estimate D2E/DX2                !
 ! A4    A(12,1,13)            108.0833         estimate D2E/DX2                !
 ! A5    A(12,1,14)            108.2461         estimate D2E/DX2                !
 ! A6    A(13,1,14)            108.0873         estimate D2E/DX2                !
 ! A7    A(1,2,3)              116.3956         estimate D2E/DX2                !
 ! A8    A(1,2,11)             122.1394         estimate D2E/DX2                !
 ! A9    A(3,2,11)             121.465          estimate D2E/DX2                !
 ! A10   A(2,3,4)              117.1986         estimate D2E/DX2                !
 ! A11   A(3,4,5)              121.9122         estimate D2E/DX2                !
 ! A12   A(3,4,15)             116.5778         estimate D2E/DX2                !
 ! A13   A(5,4,15)             121.51           estimate D2E/DX2                !
 ! A14   A(4,5,6)              120.4422         estimate D2E/DX2                !
 ! A15   A(4,5,10)             120.2691         estimate D2E/DX2                !
 ! A16   A(6,5,10)             119.2887         estimate D2E/DX2                !
 ! A17   A(5,6,7)              113.6733         estimate D2E/DX2                !
 ! A18   A(5,6,9)              122.9814         estimate D2E/DX2                !
 ! A19   A(7,6,9)              123.3453         estimate D2E/DX2                !
 ! A20   A(6,7,8)              120.3793         estimate D2E/DX2                !
 ! A21   A(7,8,16)             111.0283         estimate D2E/DX2                !
 ! A22   A(7,8,17)             109.9859         estimate D2E/DX2                !
 ! A23   A(7,8,18)             111.0281         estimate D2E/DX2                !
 ! A24   A(16,8,17)            108.1803         estimate D2E/DX2                !
 ! A25   A(16,8,18)            108.3404         estimate D2E/DX2                !
 ! A26   A(17,8,18)            108.1804         estimate D2E/DX2                !
 ! A27   A(5,10,11)            117.9041         estimate D2E/DX2                !
 ! A28   A(2,11,10)            121.251          estimate D2E/DX2                !
 ! A29   A(2,11,19)            122.0692         estimate D2E/DX2                !
 ! A30   A(10,11,19)           116.6798         estimate D2E/DX2                !
 ! D1    D(12,1,2,3)            59.741          estimate D2E/DX2                !
 ! D2    D(12,1,2,11)         -120.2652         estimate D2E/DX2                !
 ! D3    D(13,1,2,3)           179.9881         estimate D2E/DX2                !
 ! D4    D(13,1,2,11)           -0.0181         estimate D2E/DX2                !
 ! D5    D(14,1,2,3)           -59.7569         estimate D2E/DX2                !
 ! D6    D(14,1,2,11)          120.2369         estimate D2E/DX2                !
 ! D7    D(1,2,3,4)            179.9964         estimate D2E/DX2                !
 ! D8    D(11,2,3,4)             0.0026         estimate D2E/DX2                !
 ! D9    D(1,2,11,10)         -179.9993         estimate D2E/DX2                !
 ! D10   D(1,2,11,19)            0.0068         estimate D2E/DX2                !
 ! D11   D(3,2,11,10)           -0.0058         estimate D2E/DX2                !
 ! D12   D(3,2,11,19)         -179.9997         estimate D2E/DX2                !
 ! D13   D(2,3,4,5)              0.0006         estimate D2E/DX2                !
 ! D14   D(2,3,4,15)           179.9974         estimate D2E/DX2                !
 ! D15   D(3,4,5,6)            179.9996         estimate D2E/DX2                !
 ! D16   D(3,4,5,10)            -0.0007         estimate D2E/DX2                !
 ! D17   D(15,4,5,6)             0.0029         estimate D2E/DX2                !
 ! D18   D(15,4,5,10)         -179.9974         estimate D2E/DX2                !
 ! D19   D(4,5,6,7)            179.9992         estimate D2E/DX2                !
 ! D20   D(4,5,6,9)             -0.0047         estimate D2E/DX2                !
 ! D21   D(10,5,6,7)            -0.0005         estimate D2E/DX2                !
 ! D22   D(10,5,6,9)           179.9956         estimate D2E/DX2                !
 ! D23   D(4,5,10,11)           -0.0024         estimate D2E/DX2                !
 ! D24   D(6,5,10,11)          179.9974         estimate D2E/DX2                !
 ! D25   D(5,6,7,8)            179.9986         estimate D2E/DX2                !
 ! D26   D(9,6,7,8)              0.0026         estimate D2E/DX2                !
 ! D27   D(6,7,8,16)           -60.3005         estimate D2E/DX2                !
 ! D28   D(6,7,8,17)           179.9964         estimate D2E/DX2                !
 ! D29   D(6,7,8,18)            60.2934         estimate D2E/DX2                !
 ! D30   D(5,10,11,2)            0.0055         estimate D2E/DX2                !
 ! D31   D(5,10,11,19)         179.9998         estimate D2E/DX2                !
 --------------------------------------------------------------------------------
 Trust Radius=3.00D-01 FncErr=1.00D-07 GrdErr=1.00D-06 EigMax=2.50D+02 EigMin=1.00D-04
 Number of steps in this run=     90 maximum allowed number of steps=    114.
 GradGradGradGradGradGradGradGradGradGradGradGradGradGradGradGradGradGrad

                          Input orientation:                          
 ---------------------------------------------------------------------
 Center     Atomic      Atomic             Coordinates (Angstroms)
 Number     Number       Type             X           Y           Z
 ---------------------------------------------------------------------
      1          6           0       -3.767400   -0.465700    0.427900
      2          6           0       -2.296700   -0.198900    0.182300
      3          7           0       -1.464100   -0.386700    1.239200
      4          6           0       -0.140700   -0.152000    1.036900
      5          6           0        0.357200    0.267300   -0.207600
      6          6           0        1.820700    0.516200   -0.393700
      7          8           0        2.150200    0.915600   -1.647700
      8          6           0        3.503300    1.191600   -1.981600
      9          8           0        2.647100    0.370800    0.510900
     10          7           0       -0.491000    0.452100   -1.261300
     11          6           0       -1.814400    0.217900   -1.061000
     12          1           0       -4.143100    0.186200    1.217200
     13          1           0       -4.364600   -0.291900   -0.467400
     14          1           0       -3.917100   -1.500000    0.739200
     15          1           0        0.513100   -0.304600    1.885100
     16          1           0        3.902700    1.997200   -1.363300
     17          1           0        3.574600    1.496800   -3.025500
     18          1           0        4.129100    0.308700   -1.841500
     19          1           0       -2.466900    0.370100   -1.907000
 ---------------------------------------------------------------------
                    Distance matrix (angstroms):
                    1          2          3          4          5
     1  C    0.000000
     2  C    1.514748   0.000000
     3  N    2.443285   1.358503   0.000000
     4  C    3.690832   2.319672   1.359190   0.000000
     5  C    4.237154   2.722600   2.416212   1.404456   0.000000
     6  C    5.732889   4.218546   3.777764   2.517975   1.496134
     7  O    6.421378   4.936186   4.805553   3.687149   2.389358
     8  C    7.836799   6.344758   6.126961   4.918876   3.728183
     9  O    6.469346   4.987353   4.243370   2.884757   2.402207
    10  N    3.798756   2.401736   2.811229   2.401951   1.365239
    11  C    2.549184   1.397187   2.403991   2.709111   2.333791
    12  H    1.090467   2.151398   2.739660   4.020708   4.721158
    13  H    1.090145   2.169555   3.366656   4.485958   4.761890
    14  H    1.090456   2.151440   2.739826   4.020812   4.721167
    15  H    4.524607   3.287199   2.081645   1.081751   2.175033
    16  H    8.252558   6.756056   6.423280   5.170020   4.110811
    17  H    8.347595   6.901996   6.864673   5.746746   4.450157
    18  H    8.252550   6.756059   6.423253   5.169973   4.110787
    19  H    2.800289   2.172074   3.387762   3.788185   3.297585
                    6          7          8          9         10
     6  C    0.000000
     7  O    1.356690   0.000000
     8  C    2.410132   1.420755   0.000000
     9  O    1.233847   2.281068   2.760317   0.000000
    10  N    2.469979   2.709257   4.125545   3.604854   0.000000
    11  C    3.707860   4.068053   5.483934   4.732783   1.358807
    12  H    6.186341   6.953079   8.349286   6.829330   4.421708
    13  H    6.238301   6.730066   8.148461   7.110568   4.023505
    14  H    6.186346   6.953024   8.349239   6.829402   4.421635
    15  H    2.752537   4.080400   5.111876   2.626508   3.388310
    16  H    2.732802   2.078942   1.091241   2.781067   4.658577
    17  H    3.311210   2.065198   1.089935   3.825475   4.553340
    18  H    2.732744   2.078926   1.091222   2.781001   4.658596
    19  H    4.549169   4.656438   6.026916   5.656787   2.080345
                   11         12         13         14         15
    11  C    0.000000
    12  H    3.257920   0.000000
    13  H    2.667541   1.765083   0.000000
    14  H    3.257798   1.767153   1.765119   0.000000
    15  H    3.790748   4.729395   5.415383   4.729560   0.000000
    16  H    5.995209   8.641389   8.625014   8.820441   5.228745
    17  H    5.876748   8.903992   8.530781   8.903895   6.060678
    18  H    5.995216   8.820428   8.625069   8.641339   5.228684
    19  H    1.079184   3.550224   2.472237   3.550032   4.869871
                   16         17         18         19
    16  H    0.000000
    17  H    1.766624   0.000000
    18  H    1.769453   1.766609   0.000000
    19  H    6.596580   6.246616   6.596611   0.000000
 Stoichiometry    C7H8N2O2
 Framework group  C1[X(C7H8N2O2)]
 Deg. of freedom    51
 Full point group                 C1      NOp   1
 Largest Abelian subgroup         C1      NOp   1
 Largest concise Abelian subgroup C1      NOp   1
                         Standard orientation:                         
 ---------------------------------------------------------------------
 Center     Atomic      Atomic             Coordinates (Angstroms)
 Number     Number       Type             X           Y           Z
 ---------------------------------------------------------------------
      1          6           0       -3.996047   -0.282712    0.000022
      2          6           0       -2.488546   -0.134726   -0.000035
      3          7           0       -2.006374    1.135329   -0.000001
      4          6           0       -0.655681    1.287062    0.000024
      5          6           0        0.215191    0.185209    0.000004
      6          6           0        1.697199    0.390315    0.000023
      7          8           0        2.407133   -0.765799    0.000017
      8          6           0        3.827590   -0.736702    0.000004
      9          8           0        2.220632    1.507632   -0.000028
     10          7           0       -0.283156   -1.085825   -0.000028
     11          6           0       -1.633243   -1.239527    0.000010
     12          1           0       -4.422563    0.193378   -0.883461
     13          1           0       -4.299255   -1.329842   -0.000220
     14          1           0       -4.422530    0.193033    0.883692
     15          1           0       -0.282717    2.302485    0.000008
     16          1           0        4.208734   -0.224138   -0.884764
     17          1           0        4.221017   -1.753153    0.000064
     18          1           0        4.208738   -0.224037    0.884689
     19          1           0       -2.005614   -2.252432   -0.000021
 ---------------------------------------------------------------------
 Rotational constants (GHZ):           3.4346875           0.5862673           0.5039350
 Standard basis: 6-31G(d,p) (6D, 7F)
 There are   205 symmetry adapted cartesian basis functions of A   symmetry.
 There are   205 symmetry adapted basis functions of A   symmetry.
   205 basis functions,   364 primitive gaussians,   205 cartesian basis functions
    40 alpha electrons       40 beta electrons
       nuclear repulsion energy       575.9648043562 Hartrees.
 NAtoms=   19 NActive=   19 NUniq=   19 SFac= 1.00D+00 NAtFMM=   60 NAOKFM=F Big=F
 Integral buffers will be    131072 words long.
 Raffenetti 2 integral format.
 Two-electron integral symmetry is turned on.
 Nuclear repulsion after empirical dispersion term =      575.9336262550 Hartrees.
 One-electron integrals computed using PRISM.
 NBasis=   205 RedAO= T EigKep=  1.22D-03  NBF=   205
 NBsUse=   205 1.00D-06 EigRej= -1.00D+00 NBFU=   205
 ExpMin= 1.61D-01 ExpMax= 5.48D+03 ExpMxC= 8.25D+02 IAcc=3 IRadAn=         5 AccDes= 0.00D+00
 Harris functional with IExCor=  402 and IRadAn=       5 diagonalized for initial guess.
 HarFok:  IExCor=  402 AccDes= 0.00D+00 IRadAn=         5 IDoV= 1 UseB2=F ITyADJ=14
 ICtDFT=  3500011 ScaDFX=  1.000000  1.000000  1.000000  1.000000
 FoFCou: FMM=F IPFlag=           0 FMFlag=      100000 FMFlg1=           0
         NFxFlg=           0 DoJE=T BraDBF=F KetDBF=T FulRan=T
         wScrn=  0.000000 ICntrl=       500 IOpCl=  0 I1Cent=   200000004 NGrid=           0
         NMat0=    1 NMatS0=      1 NMatT0=    0 NMatD0=    1 NMtDS0=    0 NMtDT0=    0
 Petite list used in FoFCou.
 Requested convergence on RMS density matrix=1.00D-08 within 128 cycles.
 Requested convergence on MAX density matrix=1.00D-06.
 Requested convergence on             energy=1.00D-06.
 No special actions if energy rises.
 Integral accuracy reduced to 1.0D-05 until final iterations.
 Initial convergence to 1.0D-05 achieved.  Increase integral accuracy.
 SCF Done:  E(RB3LYP) =  -531.550702344     A.U. after   15 cycles
            NFock= 15  Conv=0.58D-08     -V/T= 2.0099

 **********************************************************************

            Population analysis using the SCF Density.

 **********************************************************************

 Orbital symmetries:
       Occupied  (A) (A) (A) (A) (A) (A) (A) (A) (A) (A) (A) (A)
                 (A) (A) (A) (A) (A) (A) (A) (A) (A) (A) (A) (A)
                 (A) (A) (A) (A) (A) (A) (A) (A) (A) (A) (A) (A)
                 (A) (A) (A) (A)
       Virtual   (A) (A) (A) (A) (A) (A) (A) (A) (A) (A) (A) (A)
                 (A) (A) (A) (A) (A) (A) (A) (A) (A) (A) (A) (A)
                 (A) (A) (A) (A) (A) (A) (A) (A) (A) (A) (A) (A)
                 (A) (A) (A) (A) (A) (A) (A) (A) (A) (A) (A) (A)
                 (A) (A) (A) (A) (A) (A) (A) (A) (A) (A) (A) (A)
                 (A) (A) (A) (A) (A) (A) (A) (A) (A) (A) (A) (A)
                 (A) (A) (A) (A) (A) (A) (A) (A) (A) (A) (A) (A)
                 (A) (A) (A) (A) (A) (A) (A) (A) (A) (A) (A) (A)
                 (A) (A) (A) (A) (A) (A) (A) (A) (A) (A) (A) (A)
                 (A) (A) (A) (A) (A) (A) (A) (A) (A) (A) (A) (A)
                 (A) (A) (A) (A) (A) (A) (A) (A) (A) (A) (A) (A)
                 (A) (A) (A) (A) (A) (A) (A) (A) (A) (A) (A) (A)
                 (A) (A) (A) (A) (A) (A) (A) (A) (A) (A) (A) (A)
                 (A) (A) (A) (A) (A) (A) (A) (A) (A)
 The electronic state is 1-A.
 Alpha  occ. eigenvalues --  -19.19490 -19.14150 -14.36260 -14.35720 -10.32732
 Alpha  occ. eigenvalues --  -10.25452 -10.25246 -10.24641 -10.24340 -10.24229
 Alpha  occ. eigenvalues --  -10.19829  -1.09933  -1.01142  -0.97901  -0.90607
 Alpha  occ. eigenvalues --   -0.80829  -0.75254  -0.71796  -0.66783  -0.64386
 Alpha  occ. eigenvalues --   -0.58354  -0.53899  -0.52116  -0.48809  -0.48216
 Alpha  occ. eigenvalues --   -0.46677  -0.46455  -0.44941  -0.42533  -0.41620
 Alpha  occ. eigenvalues --   -0.40679  -0.39141  -0.38455  -0.35123  -0.32511
 Alpha  occ. eigenvalues --   -0.30802  -0.30068  -0.28362  -0.27598  -0.25386
 Alpha virt. eigenvalues --   -0.07416  -0.04759   0.03597   0.10396   0.11385
 Alpha virt. eigenvalues --    0.11770   0.12835   0.13014   0.14972   0.15982
 Alpha virt. eigenvalues --    0.16768   0.17337   0.18183   0.18860   0.21759
 Alpha virt. eigenvalues --    0.24653   0.28090   0.29808   0.32211   0.36957
 Alpha virt. eigenvalues --    0.38229   0.41250   0.44772   0.49227   0.50675
 Alpha virt. eigenvalues --    0.50929   0.51964   0.53488   0.54183   0.54431
 Alpha virt. eigenvalues --    0.57404   0.58598   0.59343   0.60852   0.61364
 Alpha virt. eigenvalues --    0.63761   0.63962   0.66298   0.67658   0.70880
 Alpha virt. eigenvalues --    0.71375   0.74053   0.76247   0.79726   0.80199
 Alpha virt. eigenvalues --    0.81036   0.81623   0.82945   0.84231   0.84900
 Alpha virt. eigenvalues --    0.85575   0.88932   0.89512   0.90044   0.90569
 Alpha virt. eigenvalues --    0.93112   0.96015   0.96580   0.97637   0.99866
 Alpha virt. eigenvalues --    1.02832   1.07782   1.08348   1.09840   1.11299
 Alpha virt. eigenvalues --    1.22124   1.22626   1.24166   1.26213   1.29933
 Alpha virt. eigenvalues --    1.30294   1.32067   1.34841   1.39470   1.42424
 Alpha virt. eigenvalues --    1.44622   1.45575   1.46700   1.48190   1.48298
 Alpha virt. eigenvalues --    1.57217   1.60963   1.64189   1.68200   1.70919
 Alpha virt. eigenvalues --    1.74461   1.74556   1.77353   1.79517   1.81435
 Alpha virt. eigenvalues --    1.83385   1.85323   1.86010   1.88292   1.91563
 Alpha virt. eigenvalues --    1.91685   1.94860   1.99086   1.99613   2.02123
 Alpha virt. eigenvalues --    2.02780   2.02956   2.04249   2.05144   2.05850
 Alpha virt. eigenvalues --    2.07801   2.08901   2.12795   2.13476   2.16832
 Alpha virt. eigenvalues --    2.18066   2.18545   2.28116   2.30176   2.31658
 Alpha virt. eigenvalues --    2.31736   2.33572   2.40831   2.43836   2.44286
 Alpha virt. eigenvalues --    2.47505   2.48733   2.52908   2.53282   2.55280
 Alpha virt. eigenvalues --    2.59714   2.61198   2.61385   2.63139   2.64222
 Alpha virt. eigenvalues --    2.66667   2.70106   2.71721   2.75689   2.77569
 Alpha virt. eigenvalues --    2.83706   2.85430   2.86138   2.87149   2.92562
 Alpha virt. eigenvalues --    2.94038   2.96542   3.06548   3.16011   3.17893
 Alpha virt. eigenvalues --    3.19402   3.21521   3.24460   3.41224   3.41736
 Alpha virt. eigenvalues --    3.42860   3.44640   3.44866   3.64045   3.91065
 Alpha virt. eigenvalues --    4.01785   4.07714   4.15274   4.31999   4.34458
 Alpha virt. eigenvalues --    4.39535   4.43148   4.51321   4.57193   4.64223
          Condensed to atoms (all electrons):
               1          2          3          4          5          6
     1  C    5.014514   0.359438  -0.081332   0.005215   0.000736   0.000015
     2  C    0.359438   4.745155   0.404741  -0.052509  -0.028449   0.000390
     3  N   -0.081332   0.404741   6.853308   0.414482  -0.026493   0.004388
     4  C    0.005215  -0.052509   0.414482   4.873829   0.419571  -0.055961
     5  C    0.000736  -0.028449  -0.026493   0.419571   5.026334   0.292004
     6  C    0.000015   0.000390   0.004388  -0.055961   0.292004   4.421711
     7  O   -0.000000  -0.000021  -0.000019   0.003758  -0.079807   0.262897
     8  C    0.000000   0.000001   0.000000  -0.000131   0.006960  -0.018971
     9  O    0.000000  -0.000002   0.000309   0.006147  -0.085952   0.544753
    10  N    0.004728  -0.028410  -0.034270  -0.061670   0.385721  -0.060807
    11  C   -0.060849   0.461364  -0.042337  -0.036991  -0.052443   0.004950
    12  H    0.374183  -0.023163  -0.000645   0.000084   0.000020  -0.000000
    13  H    0.372083  -0.030333   0.003988  -0.000203   0.000012  -0.000000
    14  H    0.374193  -0.023162  -0.000647   0.000084   0.000020  -0.000000
    15  H   -0.000146   0.005123  -0.045252   0.380428  -0.055465   0.000746
    16  H    0.000000  -0.000000   0.000000  -0.000001  -0.000299  -0.004859
    17  H   -0.000000   0.000000  -0.000000   0.000001   0.000069   0.003374
    18  H    0.000000  -0.000000   0.000000  -0.000001  -0.000299  -0.004861
    19  H   -0.000340  -0.058970   0.003909   0.000008   0.005383  -0.000013
               7          8          9         10         11         12
     1  C   -0.000000   0.000000   0.000000   0.004728  -0.060849   0.374183
     2  C   -0.000021   0.000001  -0.000002  -0.028410   0.461364  -0.023163
     3  N   -0.000019   0.000000   0.000309  -0.034270  -0.042337  -0.000645
     4  C    0.003758  -0.000131   0.006147  -0.061670  -0.036991   0.000084
     5  C   -0.079807   0.006960  -0.085952   0.385721  -0.052443   0.000020
     6  C    0.262897  -0.018971   0.544753  -0.060807   0.004950  -0.000000
     7  O    8.219809   0.221060  -0.085466   0.002873   0.000084   0.000000
     8  C    0.221060   4.709642   0.005081  -0.000298   0.000010  -0.000000
     9  O   -0.085466   0.005081   8.084490   0.002064  -0.000062   0.000000
    10  N    0.002873  -0.000298   0.002064   6.849828   0.431866  -0.000129
    11  C    0.000084   0.000010  -0.000062   0.431866   4.832851   0.001390
    12  H    0.000000  -0.000000   0.000000  -0.000129   0.001390   0.557205
    13  H    0.000000  -0.000000   0.000000   0.000138  -0.000030  -0.028313
    14  H    0.000000  -0.000000   0.000000  -0.000129   0.001388  -0.024219
    15  H    0.000143  -0.000006   0.009199   0.003826   0.000246  -0.000005
    16  H   -0.031749   0.382776   0.005280   0.000001   0.000001   0.000000
    17  H   -0.029231   0.391978   0.000310  -0.000013  -0.000001   0.000000
    18  H   -0.031748   0.382777   0.005280   0.000001   0.000001  -0.000000
    19  H    0.000002  -0.000000   0.000000  -0.049932   0.383987  -0.000073
              13         14         15         16         17         18
     1  C    0.372083   0.374193  -0.000146   0.000000  -0.000000   0.000000
     2  C   -0.030333  -0.023162   0.005123  -0.000000   0.000000  -0.000000
     3  N    0.003988  -0.000647  -0.045252   0.000000  -0.000000   0.000000
     4  C   -0.000203   0.000084   0.380428  -0.000001   0.000001  -0.000001
     5  C    0.000012   0.000020  -0.055465  -0.000299   0.000069  -0.000299
     6  C   -0.000000  -0.000000   0.000746  -0.004859   0.003374  -0.004861
     7  O    0.000000   0.000000   0.000143  -0.031749  -0.029231  -0.031748
     8  C   -0.000000  -0.000000  -0.000006   0.382776   0.391978   0.382777
     9  O    0.000000   0.000000   0.009199   0.005280   0.000310   0.005280
    10  N    0.000138  -0.000129   0.003826   0.000001  -0.000013   0.000001
    11  C   -0.000030   0.001388   0.000246   0.000001  -0.000001   0.000001
    12  H   -0.028313  -0.024219  -0.000005   0.000000   0.000000  -0.000000
    13  H    0.594384  -0.028310   0.000002   0.000000   0.000000   0.000000
    14  H   -0.028310   0.557190  -0.000005  -0.000000   0.000000   0.000000
    15  H    0.000002  -0.000005   0.560742  -0.000001  -0.000000  -0.000001
    16  H    0.000000  -0.000000  -0.000001   0.595048  -0.036464  -0.037730
    17  H    0.000000   0.000000  -0.000000  -0.036464   0.579264  -0.036463
    18  H    0.000000   0.000000  -0.000001  -0.037730  -0.036463   0.595043
    19  H    0.002917  -0.000073   0.000032   0.000000  -0.000000   0.000000
              19
     1  C   -0.000340
     2  C   -0.058970
     3  N    0.003909
     4  C    0.000008
     5  C    0.005383
     6  C   -0.000013
     7  O    0.000002
     8  C   -0.000000
     9  O    0.000000
    10  N   -0.049932
    11  C    0.383987
    12  H   -0.000073
    13  H    0.002917
    14  H   -0.000073
    15  H    0.000032
    16  H    0.000000
    17  H   -0.000000
    18  H    0.000000
    19  H    0.600741
 Mulliken charges:
               1
     1  C   -0.362438
     2  C    0.268807
     3  N   -0.454132
     4  C    0.103862
     5  C    0.192375
     6  C    0.610243
     7  O   -0.452586
     8  C   -0.080879
     9  O   -0.491431
    10  N   -0.445388
    11  C    0.074575
    12  H    0.143666
    13  H    0.113665
    14  H    0.143671
    15  H    0.140394
    16  H    0.127998
    17  H    0.127176
    18  H    0.128001
    19  H    0.112420
 Sum of Mulliken charges =  -0.00000
 Mulliken charges with hydrogens summed into heavy atoms:
               1
     1  C    0.038564
     2  C    0.268807
     3  N   -0.454132
     4  C    0.244256
     5  C    0.192375
     6  C    0.610243
     7  O   -0.452586
     8  C    0.302297
     9  O   -0.491431
    10  N   -0.445388
    11  C    0.186995
 Electronic spatial extent (au):  <R**2>=           2165.8040
 Charge=             -0.0000 electrons
 Dipole moment (field-independent basis, Debye):
    X=             -1.0344    Y=             -1.9651    Z=              0.0001  Tot=              2.2207
 Quadrupole moment (field-independent basis, Debye-Ang):
   XX=            -49.3517   YY=            -67.1934   ZZ=            -62.0731
   XY=             -0.4612   XZ=              0.0001   YZ=              0.0001
 Traceless Quadrupole moment (field-independent basis, Debye-Ang):
   XX=             10.1877   YY=             -7.6540   ZZ=             -2.5337
   XY=             -0.4612   XZ=              0.0001   YZ=              0.0001
 Octapole moment (field-independent basis, Debye-Ang**2):
  XXX=             33.7881  YYY=             -6.4218  ZZZ=              0.0003  XYY=             -1.9749
  XXY=            -36.0327  XXZ=              0.0009  XZZ=              7.2662  YZZ=              1.7808
  YYZ=             -0.0001  XYZ=             -0.0001
 Hexadecapole moment (field-independent basis, Debye-Ang**3):
 XXXX=          -1996.9798 YYYY=           -411.1377 ZZZZ=            -69.9750 XXXY=            -45.3344
 XXXZ=             -0.0009 YYYX=              4.9008 YYYZ=              0.0002 ZZZX=             -0.0023
 ZZZY=             -0.0002 XXYY=           -472.6705 XXZZ=           -385.4086 YYZZ=            -84.2662
 XXYZ=              0.0011 YYXZ=              0.0025 ZZXY=             -0.3810
 N-N= 5.759336262550D+02 E-N=-2.390471900976D+03  KE= 5.263383702725D+02
 Calling FoFJK, ICntrl=      2127 FMM=F ISym2X=0 I1Cent= 0 IOpClX= 0 NMat=1 NMatS=1 NMatT=0.
 ***** Axes restored to original set *****
 -------------------------------------------------------------------
 Center     Atomic                   Forces (Hartrees/Bohr)
 Number     Number              X              Y              Z
 -------------------------------------------------------------------
      1        6           0.006523871    0.002091135   -0.004222538
      2        6          -0.001833625   -0.004610282    0.015342227
      3        7           0.013820819    0.006019806   -0.014699276
      4        6          -0.020926346   -0.002007812   -0.002797438
      5        6          -0.023189325    0.001604904   -0.016647732
      6        6           0.032834270    0.001899054    0.008878961
      7        8          -0.020354179   -0.002878863    0.000518378
      8        6           0.012047688   -0.001138082    0.009752877
      9        8          -0.020388612    0.002753835   -0.019389996
     10        7          -0.005800595   -0.004223712    0.012136556
     11        6           0.036300436    0.003008219    0.006608067
     12        1          -0.000034822    0.000254175    0.002807413
     13        1           0.000063685    0.000656029   -0.002300249
     14        1           0.000224049   -0.001673663    0.002260495
     15        1           0.002782758    0.000166951    0.000718677
     16        1           0.000045612    0.000591544    0.003182730
     17        1          -0.009614428   -0.001034215   -0.000899135
     18        1           0.000415972   -0.002125446    0.002417560
     19        1          -0.002917227    0.000646421   -0.003667576
 -------------------------------------------------------------------
 Cartesian Forces:  Max     0.036300436 RMS     0.010593253

 GradGradGradGradGradGradGradGradGradGradGradGradGradGradGradGradGradGrad
 Berny optimization.
 FormGI is forming the generalized inverse of G from B-inverse, IUseBI=4.
 Internal  Forces:  Max     0.028196048 RMS     0.007919736
 Search for a local minimum.
 Step number   1 out of a maximum of   90
 All quantities printed in internal units (Hartrees-Bohrs-Radians)
 Mixed Optimization -- RFO/linear search
 Second derivative matrix not updated -- first step.
 ITU=  0
     Eigenvalues ---    0.00571   0.00817   0.01302   0.01417   0.01424
     Eigenvalues ---    0.01621   0.02078   0.02101   0.02157   0.02170
     Eigenvalues ---    0.02221   0.02265   0.07082   0.07255   0.10107
     Eigenvalues ---    0.10234   0.16000   0.16000   0.16000   0.16000
     Eigenvalues ---    0.16000   0.16000   0.16000   0.16000   0.22857
     Eigenvalues ---    0.23848   0.25000   0.25000   0.25000   0.25000
     Eigenvalues ---    0.25000   0.25000   0.30878   0.32786   0.34670
     Eigenvalues ---    0.34672   0.34759   0.34760   0.34796   0.34820
     Eigenvalues ---    0.35784   0.36093   0.42045   0.42347   0.45568
     Eigenvalues ---    0.48976   0.51405   0.52772   0.53151   0.53622
     Eigenvalues ---    0.89502
 RFO step:  Lambda=-1.21017531D-02 EMin= 5.70865931D-03
 Linear search not attempted -- first point.
 Iteration  1 RMS(Cart)=  0.06727579 RMS(Int)=  0.00137298
 Iteration  2 RMS(Cart)=  0.00270724 RMS(Int)=  0.00009072
 Iteration  3 RMS(Cart)=  0.00000066 RMS(Int)=  0.00009072
 Variable       Old X    -DE/DX   Delta X   Delta X   Delta X     New X
                                 (Linear)    (Quad)   (Total)
    R1        2.86246  -0.00705   0.00000  -0.02197  -0.02197   2.84049
    R2        2.06068   0.00220   0.00000   0.00610   0.00610   2.06679
    R3        2.06008   0.00196   0.00000   0.00544   0.00544   2.06552
    R4        2.06066   0.00220   0.00000   0.00612   0.00612   2.06678
    R5        2.56720  -0.01721   0.00000  -0.03092  -0.03094   2.53625
    R6        2.64030   0.00299   0.00000   0.00690   0.00686   2.64716
    R7        2.56850  -0.02491   0.00000  -0.04570  -0.04568   2.52282
    R8        2.65404  -0.00610   0.00000  -0.01381  -0.01376   2.64027
    R9        2.04421   0.00222   0.00000   0.00601   0.00601   2.05022
   R10        2.82728  -0.00578   0.00000  -0.01700  -0.01700   2.81028
   R11        2.57993  -0.02587   0.00000  -0.04940  -0.04938   2.53055
   R12        2.56377  -0.02002   0.00000  -0.03651  -0.03651   2.52726
   R13        2.33163  -0.02820   0.00000  -0.03108  -0.03108   2.30055
   R14        2.68484  -0.00136   0.00000  -0.00312  -0.00312   2.68172
   R15        2.06215   0.00226   0.00000   0.00629   0.00629   2.06844
   R16        2.05968  -0.00006   0.00000  -0.00016  -0.00016   2.05952
   R17        2.06211   0.00227   0.00000   0.00632   0.00632   2.06843
   R18        2.56777  -0.02666   0.00000  -0.04917  -0.04919   2.51858
   R19        2.03936   0.00473   0.00000   0.01268   0.01268   2.05204
    A1        1.92471  -0.00035   0.00000  -0.00346  -0.00348   1.92124
    A2        1.95050  -0.00130   0.00000  -0.00462  -0.00462   1.94588
    A3        1.92478  -0.00035   0.00000  -0.00352  -0.00354   1.92124
    A4        1.88641   0.00146   0.00000   0.01134   0.01134   1.89775
    A5        1.88925  -0.00085   0.00000  -0.01075  -0.01080   1.87845
    A6        1.88648   0.00146   0.00000   0.01129   0.01129   1.89777
    A7        2.03149   0.00167   0.00000   0.00547   0.00550   2.03699
    A8        2.13173   0.00073   0.00000   0.00189   0.00192   2.13366
    A9        2.11996  -0.00240   0.00000  -0.00737  -0.00743   2.11253
   A10        2.04550  -0.00512   0.00000  -0.01771  -0.01772   2.02778
   A11        2.12777   0.00173   0.00000   0.00610   0.00616   2.13393
   A12        2.03467   0.00100   0.00000   0.00782   0.00779   2.04246
   A13        2.12075  -0.00274   0.00000  -0.01392  -0.01395   2.10680
   A14        2.10211  -0.00843   0.00000  -0.03066  -0.03070   2.07142
   A15        2.09909   0.00858   0.00000   0.02973   0.02979   2.12888
   A16        2.08198  -0.00015   0.00000   0.00094   0.00090   2.08288
   A17        1.98397  -0.00347   0.00000  -0.01323  -0.01323   1.97075
   A18        2.14643  -0.00066   0.00000  -0.00253  -0.00253   2.14390
   A19        2.15278   0.00413   0.00000   0.01576   0.01576   2.16854
   A20        2.10102  -0.02599   0.00000  -0.09916  -0.09916   2.00186
   A21        1.93781   0.00049   0.00000   0.00373   0.00349   1.94130
   A22        1.91962  -0.01360   0.00000  -0.08070  -0.08107   1.83854
   A23        1.93781   0.00050   0.00000   0.00374   0.00350   1.94131
   A24        1.88810   0.00614   0.00000   0.03407   0.03370   1.92180
   A25        1.89090   0.00083   0.00000   0.00802   0.00788   1.89877
   A26        1.88810   0.00614   0.00000   0.03407   0.03370   1.92180
   A27        2.05781  -0.00991   0.00000  -0.04142  -0.04141   2.01640
   A28        2.11623   0.00711   0.00000   0.03067   0.03061   2.14684
   A29        2.13051  -0.00363   0.00000  -0.01577  -0.01574   2.11477
   A30        2.03645  -0.00348   0.00000  -0.01490  -0.01487   2.02157
    D1        1.04268  -0.00075   0.00000  -0.00894  -0.00892   1.03376
    D2       -2.09902  -0.00075   0.00000  -0.00884  -0.00882  -2.10785
    D3        3.14139   0.00000   0.00000  -0.00001  -0.00001   3.14138
    D4       -0.00032   0.00000   0.00000   0.00009   0.00009  -0.00023
    D5       -1.04295   0.00075   0.00000   0.00881   0.00879  -1.03416
    D6        2.09853   0.00075   0.00000   0.00891   0.00889   2.10742
    D7        3.14153   0.00000   0.00000   0.00005   0.00005   3.14158
    D8        0.00005  -0.00000   0.00000  -0.00005  -0.00005  -0.00000
    D9       -3.14158   0.00000   0.00000   0.00000   0.00000  -3.14158
   D10        0.00012  -0.00000   0.00000  -0.00010  -0.00009   0.00002
   D11       -0.00010   0.00000   0.00000   0.00011   0.00011   0.00001
   D12       -3.14159  -0.00000   0.00000   0.00001   0.00001  -3.14158
   D13        0.00001  -0.00000   0.00000  -0.00002  -0.00002  -0.00001
   D14        3.14155   0.00000   0.00000   0.00004   0.00004   3.14159
   D15        3.14159   0.00000   0.00000   0.00002   0.00002  -3.14158
   D16       -0.00001   0.00000   0.00000   0.00002   0.00002   0.00001
   D17        0.00005  -0.00000   0.00000  -0.00005  -0.00005   0.00000
   D18       -3.14155  -0.00000   0.00000  -0.00004  -0.00004  -3.14159
   D19        3.14158  -0.00000   0.00000  -0.00007  -0.00007   3.14151
   D20       -0.00008   0.00000   0.00000   0.00011   0.00011   0.00003
   D21       -0.00001  -0.00000   0.00000  -0.00008  -0.00008  -0.00009
   D22        3.14152   0.00000   0.00000   0.00010   0.00010  -3.14157
   D23       -0.00004   0.00000   0.00000   0.00003   0.00003  -0.00001
   D24        3.14155   0.00000   0.00000   0.00004   0.00004   3.14159
   D25        3.14157   0.00000   0.00000   0.00008   0.00008  -3.14153
   D26        0.00005  -0.00000   0.00000  -0.00010  -0.00010  -0.00005
   D27       -1.05244  -0.00086   0.00000  -0.00760  -0.00740  -1.05984
   D28        3.14153   0.00000   0.00000   0.00000   0.00000   3.14153
   D29        1.05232   0.00086   0.00000   0.00759   0.00740   1.05971
   D30        0.00010  -0.00000   0.00000  -0.00010  -0.00010  -0.00000
   D31        3.14159  -0.00000   0.00000  -0.00000  -0.00000   3.14158
         Item               Value     Threshold  Converged?
 Maximum Force            0.028196     0.000450     NO 
 RMS     Force            0.007920     0.000300     NO 
 Maximum Displacement     0.208475     0.001800     NO 
 RMS     Displacement     0.068349     0.001200     NO 
 Predicted change in Energy=-6.276070D-03
 GradGradGradGradGradGradGradGradGradGradGradGradGradGradGradGradGradGrad

                          Input orientation:                          
 ---------------------------------------------------------------------
 Center     Atomic      Atomic             Coordinates (Angstroms)
 Number     Number       Type             X           Y           Z
 ---------------------------------------------------------------------
      1          6           0       -3.719204   -0.463735    0.443684
      2          6           0       -2.262930   -0.195341    0.185602
      3          7           0       -1.424160   -0.375296    1.217778
      4          6           0       -0.133412   -0.133991    0.976917
      5          6           0        0.326597    0.282338   -0.274944
      6          6           0        1.782145    0.528466   -0.454870
      7          8           0        2.094506    0.921414   -1.694459
      8          6           0        3.475733    1.167090   -1.908255
      9          8           0        2.592107    0.382881    0.442252
     10          7           0       -0.502625    0.464541   -1.310516
     11          6           0       -1.790026    0.222387   -1.065058
     12          1           0       -4.084448    0.185339    1.244605
     13          1           0       -4.322906   -0.290990   -0.450970
     14          1           0       -3.858634   -1.499208    0.766988
     15          1           0        0.556810   -0.275187    1.801980
     16          1           0        3.842733    1.963336   -1.252980
     17          1           0        3.556101    1.473171   -2.951150
     18          1           0        4.070402    0.264838   -1.733926
     19          1           0       -2.466789    0.368646   -1.901577
 ---------------------------------------------------------------------
                    Distance matrix (angstroms):
                    1          2          3          4          5
     1  C    0.000000
     2  C    1.503122   0.000000
     3  N    2.423690   1.342127   0.000000
     4  C    3.640189   2.272618   1.335018   0.000000
     5  C    4.176309   2.673187   2.392875   1.397173   0.000000
     6  C    5.661865   4.158935   3.727591   2.481577   1.487136
     7  O    6.347403   4.875348   4.748009   3.635071   2.355619
     8  C    7.743276   6.258811   6.013318   4.800308   3.656166
     9  O    6.367842   4.896079   4.160129   2.825151   2.378448
    10  N    3.779590   2.402601   2.819011   2.393096   1.339110
    11  C    2.543382   1.400816   2.387975   2.653495   2.260081
    12  H    1.093698   2.141105   2.718853   3.972948   4.666449
    13  H    1.093024   2.158211   3.345826   4.428924   4.688023
    14  H    1.093695   2.141109   2.719017   3.973056   4.666443
    15  H    4.490525   3.251151   2.067742   1.084929   2.162740
    16  H    8.121098   6.633892   6.270088   5.018062   4.018149
    17  H    8.258727   6.817938   6.752762   5.623627   4.360030
    18  H    8.121008   6.633811   6.269971   5.017946   4.018086
    19  H    2.785975   2.171626   3.372077   3.739388   3.233634
                    6          7          8          9         10
     6  C    0.000000
     7  O    1.337369   0.000000
     8  C    2.321294   1.419103   0.000000
     9  O    1.217399   2.259017   2.630715   0.000000
    10  N    2.440572   2.664814   4.083895   3.557559   0.000000
    11  C    3.636815   3.996795   5.415871   4.636899   1.332776
    12  H    6.117423   6.881814   8.249890   6.727494   4.408634
    13  H    6.159803   6.648260   8.066501   7.004952   3.988006
    14  H    6.117417   6.881715   8.249788   6.727538   4.408530
    15  H    2.690850   4.002680   4.936205   2.534630   3.370048
    16  H    2.634739   2.082499   1.094569   2.633574   4.596937
    17  H    3.204809   2.004986   1.089850   3.692315   4.492468
    18  H    2.634692   2.082502   1.094568   2.633446   4.596926
    19  H    4.491319   4.599333   5.995925   5.575497   2.053410
                   11         12         13         14         15
    11  C    0.000000
    12  H    3.255808   0.000000
    13  H    2.656339   1.777281   0.000000
    14  H    3.255675   1.765448   1.777290   0.000000
    15  H    3.738331   4.697235   5.374724   4.697402   0.000000
    16  H    5.898660   8.499376   8.508987   8.682196   5.014085
    17  H    5.805418   8.811405   8.452332   8.811237   5.885978
    18  H    5.898627   8.682139   8.508968   8.499179   5.013939
    19  H    1.085894   3.542441   2.446334   3.542224   4.824210
                   16         17         18         19
    16  H    0.000000
    17  H    1.790586   0.000000
    18  H    1.779898   1.790588   0.000000
    19  H    6.540166   6.212631   6.540164   0.000000
 Stoichiometry    C7H8N2O2
 Framework group  C1[X(C7H8N2O2)]
 Deg. of freedom    51
 Full point group                 C1      NOp   1
 Largest Abelian subgroup         C1      NOp   1
 Largest concise Abelian subgroup C1      NOp   1
                         Standard orientation:                         
 ---------------------------------------------------------------------
 Center     Atomic      Atomic             Coordinates (Angstroms)
 Number     Number       Type             X           Y           Z
 ---------------------------------------------------------------------
      1          6           0       -3.953681   -0.243709    0.000055
      2          6           0       -2.456777   -0.107132    0.000007
      3          7           0       -1.964934    1.141626    0.000022
      4          6           0       -0.634377    1.250679   -0.000006
      5          6           0        0.205501    0.134123   -0.000040
      6          6           0        1.677184    0.347956   -0.000059
      7          8           0        2.369631   -0.796192    0.000011
      8          6           0        3.779655   -0.635925    0.000072
      9          8           0        2.183366    1.455133   -0.000020
     10          7           0       -0.275991   -1.115429   -0.000061
     11          6           0       -1.604734   -1.219026   -0.000037
     12          1           0       -4.375386    0.245543   -0.882539
     13          1           0       -4.260046   -1.292920   -0.000182
     14          1           0       -4.375302    0.245139    0.882909
     15          1           0       -0.222016    2.254187    0.000005
     16          1           0        4.117144   -0.095450   -0.889912
     17          1           0        4.184839   -1.647656    0.000186
     18          1           0        4.117054   -0.095281    0.889986
     19          1           0       -2.000414   -2.230264   -0.000060
 ---------------------------------------------------------------------
 Rotational constants (GHZ):           3.5722921           0.6027044           0.5190526
 Standard basis: 6-31G(d,p) (6D, 7F)
 There are   205 symmetry adapted cartesian basis functions of A   symmetry.
 There are   205 symmetry adapted basis functions of A   symmetry.
   205 basis functions,   364 primitive gaussians,   205 cartesian basis functions
    40 alpha electrons       40 beta electrons
       nuclear repulsion energy       583.4254444095 Hartrees.
 NAtoms=   19 NActive=   19 NUniq=   19 SFac= 1.00D+00 NAtFMM=   60 NAOKFM=F Big=F
 Integral buffers will be    131072 words long.
 Raffenetti 2 integral format.
 Two-electron integral symmetry is turned on.
 Nuclear repulsion after empirical dispersion term =      583.3938843677 Hartrees.
 One-electron integrals computed using PRISM.
 NBasis=   205 RedAO= T EigKep=  1.20D-03  NBF=   205
 NBsUse=   205 1.00D-06 EigRej= -1.00D+00 NBFU=   205
 Initial guess from the checkpoint file:  "pyrz3_conf-1.chk"
 B after Tr=    -0.000000    0.000000   -0.000000
         Rot=    1.000000    0.000001    0.000000    0.000466 Ang=   0.05 deg.
 ExpMin= 1.61D-01 ExpMax= 5.48D+03 ExpMxC= 8.25D+02 IAcc=3 IRadAn=         5 AccDes= 0.00D+00
 Harris functional with IExCor=  402 and IRadAn=       5 diagonalized for initial guess.
 HarFok:  IExCor=  402 AccDes= 0.00D+00 IRadAn=         5 IDoV= 1 UseB2=F ITyADJ=14
 ICtDFT=  3500011 ScaDFX=  1.000000  1.000000  1.000000  1.000000
 FoFCou: FMM=F IPFlag=           0 FMFlag=      100000 FMFlg1=           0
         NFxFlg=           0 DoJE=T BraDBF=F KetDBF=T FulRan=T
         wScrn=  0.000000 ICntrl=       500 IOpCl=  0 I1Cent=   200000004 NGrid=           0
         NMat0=    1 NMatS0=      1 NMatT0=    0 NMatD0=    1 NMtDS0=    0 NMtDT0=    0
 Petite list used in FoFCou.
 Requested convergence on RMS density matrix=1.00D-08 within 128 cycles.
 Requested convergence on MAX density matrix=1.00D-06.
 Requested convergence on             energy=1.00D-06.
 No special actions if energy rises.
 Integral accuracy reduced to 1.0D-05 until final iterations.
 Initial convergence to 1.0D-05 achieved.  Increase integral accuracy.
 SCF Done:  E(RB3LYP) =  -531.556331387     A.U. after   12 cycles
            NFock= 12  Conv=0.75D-08     -V/T= 2.0091
 Calling FoFJK, ICntrl=      2127 FMM=F ISym2X=0 I1Cent= 0 IOpClX= 0 NMat=1 NMatS=1 NMatT=0.
 ***** Axes restored to original set *****
 -------------------------------------------------------------------
 Center     Atomic                   Forces (Hartrees/Bohr)
 Number     Number              X              Y              Z
 -------------------------------------------------------------------
      1        6           0.000240783    0.000927737   -0.003140656
      2        6          -0.005481783   -0.001616315    0.003108708
      3        7           0.002628248    0.001146872   -0.002803942
      4        6          -0.001795789   -0.001561414    0.004659426
      5        6          -0.000531653    0.000503798   -0.002013690
      6        6           0.002847939   -0.000890501    0.004441405
      7        8          -0.006374029   -0.001009278    0.000561490
      8        6           0.010220161    0.002682786   -0.004632701
      9        8           0.000184976    0.000315203   -0.001005161
     10        7          -0.001946170   -0.001193639    0.003293198
     11        6           0.001966990    0.001438966   -0.004147407
     12        1          -0.000141644   -0.000359508    0.000564754
     13        1          -0.000113659   -0.000110500    0.000328845
     14        1          -0.000186787   -0.000033771    0.000657108
     15        1           0.001830057    0.000530553   -0.001006098
     16        1          -0.000636318   -0.001102088    0.000192289
     17        1           0.000703549    0.000108004   -0.000048092
     18        1          -0.000871599    0.000649894    0.000688659
     19        1          -0.002543272   -0.000426801    0.000301865
 -------------------------------------------------------------------
 Cartesian Forces:  Max     0.010220161 RMS     0.002518280

 GradGradGradGradGradGradGradGradGradGradGradGradGradGradGradGradGradGrad
 Berny optimization.
 Using GEDIIS/GDIIS optimizer.
 FormGI is forming the generalized inverse of G from B-inverse, IUseBI=4.
 Internal  Forces:  Max     0.010141914 RMS     0.001872910
 Search for a local minimum.
 Step number   2 out of a maximum of   90
 All quantities printed in internal units (Hartrees-Bohrs-Radians)
 Mixed Optimization -- RFO/linear search
 Update second derivatives using D2CorX and points    1    2
 DE= -5.63D-03 DEPred=-6.28D-03 R= 8.97D-01
 TightC=F SS=  1.41D+00  RLast= 1.93D-01 DXNew= 5.0454D-01 5.7925D-01
 Trust test= 8.97D-01 RLast= 1.93D-01 DXMaxT set to 5.05D-01
 ITU=  1  0
 Use linear search instead of GDIIS.
     Eigenvalues ---    0.00571   0.00817   0.01310   0.01417   0.01421
     Eigenvalues ---    0.01633   0.02077   0.02102   0.02157   0.02169
     Eigenvalues ---    0.02221   0.02265   0.07096   0.07305   0.10153
     Eigenvalues ---    0.10691   0.15430   0.16000   0.16000   0.16000
     Eigenvalues ---    0.16000   0.16000   0.16000   0.16483   0.22962
     Eigenvalues ---    0.23577   0.24313   0.25000   0.25000   0.25000
     Eigenvalues ---    0.25000   0.27321   0.30803   0.33511   0.34671
     Eigenvalues ---    0.34718   0.34759   0.34766   0.34818   0.34835
     Eigenvalues ---    0.35762   0.35992   0.41369   0.42644   0.45539
     Eigenvalues ---    0.49092   0.51350   0.52878   0.53161   0.58055
     Eigenvalues ---    0.88737
 RFO step:  Lambda=-6.62928217D-04 EMin= 5.70865931D-03
 Quartic linear search produced a step of -0.08631.
 Iteration  1 RMS(Cart)=  0.01439752 RMS(Int)=  0.00004496
 Iteration  2 RMS(Cart)=  0.00004949 RMS(Int)=  0.00001412
 Iteration  3 RMS(Cart)=  0.00000000 RMS(Int)=  0.00001412
 Variable       Old X    -DE/DX   Delta X   Delta X   Delta X     New X
                                 (Linear)    (Quad)   (Total)
    R1        2.84049  -0.00015   0.00190  -0.00380  -0.00190   2.83859
    R2        2.06679   0.00025  -0.00053   0.00157   0.00104   2.06783
    R3        2.06552  -0.00022  -0.00047   0.00023  -0.00023   2.06528
    R4        2.06678   0.00025  -0.00053   0.00158   0.00105   2.06784
    R5        2.53625   0.00233   0.00267  -0.00055   0.00213   2.53838
    R6        2.64716   0.00171  -0.00059   0.00446   0.00387   2.65103
    R7        2.52282   0.00103   0.00394  -0.00497  -0.00103   2.52179
    R8        2.64027   0.00173   0.00119   0.00142   0.00261   2.64288
    R9        2.05022   0.00033  -0.00052   0.00175   0.00123   2.05145
   R10        2.81028   0.00605   0.00147   0.01424   0.01571   2.82599
   R11        2.53055   0.00185   0.00426  -0.00407   0.00019   2.53074
   R12        2.52726   0.00410   0.00315   0.00160   0.00475   2.53201
   R13        2.30055  -0.00066   0.00268  -0.00517  -0.00248   2.29807
   R14        2.68172   0.01014   0.00027   0.02138   0.02165   2.70337
   R15        2.06844  -0.00090  -0.00054  -0.00142  -0.00196   2.06648
   R16        2.05952   0.00013   0.00001   0.00031   0.00033   2.05984
   R17        2.06843  -0.00090  -0.00055  -0.00141  -0.00196   2.06648
   R18        2.51858   0.00136   0.00425  -0.00490  -0.00065   2.51793
   R19        2.05204   0.00130  -0.00109   0.00518   0.00409   2.05613
    A1        1.92124   0.00011   0.00030  -0.00074  -0.00045   1.92079
    A2        1.94588   0.00053   0.00040   0.00385   0.00424   1.95012
    A3        1.92124   0.00011   0.00031  -0.00076  -0.00046   1.92079
    A4        1.89775  -0.00006  -0.00098   0.00302   0.00204   1.89979
    A5        1.87845  -0.00066   0.00093  -0.00873  -0.00780   1.87065
    A6        1.89777  -0.00007  -0.00097   0.00299   0.00201   1.89977
    A7        2.03699   0.00318  -0.00048   0.01232   0.01185   2.04884
    A8        2.13366  -0.00067  -0.00017  -0.00226  -0.00243   2.13123
    A9        2.11253  -0.00252   0.00064  -0.01006  -0.00941   2.10312
   A10        2.02778   0.00352   0.00153   0.01033   0.01186   2.03964
   A11        2.13393  -0.00096  -0.00053  -0.00294  -0.00348   2.13045
   A12        2.04246   0.00266  -0.00067   0.01565   0.01499   2.05744
   A13        2.10680  -0.00170   0.00120  -0.01271  -0.01150   2.09529
   A14        2.07142  -0.00042   0.00265  -0.00628  -0.00362   2.06780
   A15        2.12888  -0.00255  -0.00257  -0.00466  -0.00724   2.12165
   A16        2.08288   0.00296  -0.00008   0.01093   0.01086   2.09374
   A17        1.97075   0.00107   0.00114   0.00186   0.00300   1.97375
   A18        2.14390   0.00044   0.00022   0.00119   0.00141   2.14531
   A19        2.16854  -0.00151  -0.00136  -0.00306  -0.00442   2.16412
   A20        2.00186   0.00288   0.00856  -0.00486   0.00370   2.00556
   A21        1.94130  -0.00111  -0.00030  -0.00682  -0.00714   1.93417
   A22        1.83854   0.00181   0.00700  -0.00102   0.00601   1.84456
   A23        1.94131  -0.00111  -0.00030  -0.00683  -0.00714   1.93416
   A24        1.92180   0.00036  -0.00291   0.00945   0.00657   1.92837
   A25        1.89877  -0.00025  -0.00068  -0.00367  -0.00440   1.89437
   A26        1.92180   0.00036  -0.00291   0.00945   0.00657   1.92838
   A27        2.01640   0.00366   0.00357   0.00709   0.01066   2.02707
   A28        2.14684  -0.00116  -0.00264   0.00025  -0.00239   2.14445
   A29        2.11477  -0.00173   0.00136  -0.01332  -0.01197   2.10280
   A30        2.02157   0.00289   0.00128   0.01308   0.01436   2.03593
    D1        1.03376  -0.00034   0.00077  -0.00584  -0.00507   1.02869
    D2       -2.10785  -0.00034   0.00076  -0.00580  -0.00504  -2.11289
    D3        3.14138   0.00000   0.00000   0.00001   0.00001   3.14139
    D4       -0.00023   0.00000  -0.00001   0.00005   0.00004  -0.00018
    D5       -1.03416   0.00034  -0.00076   0.00581   0.00505  -1.02911
    D6        2.10742   0.00034  -0.00077   0.00585   0.00508   2.11250
    D7        3.14158  -0.00000  -0.00000   0.00002   0.00001  -3.14159
    D8       -0.00000  -0.00000   0.00000  -0.00002  -0.00002  -0.00002
    D9       -3.14158  -0.00000  -0.00000  -0.00001  -0.00001  -3.14158
   D10        0.00002  -0.00000   0.00001  -0.00004  -0.00003  -0.00001
   D11        0.00001  -0.00000  -0.00001   0.00003   0.00002   0.00003
   D12       -3.14158  -0.00000  -0.00000  -0.00000  -0.00000  -3.14158
   D13       -0.00001   0.00000   0.00000   0.00000   0.00000  -0.00000
   D14        3.14159   0.00000  -0.00000   0.00002   0.00001  -3.14158
   D15       -3.14158   0.00000  -0.00000   0.00001   0.00001  -3.14158
   D16        0.00001  -0.00000  -0.00000   0.00000   0.00000   0.00001
   D17        0.00000   0.00000   0.00000  -0.00001  -0.00000   0.00000
   D18       -3.14159   0.00000   0.00000  -0.00001  -0.00001   3.14159
   D19        3.14151   0.00000   0.00001   0.00019   0.00020  -3.14148
   D20        0.00003  -0.00000  -0.00001  -0.00019  -0.00020  -0.00017
   D21       -0.00009   0.00000   0.00001   0.00020   0.00020   0.00012
   D22       -3.14157  -0.00000  -0.00001  -0.00019  -0.00019   3.14142
   D23       -0.00001  -0.00000  -0.00000   0.00001   0.00001  -0.00000
   D24        3.14159  -0.00000  -0.00000   0.00000   0.00000   3.14159
   D25       -3.14153  -0.00000  -0.00001  -0.00019  -0.00020   3.14145
   D26       -0.00005   0.00000   0.00001   0.00019   0.00020   0.00015
   D27       -1.05984   0.00093   0.00064   0.00708   0.00765  -1.05219
   D28        3.14153  -0.00000  -0.00000   0.00001   0.00001   3.14154
   D29        1.05971  -0.00093  -0.00064  -0.00706  -0.00764   1.05208
   D30       -0.00000   0.00000   0.00001  -0.00003  -0.00002  -0.00002
   D31        3.14158   0.00000   0.00000   0.00001   0.00001   3.14159
         Item               Value     Threshold  Converged?
 Maximum Force            0.010142     0.000450     NO 
 RMS     Force            0.001873     0.000300     NO 
 Maximum Displacement     0.056809     0.001800     NO 
 RMS     Displacement     0.014389     0.001200     NO 
 Predicted change in Energy=-3.852304D-04
 GradGradGradGradGradGradGradGradGradGradGradGradGradGradGradGradGradGrad

                          Input orientation:                          
 ---------------------------------------------------------------------
 Center     Atomic      Atomic             Coordinates (Angstroms)
 Number     Number       Type             X           Y           Z
 ---------------------------------------------------------------------
      1          6           0       -3.730980   -0.465708    0.445440
      2          6           0       -2.275264   -0.198048    0.189311
      3          7           0       -1.424902   -0.374314    1.214077
      4          6           0       -0.134295   -0.133589    0.974912
      5          6           0        0.323304    0.282971   -0.279294
      6          6           0        1.787338    0.529859   -0.458216
      7          8           0        2.105983    0.924013   -1.698538
      8          6           0        3.498535    1.171594   -1.913025
      9          8           0        2.596389    0.384636    0.438004
     10          7           0       -0.515728    0.461788   -1.307660
     11          6           0       -1.803176    0.220165   -1.063788
     12          1           0       -4.095387    0.180340    1.249935
     13          1           0       -4.337280   -0.293858   -0.447476
     14          1           0       -3.870189   -1.500283    0.773557
     15          1           0        0.567591   -0.270837    1.791612
     16          1           0        3.859430    1.962336   -1.249478
     17          1           0        3.586163    1.478577   -2.955249
     18          1           0        4.086714    0.268196   -1.729365
     19          1           0       -2.492246    0.362862   -1.893659
 ---------------------------------------------------------------------
                    Distance matrix (angstroms):
                    1          2          3          4          5
     1  C    0.000000
     2  C    1.502116   0.000000
     3  N    2.432519   1.343253   0.000000
     4  C    3.650587   2.281463   1.334473   0.000000
     5  C    4.186045   2.683938   2.391318   1.398553   0.000000
     6  C    5.679752   4.177784   3.732638   2.487306   1.495448
     7  O    6.371663   4.900849   4.757744   3.644818   2.367094
     8  C    7.778753   6.295434   6.033973   4.820906   3.679785
     9  O    6.384256   4.912674   4.165222   2.830805   2.385742
    10  N    3.777757   2.402555   2.807992   2.389581   1.339212
    11  C    2.542561   1.402864   2.384358   2.658308   2.267442
    12  H    1.094250   2.140315   2.727712   3.983019   4.676954
    13  H    1.092900   2.160228   3.353978   4.440040   4.699155
    14  H    1.094252   2.140315   2.727873   3.983128   4.676952
    15  H    4.508643   3.264122   2.077086   1.085578   2.157552
    16  H    8.147543   6.661219   6.281178   5.028981   4.033077
    17  H    8.299730   6.859713   6.776966   5.646862   4.385939
    18  H    8.147682   6.661341   6.281288   5.029061   4.033135
    19  H    2.773513   2.168056   3.367592   3.746344   3.246518
                    6          7          8          9         10
     6  C    0.000000
     7  O    1.339884   0.000000
     8  C    2.335912   1.430560   0.000000
     9  O    1.216085   2.257484   2.638277   0.000000
    10  N    2.455667   2.690689   4.121237   3.569112   0.000000
    11  C    3.654370   4.022416   5.452940   4.651730   1.332433
    12  H    6.135666   6.906774   8.285804   6.743947   4.408454
    13  H    6.179771   6.675627   8.105268   7.022833   3.989383
    14  H    6.135663   6.906743   8.285816   6.744045   4.408355
    15  H    2.681535   3.996932   4.939168   2.525455   3.363898
    16  H    2.640388   2.086707   1.093532   2.632870   4.625693
    17  H    3.220405   2.019356   1.090022   3.700071   4.535849
    18  H    2.640344   2.086706   1.093533   2.632891   4.625774
    19  H    4.516993   4.636450   6.045153   5.597439   2.063929
                   11         12         13         14         15
    11  C    0.000000
    12  H    3.257166   0.000000
    13  H    2.658146   1.778927   0.000000
    14  H    3.257042   1.761291   1.778920   0.000000
    15  H    3.743652   4.715966   5.391827   4.716129   0.000000
    16  H    5.927456   8.526528   8.539301   8.708009   5.007145
    17  H    5.848607   8.852977   8.497729   8.852954   5.891089
    18  H    5.927571   8.708083   8.539485   8.526690   5.007201
    19  H    1.088056   3.533491   2.434518   3.533282   4.831708
                   16         17         18         19
    16  H    0.000000
    17  H    1.793977   0.000000
    18  H    1.775404   1.793981   0.000000
    19  H    6.581570   6.270474   6.581692   0.000000
 Stoichiometry    C7H8N2O2
 Framework group  C1[X(C7H8N2O2)]
 Deg. of freedom    51
 Full point group                 C1      NOp   1
 Largest Abelian subgroup         C1      NOp   1
 Largest concise Abelian subgroup C1      NOp   1
                         Standard orientation:                         
 ---------------------------------------------------------------------
 Center     Atomic      Atomic             Coordinates (Angstroms)
 Number     Number       Type             X           Y           Z
 ---------------------------------------------------------------------
      1          6           0       -3.965748   -0.240798   -0.000061
      2          6           0       -2.469917   -0.103535   -0.000015
      3          7           0       -1.963538    1.140615   -0.000020
      4          6           0       -0.633583    1.250330    0.000021
      5          6           0        0.203825    0.130196    0.000069
      6          6           0        1.683587    0.346219    0.000130
      7          8           0        2.381547   -0.797521    0.000030
      8          6           0        3.802959   -0.635997   -0.000100
      9          8           0        2.190042    1.451826   -0.000036
     10          7           0       -0.290408   -1.114481    0.000062
     11          6           0       -1.618759   -1.218684    0.000009
     12          1           0       -4.387821    0.253025   -0.880615
     13          1           0       -4.275982   -1.288741   -0.000258
     14          1           0       -4.387842    0.252687    0.880676
     15          1           0       -0.206505    2.248370    0.000028
     16          1           0        4.131854   -0.088683   -0.887843
     17          1           0        4.214257   -1.645444   -0.000116
     18          1           0        4.132011   -0.088642    0.887561
     19          1           0       -2.029253   -2.226336    0.000002
 ---------------------------------------------------------------------
 Rotational constants (GHZ):           3.5805332           0.5975853           0.5154063
 Standard basis: 6-31G(d,p) (6D, 7F)
 There are   205 symmetry adapted cartesian basis functions of A   symmetry.
 There are   205 symmetry adapted basis functions of A   symmetry.
   205 basis functions,   364 primitive gaussians,   205 cartesian basis functions
    40 alpha electrons       40 beta electrons
       nuclear repulsion energy       582.1363521139 Hartrees.
 NAtoms=   19 NActive=   19 NUniq=   19 SFac= 1.00D+00 NAtFMM=   60 NAOKFM=F Big=F
 Integral buffers will be    131072 words long.
 Raffenetti 2 integral format.
 Two-electron integral symmetry is turned on.
 Nuclear repulsion after empirical dispersion term =      582.1048515756 Hartrees.
 One-electron integrals computed using PRISM.
 NBasis=   205 RedAO= T EigKep=  1.19D-03  NBF=   205
 NBsUse=   205 1.00D-06 EigRej= -1.00D+00 NBFU=   205
 Initial guess from the checkpoint file:  "pyrz3_conf-1.chk"
 B after Tr=     0.000000    0.000000   -0.000000
         Rot=    1.000000   -0.000001   -0.000000    0.000444 Ang=  -0.05 deg.
 ExpMin= 1.61D-01 ExpMax= 5.48D+03 ExpMxC= 8.25D+02 IAcc=3 IRadAn=         5 AccDes= 0.00D+00
 Harris functional with IExCor=  402 and IRadAn=       5 diagonalized for initial guess.
 HarFok:  IExCor=  402 AccDes= 0.00D+00 IRadAn=         5 IDoV= 1 UseB2=F ITyADJ=14
 ICtDFT=  3500011 ScaDFX=  1.000000  1.000000  1.000000  1.000000
 FoFCou: FMM=F IPFlag=           0 FMFlag=      100000 FMFlg1=           0
         NFxFlg=           0 DoJE=T BraDBF=F KetDBF=T FulRan=T
         wScrn=  0.000000 ICntrl=       500 IOpCl=  0 I1Cent=   200000004 NGrid=           0
         NMat0=    1 NMatS0=      1 NMatT0=    0 NMatD0=    1 NMtDS0=    0 NMtDT0=    0
 Petite list used in FoFCou.
 Requested convergence on RMS density matrix=1.00D-08 within 128 cycles.
 Requested convergence on MAX density matrix=1.00D-06.
 Requested convergence on             energy=1.00D-06.
 No special actions if energy rises.
 Integral accuracy reduced to 1.0D-05 until final iterations.
 Initial convergence to 1.0D-05 achieved.  Increase integral accuracy.
 SCF Done:  E(RB3LYP) =  -531.556762651     A.U. after   11 cycles
            NFock= 11  Conv=0.55D-08     -V/T= 2.0092
 Calling FoFJK, ICntrl=      2127 FMM=F ISym2X=0 I1Cent= 0 IOpClX= 0 NMat=1 NMatS=1 NMatT=0.
 ***** Axes restored to original set *****
 -------------------------------------------------------------------
 Center     Atomic                   Forces (Hartrees/Bohr)
 Number     Number              X              Y              Z
 -------------------------------------------------------------------
      1        6           0.000378867    0.000184294   -0.000473833
      2        6          -0.000506899   -0.000347430    0.001001685
      3        7           0.000346145    0.000091474   -0.000160775
      4        6          -0.000930979   -0.000544274    0.001473753
      5        6           0.000070734    0.000385907   -0.001369330
      6        6           0.000712839    0.000037896    0.000345650
      7        8          -0.003012685   -0.000270426   -0.000514462
      8        6           0.003930438    0.000822139   -0.001043102
      9        8           0.000098865   -0.000258493    0.000903840
     10        7          -0.000238182   -0.000188474    0.000548111
     11        6           0.000548019    0.000567795   -0.001748544
     12        1          -0.000159166   -0.000115058    0.000085329
     13        1           0.000270657   -0.000040795    0.000270718
     14        1          -0.000176902    0.000011013    0.000121449
     15        1           0.000133787    0.000058277   -0.000139296
     16        1          -0.000487986   -0.000294638   -0.000054589
     17        1          -0.000271580   -0.000156325    0.000421894
     18        1          -0.000547157    0.000151850    0.000070689
     19        1          -0.000158814   -0.000094732    0.000260813
 -------------------------------------------------------------------
 Cartesian Forces:  Max     0.003930438 RMS     0.000846431

 GradGradGradGradGradGradGradGradGradGradGradGradGradGradGradGradGradGrad
 Berny optimization.
 Using GEDIIS/GDIIS optimizer.
 FormGI is forming the generalized inverse of G from B-inverse, IUseBI=4.
 Internal  Forces:  Max     0.002735321 RMS     0.000454925
 Search for a local minimum.
 Step number   3 out of a maximum of   90
 All quantities printed in internal units (Hartrees-Bohrs-Radians)
 Mixed Optimization -- En-DIIS/RFO-DIIS
 Update second derivatives using D2CorX and points    1    2    3
 DE= -4.31D-04 DEPred=-3.85D-04 R= 1.12D+00
 TightC=F SS=  1.41D+00  RLast= 5.29D-02 DXNew= 8.4853D-01 1.5862D-01
 Trust test= 1.12D+00 RLast= 5.29D-02 DXMaxT set to 5.05D-01
 ITU=  1  1  0
 Use linear search instead of GDIIS.
     Eigenvalues ---    0.00571   0.00817   0.01308   0.01414   0.01417
     Eigenvalues ---    0.01629   0.02078   0.02103   0.02158   0.02169
     Eigenvalues ---    0.02221   0.02265   0.07050   0.07295   0.10140
     Eigenvalues ---    0.10669   0.13934   0.16000   0.16000   0.16000
     Eigenvalues ---    0.16000   0.16000   0.16083   0.16621   0.22875
     Eigenvalues ---    0.23420   0.23999   0.25000   0.25000   0.25000
     Eigenvalues ---    0.25321   0.28588   0.30562   0.33835   0.34606
     Eigenvalues ---    0.34671   0.34759   0.34760   0.34804   0.35242
     Eigenvalues ---    0.35765   0.36069   0.37938   0.41959   0.45666
     Eigenvalues ---    0.49044   0.51379   0.52842   0.53201   0.57528
     Eigenvalues ---    0.89358
 RFO step:  Lambda=-4.53912832D-05 EMin= 5.70865918D-03
 Quartic linear search produced a step of  0.15522.
 Iteration  1 RMS(Cart)=  0.00233968 RMS(Int)=  0.00000555
 Iteration  2 RMS(Cart)=  0.00000635 RMS(Int)=  0.00000387
 Iteration  3 RMS(Cart)=  0.00000000 RMS(Int)=  0.00000387
 Variable       Old X    -DE/DX   Delta X   Delta X   Delta X     New X
                                 (Linear)    (Quad)   (Total)
    R1        2.83859  -0.00031  -0.00030  -0.00132  -0.00161   2.83697
    R2        2.06783   0.00005   0.00016   0.00015   0.00032   2.06815
    R3        2.06528  -0.00038  -0.00004  -0.00117  -0.00121   2.06407
    R4        2.06784   0.00005   0.00016   0.00016   0.00032   2.06815
    R5        2.53838   0.00005   0.00033  -0.00051  -0.00018   2.53820
    R6        2.65103   0.00111   0.00060   0.00257   0.00317   2.65420
    R7        2.52179  -0.00039  -0.00016  -0.00140  -0.00156   2.52023
    R8        2.64288   0.00126   0.00040   0.00285   0.00325   2.64613
    R9        2.05145  -0.00003   0.00019  -0.00011   0.00008   2.05153
   R10        2.82599   0.00040   0.00244  -0.00021   0.00223   2.82821
   R11        2.53074  -0.00007   0.00003  -0.00086  -0.00083   2.52991
   R12        2.53201   0.00102   0.00074   0.00129   0.00203   2.53404
   R13        2.29807   0.00076  -0.00039   0.00081   0.00042   2.29849
   R14        2.70337   0.00274   0.00336   0.00556   0.00892   2.71228
   R15        2.06648  -0.00041  -0.00030  -0.00111  -0.00141   2.06506
   R16        2.05984  -0.00047   0.00005  -0.00161  -0.00156   2.05829
   R17        2.06648  -0.00041  -0.00030  -0.00111  -0.00141   2.06506
   R18        2.51793  -0.00030  -0.00010  -0.00126  -0.00136   2.51657
   R19        2.05613  -0.00011   0.00063  -0.00055   0.00009   2.05622
    A1        1.92079   0.00024  -0.00007   0.00171   0.00164   1.92243
    A2        1.95012  -0.00018   0.00066  -0.00172  -0.00107   1.94906
    A3        1.92079   0.00024  -0.00007   0.00172   0.00165   1.92244
    A4        1.89979  -0.00003   0.00032  -0.00015   0.00017   1.89995
    A5        1.87065  -0.00025  -0.00121  -0.00144  -0.00265   1.86800
    A6        1.89977  -0.00003   0.00031  -0.00015   0.00016   1.89994
    A7        2.04884   0.00004   0.00184  -0.00080   0.00104   2.04988
    A8        2.13123  -0.00021  -0.00038  -0.00078  -0.00116   2.13007
    A9        2.10312   0.00017  -0.00146   0.00158   0.00012   2.10324
   A10        2.03964   0.00003   0.00184  -0.00112   0.00072   2.04036
   A11        2.13045  -0.00010  -0.00054  -0.00015  -0.00069   2.12976
   A12        2.05744   0.00026   0.00233   0.00059   0.00291   2.06036
   A13        2.09529  -0.00015  -0.00179  -0.00043  -0.00222   2.09307
   A14        2.06780   0.00003  -0.00056   0.00000  -0.00056   2.06724
   A15        2.12165  -0.00004  -0.00112   0.00091  -0.00021   2.12143
   A16        2.09374   0.00001   0.00169  -0.00091   0.00077   2.09452
   A17        1.97375  -0.00079   0.00047  -0.00413  -0.00367   1.97008
   A18        2.14531  -0.00025   0.00022  -0.00132  -0.00110   2.14420
   A19        2.16412   0.00103  -0.00069   0.00546   0.00477   2.16890
   A20        2.00556   0.00016   0.00057  -0.00105  -0.00047   2.00509
   A21        1.93417  -0.00047  -0.00111  -0.00293  -0.00405   1.93011
   A22        1.84456  -0.00013   0.00093  -0.00251  -0.00158   1.84298
   A23        1.93416  -0.00047  -0.00111  -0.00292  -0.00404   1.93012
   A24        1.92837   0.00036   0.00102   0.00280   0.00382   1.93219
   A25        1.89437   0.00036  -0.00068   0.00266   0.00195   1.89632
   A26        1.92838   0.00035   0.00102   0.00280   0.00381   1.93219
   A27        2.02707   0.00024   0.00165  -0.00038   0.00127   2.02834
   A28        2.14445  -0.00030  -0.00037  -0.00083  -0.00120   2.14325
   A29        2.10280  -0.00016  -0.00186  -0.00069  -0.00255   2.10026
   A30        2.03593   0.00046   0.00223   0.00152   0.00375   2.03968
    D1        1.02869  -0.00001  -0.00079   0.00021  -0.00058   1.02811
    D2       -2.11289  -0.00001  -0.00078   0.00015  -0.00063  -2.11352
    D3        3.14139   0.00000   0.00000   0.00005   0.00005   3.14144
    D4       -0.00018  -0.00000   0.00001  -0.00001  -0.00001  -0.00019
    D5       -1.02911   0.00001   0.00078  -0.00011   0.00067  -1.02844
    D6        2.11250   0.00001   0.00079  -0.00017   0.00062   2.11312
    D7       -3.14159  -0.00000   0.00000  -0.00004  -0.00003   3.14156
    D8       -0.00002   0.00000  -0.00000   0.00003   0.00002   0.00001
    D9       -3.14158   0.00000  -0.00000   0.00003   0.00003  -3.14155
   D10       -0.00001   0.00000  -0.00000   0.00005   0.00004   0.00004
   D11        0.00003  -0.00000   0.00000  -0.00003  -0.00003  -0.00000
   D12       -3.14158  -0.00000  -0.00000  -0.00002  -0.00002   3.14159
   D13       -0.00000   0.00000   0.00000   0.00001   0.00001   0.00001
   D14       -3.14158  -0.00000   0.00000  -0.00006  -0.00006   3.14155
   D15       -3.14158  -0.00000   0.00000  -0.00007  -0.00007   3.14154
   D16        0.00001  -0.00000   0.00000  -0.00004  -0.00004  -0.00002
   D17        0.00000   0.00000  -0.00000  -0.00001  -0.00001  -0.00001
   D18        3.14159   0.00000  -0.00000   0.00003   0.00003  -3.14157
   D19       -3.14148  -0.00001   0.00003  -0.00075  -0.00072   3.14099
   D20       -0.00017   0.00001  -0.00003   0.00092   0.00088   0.00071
   D21        0.00012  -0.00001   0.00003  -0.00078  -0.00075  -0.00063
[...]
   XZ=     4.4611   YZ=    -2.5612   ZZ=    29.2402
   Eigenvalues:    25.4705    27.8733    34.0551
     13  H    Isotropic =    29.4071   Anisotropy =     6.9829
   XX=    29.7137   YX=     2.8703   ZX=     0.0004
   XY=     0.2515   YY=    33.5021   ZY=     0.0008
   XZ=     0.0006   YZ=     0.0010   ZZ=    25.0055
   Eigenvalues:    25.0055    29.1534    34.0623
     14  H    Isotropic =    29.1330   Anisotropy =     7.3831
   XX=    29.5190   YX=    -1.5677   ZX=    -2.6210
   XY=    -0.6773   YY=    28.6380   ZY=     2.1758
   XZ=    -4.4619   YZ=     2.5601   ZZ=    29.2421
   Eigenvalues:    25.4711    27.8728    34.0551
     15  H    Isotropic =    21.4356   Anisotropy =     9.8984
   XX=    26.3426   YX=    -3.5102   ZX=     0.0000
   XY=    -3.7684   YY=    20.2068   ZY=     0.0000
   XZ=     0.0001   YZ=    -0.0001   ZZ=    17.7574
   Eigenvalues:    17.7574    18.5148    28.0346
     16  H    Isotropic =    27.9630   Anisotropy =     7.7919
   XX=    30.4574   YX=     1.8483   ZX=    -3.5425
   XY=     0.0427   YY=    25.7036   ZY=    -1.0839
   XZ=    -3.4804   YZ=    -1.4163   ZZ=    27.7281
   Eigenvalues:    24.8759    25.8556    33.1577
     17  H    Isotropic =    28.0710   Anisotropy =     7.1778
   XX=    30.8349   YX=    -3.5196   ZX=     0.0001
   XY=    -1.9798   YY=    29.1155   ZY=    -0.0001
   XZ=     0.0001   YZ=    -0.0002   ZZ=    24.2625
   Eigenvalues:    24.2625    27.0943    32.8562
     18  H    Isotropic =    27.9630   Anisotropy =     7.7918
   XX=    30.4574   YX=     1.8485   ZX=     3.5424
   XY=     0.0427   YY=    25.7037   ZY=     1.0840
   XZ=     3.4803   YZ=     1.4164   ZZ=    27.7278
   Eigenvalues:    24.8758    25.8556    33.1575
     19  H    Isotropic =    22.5289   Anisotropy =     9.1487
   XX=    26.8509   YX=    -3.1059   ZX=     0.0000
   XY=    -4.0117   YY=    21.5015   ZY=     0.0000
   XZ=     0.0000   YZ=     0.0002   ZZ=    19.2342
   Eigenvalues:    19.2342    19.7244    28.6280
 End of Minotr F.D. properties file   721 does not exist.
 End of Minotr F.D. properties file   722 does not exist.
 End of Minotr F.D. properties file   788 does not exist.

 **********************************************************************

            Population analysis using the SCF Density.

 **********************************************************************

 Orbital symmetries:
       Occupied  (A) (A) (A) (A) (A) (A) (A) (A) (A) (A) (A) (A)
                 (A) (A) (A) (A) (A) (A) (A) (A) (A) (A) (A) (A)
                 (A) (A) (A) (A) (A) (A) (A) (A) (A) (A) (A) (A)
                 (A) (A) (A) (A)
       Virtual   (A) (A) (A) (A) (A) (A) (A) (A) (A) (A) (A) (A)
                 (A) (A) (A) (A) (A) (A) (A) (A) (A) (A) (A) (A)
                 (A) (A) (A) (A) (A) (A) (A) (A) (A) (A) (A) (A)
                 (A) (A) (A) (A) (A) (A) (A) (A) (A) (A) (A) (A)
                 (A) (A) (A) (A) (A) (A) (A) (A) (A) (A) (A) (A)
                 (A) (A) (A) (A) (A) (A) (A) (A) (A) (A) (A) (A)
                 (A) (A) (A) (A) (A) (A) (A) (A) (A) (A) (A) (A)
                 (A) (A) (A) (A) (A) (A) (A) (A) (A) (A) (A) (A)
                 (A) (A) (A) (A) (A) (A) (A) (A) (A) (A) (A) (A)
                 (A) (A) (A) (A) (A) (A) (A) (A) (A) (A) (A) (A)
                 (A) (A) (A) (A) (A) (A) (A) (A) (A) (A) (A) (A)
                 (A) (A) (A) (A) (A) (A) (A) (A) (A) (A) (A) (A)
                 (A) (A) (A) (A) (A) (A) (A) (A) (A) (A) (A) (A)
                 (A) (A) (A) (A) (A) (A) (A) (A) (A) (A) (A) (A)
                 (A) (A) (A) (A) (A) (A) (A) (A) (A) (A) (A) (A)
                 (A) (A) (A) (A) (A) (A) (A) (A) (A) (A) (A) (A)
                 (A) (A) (A) (A) (A) (A) (A) (A) (A) (A) (A) (A)
                 (A) (A) (A) (A) (A) (A) (A) (A) (A) (A) (A) (A)
                 (A) (A) (A) (A) (A) (A) (A) (A) (A) (A) (A) (A)
                 (A) (A) (A) (A) (A) (A) (A) (A) (A) (A) (A) (A)
                 (A) (A) (A) (A) (A) (A) (A) (A) (A) (A) (A) (A)
                 (A) (A) (A) (A) (A) (A) (A) (A) (A) (A) (A) (A)
                 (A) (A) (A) (A) (A) (A) (A) (A) (A) (A) (A) (A)
                 (A) (A) (A) (A) (A) (A) (A) (A) (A) (A) (A) (A)
                 (A) (A) (A) (A) (A) (A) (A) (A) (A) (A) (A) (A)
                 (A) (A) (A) (A) (A) (A) (A) (A) (A) (A) (A) (A)
                 (A) (A) (A) (A) (A) (A) (A) (A) (A) (A) (A) (A)
                 (A) (A) (A) (A) (A) (A) (A) (A) (A) (A) (A) (A)
                 (A) (A) (A) (A) (A) (A) (A) (A) (A) (A) (A) (A)
                 (A)
 The electronic state is 1-A.
 Alpha  occ. eigenvalues --  -19.67882 -19.62419 -14.78238 -14.77556 -10.68341
 Alpha  occ. eigenvalues --  -10.60867 -10.60331 -10.59777 -10.59517 -10.59505
 Alpha  occ. eigenvalues --  -10.55012  -1.24052  -1.14608  -1.10646  -1.02930
 Alpha  occ. eigenvalues --   -0.91272  -0.85230  -0.81168  -0.75943  -0.73323
 Alpha  occ. eigenvalues --   -0.66933  -0.62895  -0.60828  -0.57545  -0.56832
 Alpha  occ. eigenvalues --   -0.55592  -0.53584  -0.53036  -0.49404  -0.48997
 Alpha  occ. eigenvalues --   -0.47635  -0.46238  -0.45871  -0.43904  -0.39886
 Alpha  occ. eigenvalues --   -0.39783  -0.38294  -0.37459  -0.32978  -0.32334
 Alpha virt. eigenvalues --   -0.04286  -0.01697   0.07112   0.07602   0.08311
 Alpha virt. eigenvalues --    0.10269   0.10567   0.12555   0.13363   0.14073
 Alpha virt. eigenvalues --    0.14485   0.15719   0.15750   0.16759   0.18608
 Alpha virt. eigenvalues --    0.18663   0.20954   0.21945   0.22286   0.22964
 Alpha virt. eigenvalues --    0.24653   0.25352   0.26655   0.27652   0.29001
 Alpha virt. eigenvalues --    0.29458   0.29573   0.30493   0.32660   0.33627
 Alpha virt. eigenvalues --    0.34066   0.35755   0.36413   0.37066   0.37492
 Alpha virt. eigenvalues --    0.38618   0.38619   0.39660   0.40532   0.41747
 Alpha virt. eigenvalues --    0.42866   0.43233   0.45105   0.45927   0.46012
 Alpha virt. eigenvalues --    0.47707   0.49027   0.49678   0.50536   0.50952
 Alpha virt. eigenvalues --    0.51588   0.52525   0.54089   0.55094   0.55394
 Alpha virt. eigenvalues --    0.56596   0.56840   0.58747   0.59709   0.61165
 Alpha virt. eigenvalues --    0.62395   0.63536   0.65480   0.66608   0.66748
 Alpha virt. eigenvalues --    0.67525   0.69229   0.70027   0.71026   0.72379
 Alpha virt. eigenvalues --    0.73446   0.76337   0.76625   0.77335   0.79438
 Alpha virt. eigenvalues --    0.79608   0.82149   0.83407   0.84480   0.85598
 Alpha virt. eigenvalues --    0.87752   0.88063   0.89308   0.93213   0.97111
 Alpha virt. eigenvalues --    0.97241   0.98709   0.99445   1.00310   1.03631
 Alpha virt. eigenvalues --    1.04888   1.06639   1.08492   1.08618   1.10859
 Alpha virt. eigenvalues --    1.13058   1.14052   1.16108   1.20807   1.20905
 Alpha virt. eigenvalues --    1.27847   1.29545   1.30146   1.31887   1.33199
 Alpha virt. eigenvalues --    1.35652   1.37847   1.39368   1.40193   1.42530
 Alpha virt. eigenvalues --    1.47404   1.49128   1.50309   1.50337   1.51570
 Alpha virt. eigenvalues --    1.52315   1.53136   1.54347   1.54506   1.55338
 Alpha virt. eigenvalues --    1.56107   1.56952   1.57515   1.58413   1.60834
 Alpha virt. eigenvalues --    1.62634   1.62819   1.63090   1.64484   1.67446
 Alpha virt. eigenvalues --    1.70160   1.70340   1.74400   1.75814   1.76929
 Alpha virt. eigenvalues --    1.77700   1.79681   1.82720   1.83549   1.83646
 Alpha virt. eigenvalues --    1.86313   1.87123   1.92482   1.92675   1.95953
 Alpha virt. eigenvalues --    1.96636   1.97347   2.00200   2.02689   2.02717
 Alpha virt. eigenvalues --    2.05705   2.06655   2.07011   2.08126   2.12133
 Alpha virt. eigenvalues --    2.13549   2.14147   2.16534   2.17286   2.19179
 Alpha virt. eigenvalues --    2.21151   2.23852   2.24560   2.26622   2.27891
 Alpha virt. eigenvalues --    2.30806   2.33822   2.34439   2.34793   2.37273
 Alpha virt. eigenvalues --    2.38648   2.40199   2.40774   2.41433   2.43109
 Alpha virt. eigenvalues --    2.46473   2.49876   2.52140   2.52976   2.53653
 Alpha virt. eigenvalues --    2.55229   2.55319   2.56029   2.58010   2.60777
 Alpha virt. eigenvalues --    2.61603   2.65350   2.66063   2.66837   2.69781
 Alpha virt. eigenvalues --    2.73364   2.75354   2.77269   2.79259   2.80693
 Alpha virt. eigenvalues --    2.81534   2.83655   2.86384   2.86773   2.88803
 Alpha virt. eigenvalues --    2.91705   2.92256   2.93239   2.94036   2.97847
 Alpha virt. eigenvalues --    2.98061   2.99670   3.00711   3.01811   3.03860
 Alpha virt. eigenvalues --    3.04921   3.05020   3.07654   3.08207   3.10819
 Alpha virt. eigenvalues --    3.11198   3.14375   3.15451   3.17439   3.17628
 Alpha virt. eigenvalues --    3.19117   3.20601   3.22179   3.22298   3.24609
 Alpha virt. eigenvalues --    3.25676   3.26758   3.28644   3.29245   3.29859
 Alpha virt. eigenvalues --    3.30013   3.30919   3.32234   3.34276   3.34524
 Alpha virt. eigenvalues --    3.35841   3.37250   3.38232   3.39335   3.40254
 Alpha virt. eigenvalues --    3.42210   3.45307   3.46203   3.46536   3.49137
 Alpha virt. eigenvalues --    3.54860   3.55332   3.57115   3.58683   3.59524
 Alpha virt. eigenvalues --    3.61533   3.62920   3.68801   3.70158   3.71895
 Alpha virt. eigenvalues --    3.73609   3.74928   3.77730   3.81422   3.82568
 Alpha virt. eigenvalues --    3.83157   3.90079   3.95378   3.99438   3.99647
 Alpha virt. eigenvalues --    4.01716   4.07669   4.12881   4.12950   4.14531
 Alpha virt. eigenvalues --    4.17410   4.17991   4.19722   4.23908   4.26499
 Alpha virt. eigenvalues --    4.30366   4.33655   4.33746   4.36873   4.37015
 Alpha virt. eigenvalues --    4.38478   4.43486   4.46141   4.51445   4.57392
 Alpha virt. eigenvalues --    4.62423   4.63723   4.66983   4.68561   4.72870
 Alpha virt. eigenvalues --    4.75961   4.75972   4.81149   4.88880   4.90376
 Alpha virt. eigenvalues --    4.97189   5.00287   5.02879   5.05195   5.11256
 Alpha virt. eigenvalues --    5.17449   5.18274   5.19174   5.24050   5.25618
 Alpha virt. eigenvalues --    5.30381   5.33199   5.37033   5.38052   5.42203
 Alpha virt. eigenvalues --    5.46082   5.48693   5.48908   5.60260   5.60511
 Alpha virt. eigenvalues --    5.61362   5.66223   5.73428   5.76952   5.80584
 Alpha virt. eigenvalues --    5.88609   5.96083   6.06320   6.09859   6.14716
 Alpha virt. eigenvalues --    6.29526   6.35011   6.38640   6.54839   6.63949
 Alpha virt. eigenvalues --    6.68222   6.74653   6.86495   6.91282   7.03150
 Alpha virt. eigenvalues --    7.11521   7.27941   7.41030  22.42115  22.46864
 Alpha virt. eigenvalues --   22.67610  22.88882  23.10429  23.11882  23.44306
 Alpha virt. eigenvalues --   32.46332  32.71536  44.03928  44.27121
          Condensed to atoms (all electrons):
               1          2          3          4          5          6
     1  C    5.042520   0.244007  -0.053024   0.001198  -0.000843  -0.000158
     2  C    0.244007   5.013510   0.433056  -0.087667  -0.048201  -0.005873
     3  N   -0.053024   0.433056   6.469573   0.506941  -0.064998   0.007848
     4  C    0.001198  -0.087667   0.506941   4.874154   0.488892  -0.063622
     5  C   -0.000843  -0.048201  -0.064998   0.488892   5.197432   0.292376
     6  C   -0.000158  -0.005873   0.007848  -0.063622   0.292376   4.461949
     7  O   -0.000004  -0.000208  -0.000138   0.008687  -0.112470   0.413485
     8  C    0.000000  -0.000009   0.000013  -0.000573   0.008866  -0.056112
     9  O   -0.000012   0.000022   0.000489   0.025341  -0.140105   0.658194
    10  N    0.007746  -0.057465  -0.010794  -0.051717   0.419780  -0.036171
    11  C   -0.045997   0.516872  -0.054111  -0.036349  -0.092884   0.001173
    12  H    0.403151  -0.030973   0.000272   0.000020   0.000277  -0.000007
    13  H    0.437514  -0.071872   0.005137   0.000135  -0.000120  -0.000019
    14  H    0.403133  -0.030958   0.000271   0.000020   0.000277  -0.000007
    15  H    0.000201   0.007459  -0.032984   0.406307  -0.032457  -0.010184
    16  H   -0.000000  -0.000003   0.000001  -0.000004  -0.002525  -0.008892
    17  H    0.000000   0.000003  -0.000001  -0.000026   0.003079   0.004590
    18  H   -0.000000  -0.000003   0.000001  -0.000004  -0.002525  -0.008893
    19  H    0.000992  -0.066839   0.005684  -0.004130   0.011493   0.000416
               7          8          9         10         11         12
     1  C   -0.000004   0.000000  -0.000012   0.007746  -0.045997   0.403151
     2  C   -0.000208  -0.000009   0.000022  -0.057465   0.516872  -0.030973
     3  N   -0.000138   0.000013   0.000489  -0.010794  -0.054111   0.000272
     4  C    0.008687  -0.000573   0.025341  -0.051717  -0.036349   0.000020
     5  C   -0.112470   0.008866  -0.140105   0.419780  -0.092884   0.000277
     6  C    0.413485  -0.056112   0.658194  -0.036171   0.001173  -0.000007
     7  O    7.904391   0.212623  -0.077398  -0.013943  -0.001007   0.000000
     8  C    0.212623   4.859461   0.001636  -0.000274   0.000079  -0.000000
     9  O   -0.077398   0.001636   7.864037   0.003285  -0.000536   0.000000
    10  N   -0.013943  -0.000274   0.003285   6.436719   0.523295  -0.000394
    11  C   -0.001007   0.000079  -0.000536   0.523295   4.869754   0.000531
    12  H    0.000000  -0.000000   0.000000  -0.000394   0.000531   0.512218
    13  H    0.000000  -0.000000   0.000000   0.000604   0.001579  -0.023538
    14  H    0.000000  -0.000000   0.000000  -0.000393   0.000527  -0.024680
    15  H    0.000361  -0.000158   0.009435   0.004663  -0.001322  -0.000053
    16  H   -0.033085   0.420245   0.004222  -0.000114   0.000004   0.000000
    17  H   -0.031021   0.395558   0.001618  -0.000067   0.000000  -0.000000
    18  H   -0.033084   0.420245   0.004223  -0.000114   0.000004  -0.000000
    19  H    0.000020  -0.000003   0.000000  -0.039993   0.422175  -0.000241
              13         14         15         16         17         18
     1  C    0.437514   0.403133   0.000201  -0.000000   0.000000  -0.000000
     2  C   -0.071872  -0.030958   0.007459  -0.000003   0.000003  -0.000003
     3  N    0.005137   0.000271  -0.032984   0.000001  -0.000001   0.000001
     4  C    0.000135   0.000020   0.406307  -0.000004  -0.000026  -0.000004
     5  C   -0.000120   0.000277  -0.032457  -0.002525   0.003079  -0.002525
     6  C   -0.000019  -0.000007  -0.010184  -0.008892   0.004590  -0.008893
     7  O    0.000000   0.000000   0.000361  -0.033085  -0.031021  -0.033084
     8  C   -0.000000  -0.000000  -0.000158   0.420245   0.395558   0.420245
     9  O    0.000000   0.000000   0.009435   0.004222   0.001618   0.004223
    10  N    0.000604  -0.000393   0.004663  -0.000114  -0.000067  -0.000114
    11  C    0.001579   0.000527  -0.001322   0.000004   0.000000   0.000004
    12  H   -0.023538  -0.024680  -0.000053   0.000000  -0.000000  -0.000000
    13  H    0.538950  -0.023538  -0.000003  -0.000000  -0.000000  -0.000000
    14  H   -0.023538   0.512228  -0.000053  -0.000000  -0.000000   0.000000
    15  H   -0.000003  -0.000053   0.469434  -0.000009   0.000002  -0.000009
    16  H   -0.000000  -0.000000  -0.000009   0.532294  -0.024500  -0.041446
    17  H   -0.000000  -0.000000   0.000002  -0.024500   0.525645  -0.024500
    18  H   -0.000000   0.000000  -0.000009  -0.041446  -0.024500   0.532294
    19  H   -0.002696  -0.000241   0.000150   0.000000  -0.000000   0.000000
              19
     1  C    0.000992
     2  C   -0.066839
     3  N    0.005684
     4  C   -0.004130
     5  C    0.011493
     6  C    0.000416
     7  O    0.000020
     8  C   -0.000003
     9  O    0.000000
    10  N   -0.039993
    11  C    0.422175
    12  H   -0.000241
    13  H   -0.002696
    14  H   -0.000241
    15  H    0.000150
    16  H    0.000000
    17  H   -0.000000
    18  H    0.000000
    19  H    0.521119
 Mulliken charges:
               1
     1  C   -0.440423
     2  C    0.185144
     3  N   -0.213238
     4  C   -0.067604
     5  C    0.074656
     6  C    0.349906
     7  O   -0.237209
     8  C   -0.261597
     9  O   -0.354449
    10  N   -0.184652
    11  C   -0.103787
    12  H    0.163416
    13  H    0.137869
    14  H    0.163415
    15  H    0.179220
    16  H    0.153810
    17  H    0.149619
    18  H    0.153811
    19  H    0.152094
 Sum of Mulliken charges =  -0.00000
 Mulliken charges with hydrogens summed into heavy atoms:
               1
     1  C    0.024277
     2  C    0.185144
     3  N   -0.213238
     4  C    0.111616
     5  C    0.074656
     6  C    0.349906
     7  O   -0.237209
     8  C    0.195644
     9  O   -0.354449
    10  N   -0.184652
    11  C    0.048306
 Electronic spatial extent (au):  <R**2>=           2124.1628
 Charge=              0.0000 electrons
 Dipole moment (field-independent basis, Debye):
    X=             -1.0782    Y=             -1.8730    Z=              0.0000  Tot=              2.1612
 Quadrupole moment (field-independent basis, Debye-Ang):
   XX=            -50.0298   YY=            -68.6180   ZZ=            -63.3790
   XY=              0.1961   XZ=             -0.0001   YZ=              0.0000
 Traceless Quadrupole moment (field-independent basis, Debye-Ang):
   XX=             10.6458   YY=             -7.9424   ZZ=             -2.7034
   XY=              0.1961   XZ=             -0.0001   YZ=              0.0000
 Octapole moment (field-independent basis, Debye-Ang**2):
  XXX=             29.8040  YYY=             -7.0151  ZZZ=              0.0004  XYY=             -2.3153
  XXY=            -33.5752  XXZ=              0.0004  XZZ=              7.5821  YZZ=              1.8078
  YYZ=             -0.0003  XYZ=              0.0001
 Hexadecapole moment (field-independent basis, Debye-Ang**3):
 XXXX=          -2005.2564 YYYY=           -409.2387 ZZZZ=            -76.3507 XXXY=            -35.0650
 XXXZ=             -0.0011 YYYX=              7.7804 YYYZ=              0.0001 ZZZX=             -0.0020
 ZZZY=             -0.0001 XXYY=           -473.2191 XXZZ=           -386.8070 YYZZ=            -85.6703
 XXYZ=             -0.0005 YYXZ=              0.0017 ZZXY=             -0.9437
 N-N= 5.819233091641D+02 E-N=-2.404296408054D+03  KE= 5.287974400970D+02
 Unable to Open any file for archive entry.
 1\1\GINC-COMPUTE-0-32\SP\RM062X\def2TZVP\C7H8N2O2\ZTAN64\14-Aug-2024\0
 \\# M062X/def2tzvp int=(grid=ultrafine) nmr=giao guess=read geom=check
 \\pyrz3.xyz\\0,1\C,0,-3.7305140733,-0.465480814,0.444655496\C,0,-2.275
 1382675,-0.1983160067,0.1903546573\N,0,-1.4249982589,-0.374663805,1.21
 52267623\C,0,-0.1348129995,-0.134172657,0.9768315259\C,0,0.3234984844,
 0.282954594,-0.278803211\C,0,1.7885468917,0.5299239472,-0.4573058722\O
 ,0,2.1041407193,0.9240388222,-1.6992259856\C,0,3.5023924001,1.17270771
 15,-1.9153208877\O,0,2.5967597401,0.3841025021,0.4399893143\N,0,-0.515
 5892365,0.4616309061,-1.3066593718\C,0,-1.8028557337,0.2203784715,-1.0
 642009387\H,0,-4.0976030236,0.1795840094,1.2489089394\H,0,-4.334581653
 5,-0.2931516047,-0.4490054996\H,0,-3.8724963816,-1.4997896555,0.772889
 6424\H,0,0.5684053326,-0.2709321242,1.7924383211\H,0,3.8585719156,1.96
 28212988,-1.2499960937\H,0,3.5861077246,1.4790043658,-2.957072959\H,0,
 4.0858389805,0.2676671825,-1.7301413071\H,0,-2.4936725608,0.3623928559
 ,-1.8924625323\\Version=ES64L-G16RevC.01\State=1-A\HF=-531.5007975\RMS
 D=2.504e-09\Dipole=-0.6212574,0.0795942,-0.5750477\Quadrupole=6.602118
 3,-1.821457,-4.7806613,2.1092951,-3.3702039,0.3330435\PG=C01 [X(C7H8N2
 O2)]\\@
 The archive entry for this job was punched.


 IF I HAVE SEEN FARTHER, IT IS BY STANDING ON THE
 SHOULDERS OF GIANTS. -- SIR ISAAC NEWTON
 Job cpu time:       0 days  0 hours 17 minutes  4.1 seconds.
 Elapsed time:       0 days  0 hours  1 minutes  9.0 seconds.
 File lengths (MBytes):  RWF=     89 Int=      0 D2E=      0 Chk=     15 Scr=      1
 Normal termination of Gaussian 16 at Wed Aug 14 20:39:04 2024.
 
 
-----Kestrel cluster job statistics-----
Time info:

real	6m8.806s
user	95m43.091s
sys	0m14.150s
 
Disk space usage:
15M	/scratch/363002.kestrel.chem.wisc.edu
